<event>
 7    1  0.3151015E-009  0.1259834E+03  0.7561462E-02  0.1233540E+00
          1   -1    0    0  501    0  0.00000000000E+00  0.00000000000E+00  0.16530342225E+03  0.16530342225E+03  0.00000000000E+00 0. -1.
         -1   -1    0    0    0  501 -0.00000000000E+00 -0.00000000000E+00 -0.10430023962E+03  0.10430023962E+03  0.00000000000E+00 0.  1.
         25    2    1    2    0    0  0.77295791956E+01  0.72935842613E+02  0.12896124444E+02  0.14556930975E+03  0.12507889664E+03 0.  0.
          5    1    3    3  502    0  0.20032822160E+02  0.10555232232E+03 -0.17384413430E+01  0.10753186174E+03  0.41800000000E+01 0.  1.
         -5    1    3    3    0  502 -0.12303242964E+02 -0.32616479704E+02  0.14634565787E+02  0.38037448015E+02  0.41800000000E+01 0.  1.
        -11    1    1    2    0    0  0.16653135519E+02 -0.81737561594E+02  0.19965231900E+02  0.85772760145E+02  0.00000000000E+00 0. -1.
         11    1    1    2    0    0 -0.24382714714E+02  0.88017189818E+01  0.28141826281E+02  0.38261591973E+02  0.00000000000E+00 0.  1.
</event>
<event>
 7    1  0.3151015E-009  0.1374394E+03  0.7561462E-02  0.1216817E+00
          3   -1    0    0  501    0  0.00000000000E+00  0.00000000000E+00  0.74111845446E+03  0.74111845446E+03  0.00000000000E+00 0. -1.
         -3   -1    0    0    0  501 -0.00000000000E+00 -0.00000000000E+00 -0.39943561308E+02  0.39943561308E+02  0.00000000000E+00 0.  1.
         25    2    1    2    0    0  0.10208070654E+03 -0.68355229843E+02  0.26186669299E+03  0.31514932718E+03  0.12510805502E+03 0.  0.
          5    1    3    3  502    0  0.26743047461E+02 -0.50597324676E+02  0.19367920335E+02  0.60562930824E+02  0.41800000000E+01 0.  1.
         -5    1    3    3    0  502  0.75337659077E+02 -0.17757905167E+02  0.24249877265E+03  0.25458639636E+03  0.41800000000E+01 0.  1.
        -11    1    1    2    0    0 -0.45839652512E+02  0.70049158048E+02  0.15571683324E+03  0.17679335520E+03  0.00000000000E+00 0.  1.
         11    1    1    2    0    0 -0.56241054025E+02 -0.16939282050E+01  0.28359136692E+03  0.28911933339E+03  0.00000000000E+00 0. -1.
</event>
<event>
 7    1  0.3151015E-009  0.1072146E+03  0.7561462E-02  0.1265817E+00
         -1   -1    0    0    0  501 -0.00000000000E+00  0.00000000000E+00  0.26967564410E+03  0.26967564410E+03  0.00000000000E+00 0.  1.
          1   -1    0    0  501    0  0.00000000000E+00 -0.00000000000E+00 -0.83573801004E+02  0.83573801004E+02  0.00000000000E+00 0. -1.
         25    2    1    2    0    0  0.87128944061E+02  0.44594692116E+02  0.63096053389E+02  0.17090625484E+03  0.12509075318E+03 0.  0.
          5    1    3    3  502    0  0.17868329635E+02  0.26635602791E+02  0.89000292647E+02  0.94695601964E+02  0.41800000000E+01 0. -1.
         -5    1    3    3    0  502  0.69260614426E+02  0.17959089324E+02 -0.25904239258E+02  0.76210652875E+02  0.41800000000E+01 0. -1.
        -11    1    1    2    0    0 -0.34149875525E+02 -0.46147522321E+02  0.11032864691E+02  0.58459660605E+02  0.00000000000E+00 0. -1.
         11    1    1    2    0    0 -0.52979068536E+02  0.15528302050E+01  0.11197292502E+03  0.12388352966E+03  0.00000000000E+00 0.  1.
</event>
<event>
 7    1  0.3151015E-009  0.1092158E+03  0.7561462E-02  0.1262029E+00
          2   -1    0    0  501    0  0.00000000000E+00  0.00000000000E+00  0.31384410586E+03  0.31384410586E+03  0.00000000000E+00 0.  1.
         -2   -1    0    0    0  501 -0.00000000000E+00 -0.00000000000E+00 -0.55453690449E+02  0.55453690449E+02  0.00000000000E+00 0. -1.
         25    2    1    2    0    0  0.15307194602E+02  0.24045964415E+02  0.46566305088E+02  0.13648662281E+03  0.12509060247E+03 0.  0.
          5    1    3    3  502    0 -0.76828741690E+01 -0.49497859732E+02  0.26172765746E+02  0.56670545615E+02  0.41800000000E+01 0. -1.
         -5    1    3    3    0  502  0.22990068771E+02  0.73543824147E+02  0.20393539342E+02  0.79816077197E+02  0.41800000000E+01 0. -1.
        -11    1    1    2    0    0  0.23463104904E+01  0.32078776999E+02  0.40825453270E+02  0.51973750504E+02  0.00000000000E+00 0. -1.
         11    1    1    2    0    0 -0.17653505093E+02 -0.56124741415E+02  0.17099865705E+03  0.18083742299E+03  0.00000000000E+00 0.  1.
</event>
<event>
 7    1  0.3151015E-009  0.1201970E+03  0.7561462E-02  0.1242772E+00
         -2   -1    0    0    0  501 -0.00000000000E+00  0.00000000000E+00  0.26660225405E+03  0.26660225405E+03  0.00000000000E+00 0.  1.
          2   -1    0    0  501    0  0.00000000000E+00 -0.00000000000E+00 -0.98099691981E+02  0.98099691981E+02  0.00000000000E+00 0. -1.
         25    2    1    2    0    0 -0.98962096491E+02 -0.82591145828E+01  0.16770433529E+03  0.23159238797E+03  0.12509428674E+03 0.  0.
          5    1    3    3  502    0 -0.58902807924E+02 -0.28619549508E+02  0.17405791509E+03  0.18601679925E+03  0.41800000000E+01 0.  1.
         -5    1    3    3    0  502 -0.40059288567E+02  0.20360434926E+02 -0.63535798058E+01  0.45575588721E+02  0.41800000000E+01 0.  1.
        -11    1    1    2    0    0  0.11391397440E+03  0.35598521486E+01  0.10858400955E+02  0.11448568025E+03  0.00000000000E+00 0.  1.
         11    1    1    2    0    0 -0.14951877912E+02  0.46992624342E+01 -0.10060174170E+02  0.18623877814E+02  0.00000000000E+00 0. -1.
</event>
<event>
 7    1  0.3151015E-009  0.8577767E+02  0.7561462E-02  0.1313411E+00
         -1   -1    0    0    0  501 -0.00000000000E+00  0.00000000000E+00  0.16704986276E+03  0.16704986276E+03  0.00000000000E+00 0.  1.
          1   -1    0    0  501    0  0.00000000000E+00 -0.00000000000E+00 -0.86874426276E+02  0.86874426276E+02  0.00000000000E+00 0. -1.
         25    2    1    2    0    0  0.83079644876E+01  0.14853788345E+02  0.10030860796E+03  0.16124442761E+03  0.12509313052E+03 0.  0.
          5    1    3    3  502    0 -0.24098394290E+02 -0.42673960631E+02  0.11519787711E+02  0.50517100393E+02  0.41800000000E+01 0. -1.
         -5    1    3    3    0  502  0.32406358778E+02  0.57527748975E+02  0.88788820245E+02  0.11072732721E+03  0.41800000000E+01 0. -1.
        -11    1    1    2    0    0 -0.30680997888E+02 -0.14249318179E+02 -0.46875756750E+02  0.57807467258E+02  0.00000000000E+00 0. -1.
         11    1    1    2    0    0  0.22373033400E+02 -0.60447016595E+00  0.26742585274E+02  0.34872394166E+02  0.00000000000E+00 0.  1.
</event>
<event>
 7    1  0.3151015E-009  0.1343345E+03  0.7561462E-02  0.1221162E+00
          1   -1    0    0  501    0  0.00000000000E+00  0.00000000000E+00  0.28985398560E+03  0.28985398560E+03  0.00000000000E+00 0. -1.
         -1   -1    0    0    0  501 -0.00000000000E+00 -0.00000000000E+00 -0.67418273210E+02  0.67418273210E+02  0.00000000000E+00 0.  1.
         25    2    1    2    0    0 -0.87082692801E+02 -0.31966663329E+02  0.15867268906E+03  0.22232771204E+03  0.12508927346E+03 0.  0.
          5    1    3    3  502    0 -0.84505158217E+02 -0.73563486307E+02  0.12946495069E+03  0.17126398962E+03  0.41800000000E+01 0. -1.
         -5    1    3    3    0  502 -0.25775345842E+01  0.41596822977E+02  0.29207738378E+02  0.51063722421E+02  0.41800000000E+01 0. -1.
        -11    1    1    2    0    0 -0.67136329435E+01  0.18784663579E+02 -0.13665417476E+01  0.19995096634E+02  0.00000000000E+00 0.  1.
         11    1    1    2    0    0  0.93796325745E+02  0.13181999751E+02  0.65129565075E+02  0.11494945014E+03  0.00000000000E+00 0. -1.
</event>
<event>
 7    1  0.3151015E-009  0.2090457E+03  0.7561462E-02  0.1142324E+00
          2   -1    0    0  501    0  0.00000000000E+00  0.00000000000E+00  0.71379389772E+03  0.71379389772E+03  0.00000000000E+00 0. -1.
         -2   -1    0    0    0  501 -0.00000000000E+00 -0.00000000000E+00 -0.66375704349E+02  0.66375704349E+02  0.00000000000E+00 0.  1.
         25    2    1    2    0    0  0.30822833388E+02 -0.18380499966E+03  0.28783367359E+03  0.36501290542E+03  0.12510744387E+03 0.  0.
          5    1    3    3  502    0 -0.27263784436E+02 -0.12456843873E+03  0.10891814754E+03  0.16775352495E+03  0.41800000000E+01 0.  1.
         -5    1    3    3    0  502  0.58086617824E+02 -0.59236560930E+02  0.17891552605E+03  0.19725938047E+03  0.41800000000E+01 0.  1.
        -11    1    1    2    0    0 -0.62966748113E+02  0.13547834489E+03  0.26334069538E+03  0.30276643663E+03  0.00000000000E+00 0.  1.
         11    1    1    2    0    0  0.32143914725E+02  0.48326654767E+02  0.96243824395E+02  0.11239026003E+03  0.00000000000E+00 0. -1.
</event>
<event>
 7    1  0.3151015E-009  0.1047958E+03  0.7561462E-02  0.1270522E+00
         -1   -1    0    0    0  501 -0.00000000000E+00  0.00000000000E+00  0.81646280553E+02  0.81646280553E+02  0.00000000000E+00 0.  1.
          1   -1    0    0  501    0  0.00000000000E+00 -0.00000000000E+00 -0.15067770532E+03  0.15067770532E+03  0.00000000000E+00 0. -1.
         25    2    1    2    0    0 -0.15273978546E+02 -0.11110616036E+02 -0.25347433152E+02  0.12902142510E+03  0.12508915044E+03 0.  0.
          5    1    3    3  502    0 -0.65544988332E+02  0.58121510081E+01  0.77052769481E+01  0.66383509154E+02  0.41800000000E+01 0.  1.
         -5    1    3    3    0  502  0.50271009786E+02 -0.16922767044E+02 -0.33052710100E+02  0.62637915948E+02  0.41800000000E+01 0.  1.
        -11    1    1    2    0    0 -0.27178448599E+01 -0.38025707382E+02 -0.31797089999E+02  0.49642683600E+02  0.00000000000E+00 0. -1.
         11    1    1    2    0    0  0.17991823406E+02  0.49136323418E+02 -0.11886901621E+02  0.53659877177E+02  0.00000000000E+00 0.  1.
</event>
<event>
 6    1  0.3151015E-009  0.1190458E+03  0.7561462E-02  0.1244679E+00
         -1   -1    0    0    0  501 -0.00000000000E+00  0.00000000000E+00  0.11787534464E+03  0.11787534464E+03  0.00000000000E+00 0.  1.
          1   -1    0    0  501    0  0.00000000000E+00 -0.00000000000E+00 -0.18875776398E+03  0.18875776398E+03  0.00000000000E+00 0. -1.
          5    1    1    2  502    0 -0.69722050401E+01  0.43383639723E+02 -0.39211008011E+02  0.59040049018E+02  0.41800000000E+01 0. -1.
         -5    1    1    2    0  502  0.78515719777E+02 -0.63385963052E+02 -0.71932459377E+02  0.12399294204E+03  0.41800000000E+01 0. -1.
        -11    1    1    2    0    0 -0.79314950292E+02  0.94836473875E+01  0.60012420519E+02  0.99911418387E+02  0.00000000000E+00 0.  1.
         11    1    1    2    0    0  0.77714355552E+01  0.10518675941E+02 -0.19751372466E+02  0.23688699171E+02  0.00000000000E+00 0. -1.
</event>
<event>
 7    1  0.3151015E-009  0.1457199E+03  0.7561462E-02  0.1205833E+00
          1   -1    0    0  501    0  0.00000000000E+00  0.00000000000E+00  0.44585637704E+02  0.44585637704E+02  0.00000000000E+00 0. -1.
         -1   -1    0    0    0  501 -0.00000000000E+00 -0.00000000000E+00 -0.65493075989E+03  0.65493075989E+03  0.00000000000E+00 0.  1.
         25    2    1    2    0    0  0.11105843999E+03 -0.58329571587E+02 -0.40489748241E+03  0.44195633529E+03  0.12508842882E+03 0.  0.
          5    1    3    3  502    0  0.12530198074E+03 -0.50663448716E+02 -0.40307290674E+03  0.42515010521E+03  0.41800000000E+01 0. -1.
         -5    1    3    3    0  502 -0.14243540751E+02 -0.76661228715E+01 -0.18245756690E+01  0.16806230077E+02  0.41800000000E+01 0. -1.
        -11    1    1    2    0    0 -0.10098954882E+03  0.24091395792E+02 -0.19408006553E+03  0.22010532969E+03  0.00000000000E+00 0. -1.
         11    1    1    2    0    0 -0.10068891165E+02  0.34238175795E+02 -0.11367574246E+02  0.37454732615E+02  0.00000000000E+00 0.  1.
</event>
<event>
 7    1  0.3151015E-009  0.1751011E+03  0.7561462E-02  0.1172630E+00
         -2   -1    0    0    0  501 -0.00000000000E+00  0.00000000000E+00  0.28824488081E+03  0.28824488081E+03  0.00000000000E+00 0. -1.
          2   -1    0    0  501    0  0.00000000000E+00 -0.00000000000E+00 -0.12945399967E+03  0.12945399967E+03  0.00000000000E+00 0.  1.
         25    2    1    2    0    0  0.92282791615E+01 -0.15788586716E+03  0.57609726133E+02  0.20971285596E+03  0.12508994055E+03 0.  0.
          5    1    3    3  502    0  0.50189256113E+02 -0.48264731172E+02 -0.15777599983E+02  0.71518184858E+02  0.41800000000E+01 0.  1.
         -5    1    3    3    0  502 -0.40960976951E+02 -0.10962113599E+03  0.73387326115E+02  0.13819467111E+03  0.41800000000E+01 0.  1.
        -11    1    1    2    0    0 -0.20036867627E+02  0.14564845394E+03  0.51643143487E+02  0.15582670653E+03  0.00000000000E+00 0.  1.
         11    1    1    2    0    0  0.10808588465E+02  0.12237413219E+02  0.49538011521E+02  0.52159317982E+02  0.00000000000E+00 0. -1.
</event>
<event>
 7    1  0.3151015E-009  0.1166929E+03  0.7561462E-02  0.1248655E+00
         -3   -1    0    0    0  501 -0.00000000000E+00  0.00000000000E+00  0.36064497636E+03  0.36064497636E+03  0.00000000000E+00 0.  1.
          3   -1    0    0  501    0  0.00000000000E+00 -0.00000000000E+00 -0.42679912853E+02  0.42679912853E+02  0.00000000000E+00 0. -1.
         25    2    1    2    0    0  0.27029782015E+02 -0.52218608824E+02  0.16024278222E+03  0.21162339045E+03  0.12509723382E+03 0.  0.
          5    1    3    3  502    0  0.51710793822E+02 -0.83097569710E+02  0.12200191528E+03  0.15646453919E+03  0.41800000000E+01 0. -1.
         -5    1    3    3    0  502 -0.24681011806E+02  0.30878960886E+02  0.38240866933E+02  0.55158851266E+02  0.41800000000E+01 0. -1.
        -11    1    1    2    0    0 -0.34931983525E+02 -0.72538243072E+01  0.10812799415E+03  0.11386186613E+03  0.00000000000E+00 0. -1.
         11    1    1    2    0    0  0.79022015093E+01  0.59472433131E+02  0.49594287141E+02  0.77839632632E+02  0.00000000000E+00 0.  1.
</event>
<event>
 7    1  0.3151015E-009  0.1110026E+03  0.7561462E-02  0.1258724E+00
          2   -1    0    0  501    0  0.00000000000E+00  0.00000000000E+00  0.40333771714E+03  0.40333771714E+03  0.00000000000E+00 0. -1.
         -2   -1    0    0    0  501 -0.00000000000E+00 -0.00000000000E+00 -0.43176868268E+02  0.43176868268E+02  0.00000000000E+00 0.  1.
         25    2    1    2    0    0  0.74171906720E+02 -0.88102498889E+01  0.19142635408E+03  0.24056115592E+03  0.12508608416E+03 0.  0.
          5    1    3    3  502    0  0.40940843593E+02 -0.45800070857E+02  0.17877620324E+03  0.18908252804E+03  0.41800000000E+01 0.  1.
         -5    1    3    3    0  502  0.33231063127E+02  0.36989820968E+02  0.12650150841E+02  0.51478627877E+02  0.41800000000E+01 0.  1.
        -11    1    1    2    0    0  0.10089172378E+02  0.22971117814E+02  0.75168046584E+02  0.79244551107E+02  0.00000000000E+00 0. -1.
         11    1    1    2    0    0 -0.84261079098E+02 -0.14160867925E+02  0.93566448202E+02  0.12670887838E+03  0.00000000000E+00 0.  1.
</event>
<event>
 7    1  0.3151015E-009  0.6216361E+02  0.7561462E-02  0.1388970E+00
         -1   -1    0    0    0  501 -0.00000000000E+00  0.00000000000E+00  0.12207907803E+02  0.12207907803E+02  0.00000000000E+00 0.  1.
          1   -1    0    0  501    0  0.00000000000E+00 -0.00000000000E+00 -0.11873948590E+04  0.11873948590E+04  0.00000000000E+00 0. -1.
         25    2    1    2    0    0  0.17064845256E+02  0.16456409252E+02 -0.89050733026E+03  0.89956207904E+03  0.12508639596E+03 0.  0.
          5    1    3    3  502    0  0.74873762701E+01 -0.16817598061E+02 -0.82612116824E+03  0.82633682565E+03  0.41800000000E+01 0.  1.
         -5    1    3    3    0  502  0.95774689861E+01  0.33274007314E+02 -0.64386162018E+02  0.73225253391E+02  0.41800000000E+01 0.  1.
        -11    1    1    2    0    0  0.24335108777E+02  0.35500004805E+01 -0.20871771894E+02  0.32255710883E+02  0.00000000000E+00 0.  1.
         11    1    1    2    0    0 -0.41399954034E+02 -0.20006409733E+02 -0.26380784900E+03  0.26778497684E+03  0.00000000000E+00 0. -1.
</event>
<event>
 7    1  0.3151015E-009  0.1429140E+03  0.7561462E-02  0.1209461E+00
          2   -1    0    0  501    0  0.00000000000E+00  0.00000000000E+00  0.96556586462E+03  0.96556586462E+03  0.00000000000E+00 0. -1.
         -2   -1    0    0    0  501 -0.00000000000E+00 -0.00000000000E+00 -0.32167468197E+02  0.32167468197E+02  0.00000000000E+00 0.  1.
         25    2    1    2    0    0  0.12412339719E+03  0.34680243426E+02  0.57407558646E+03  0.60151461256E+03  0.12509081954E+03 0.  0.
          5    1    3    3  502    0  0.41666464789E+02  0.51761793092E+02  0.10090419283E+03  0.12089047126E+03  0.41800000000E+01 0.  1.
         -5    1    3    3    0  502  0.82456932397E+02 -0.17081549666E+02  0.47317139364E+03  0.48062414130E+03  0.41800000000E+01 0.  1.
        -11    1    1    2    0    0 -0.11549348444E+03 -0.19009850006E+02  0.35976207223E+03  0.37832376077E+03  0.00000000000E+00 0. -1.
         11    1    1    2    0    0 -0.86299127477E+01 -0.15670393420E+02 -0.43926226810E+00  0.17894959494E+02  0.00000000000E+00 0.  1.
</event>
<event>
 7    1  0.3151015E-009  0.9505888E+02  0.7561462E-02  0.1291044E+00
         -2   -1    0    0    0  501 -0.00000000000E+00  0.00000000000E+00  0.40222093712E+02  0.40222093712E+02  0.00000000000E+00 0.  1.
          2   -1    0    0  501    0  0.00000000000E+00 -0.00000000000E+00 -0.37248258326E+03  0.37248258326E+03  0.00000000000E+00 0. -1.
         25    2    1    2    0    0  0.56676106692E+02 -0.19938879229E+01 -0.18310551670E+03  0.22889059969E+03  0.12508844759E+03 0.  0.
          5    1    3    3  502    0 -0.12697448542E+02  0.14088154281E+02  0.10840405643E+02  0.22241584589E+02  0.41800000000E+01 0. -1.
         -5    1    3    3    0  502  0.69373555234E+02 -0.16082042204E+02 -0.19394592234E+03  0.20664901510E+03  0.41800000000E+01 0. -1.
        -11    1    1    2    0    0  0.18609427784E+02 -0.12864658209E+02 -0.96482611971E+01  0.24594698157E+02  0.00000000000E+00 0. -1.
         11    1    1    2    0    0 -0.75285534476E+02  0.14858546132E+02 -0.13950671165E+03  0.15921937913E+03  0.00000000000E+00 0.  1.
</event>
<event>
 7    1  0.3151015E-009  0.1201193E+03  0.7561462E-02  0.1242900E+00
          2   -1    0    0  501    0  0.00000000000E+00  0.00000000000E+00  0.90873343439E+03  0.90873343439E+03  0.00000000000E+00 0. -1.
         -2   -1    0    0    0  501 -0.00000000000E+00 -0.00000000000E+00 -0.23267121646E+02  0.23267121646E+02  0.00000000000E+00 0.  1.
         25    2    1    2    0    0 -0.59846319212E+02 -0.76511612501E+02  0.45941183732E+03  0.48594350850E+03  0.12508496480E+03 0.  0.
          5    1    3    3  502    0  0.65722154515E+01  0.18561548946E+02  0.20877503230E+03  0.20974320401E+03  0.41800000000E+01 0.  1.
         -5    1    3    3    0  502 -0.66418534663E+02 -0.95073161448E+02  0.25063680502E+03  0.27620030449E+03  0.41800000000E+01 0.  1.
        -11    1    1    2    0    0 -0.51175992936E+01  0.90887406124E+01  0.62774317562E+00  0.10449358351E+02  0.00000000000E+00 0.  1.
         11    1    1    2    0    0  0.64963918506E+02  0.67422871889E+02  0.42542673225E+03  0.43560768918E+03  0.00000000000E+00 0. -1.
</event>
<event>
 7    1  0.3151015E-009  0.7040554E+02  0.7561462E-02  0.1358719E+00
         -2   -1    0    0    0  501 -0.00000000000E+00  0.00000000000E+00  0.37969983868E+02  0.37969983868E+02  0.00000000000E+00 0.  1.
          2   -1    0    0  501    0  0.00000000000E+00 -0.00000000000E+00 -0.37892949913E+03  0.37892949913E+03  0.00000000000E+00 0. -1.
         25    2    1    2    0    0 -0.33298580155E+02  0.36554357206E+02 -0.21626281194E+03  0.25467799464E+03  0.12508501371E+03 0.  0.
          5    1    3    3  502    0 -0.33523333187E+02 -0.10507645996E+01 -0.21412939512E+03  0.21678050703E+03  0.41800000000E+01 0.  1.
         -5    1    3    3    0  502  0.22475303114E+00  0.37605121805E+02 -0.21334168240E+01  0.37897487611E+02  0.41800000000E+01 0.  1.
        -11    1    1    2    0    0  0.26879998930E+02  0.48169237849E+01  0.33419155858E+01  0.27511915546E+02  0.00000000000E+00 0.  1.
         11    1    1    2    0    0  0.64185812251E+01 -0.41371280991E+02 -0.12803861890E+03  0.13470957281E+03  0.00000000000E+00 0. -1.
</event>
<event>
 7    1  0.3573089E-009  0.1306763E+03  0.7561462E-02  0.1226456E+00
         -1   -1    0    0    0  501 -0.00000000000E+00  0.00000000000E+00  0.20984106400E+02  0.20984106400E+02  0.00000000000E+00 0. -1.
          1   -1    0    0  501    0  0.00000000000E+00 -0.00000000000E+00 -0.10863833489E+04  0.10863833489E+04  0.00000000000E+00 0.  1.
         25    2    1    2    0    0 -0.92894728346E+02 -0.48677951452E+02 -0.58509707286E+03  0.60744257403E+03  0.12509565365E+03 0.  0.
          5    1    3    3  502    0 -0.11668611866E+03 -0.56729294824E+02 -0.54250508939E+03  0.55781995984E+03  0.41800000000E+01 0.  1.
         -5    1    3    3    0  502  0.23791390318E+02  0.80513433724E+01 -0.42591983475E+02  0.49622614197E+02  0.41800000000E+01 0.  1.
        -11    1    1    2    0    0  0.78601714947E+02  0.47257381211E+02 -0.47625031873E+03  0.48500088223E+03  0.00000000000E+00 0.  1.
         11    1    1    2    0    0  0.14293013399E+02  0.14205702403E+01 -0.40518509195E+01  0.14923999052E+02  0.00000000000E+00 0. -1.
</event>
<event>
 7    1  0.3151015E-009  0.7842606E+02  0.7561462E-02  0.1333578E+00
         -1   -1    0    0    0  501 -0.00000000000E+00  0.00000000000E+00  0.76342249883E+02  0.76342249883E+02  0.00000000000E+00 0.  1.
          1   -1    0    0  501    0  0.00000000000E+00 -0.00000000000E+00 -0.17657902243E+03  0.17657902243E+03  0.00000000000E+00 0. -1.
         25    2    1    2    0    0  0.10323793640E+02 -0.39045358735E+02 -0.65417361793E+02  0.14682957001E+03  0.12509344767E+03 0.  0.
          5    1    3    3  502    0  0.63369061964E+01 -0.48004008054E+02  0.25777684966E+02  0.55013658410E+02  0.41800000000E+01 0. -1.
         -5    1    3    3    0  502  0.39868874437E+01  0.89586493188E+01 -0.91195046759E+02  0.91815911598E+02  0.41800000000E+01 0. -1.
        -11    1    1    2    0    0 -0.46280757395E+02  0.25375899193E+01 -0.45395662680E+01  0.46572046654E+02  0.00000000000E+00 0.  1.
         11    1    1    2    0    0  0.35956963755E+02  0.36507768816E+02 -0.30279844482E+02  0.59519655646E+02  0.00000000000E+00 0. -1.
</event>
<event>
 7    1  0.3151015E-009  0.1197426E+03  0.7561462E-02  0.1243522E+00
          2   -1    0    0  501    0  0.00000000000E+00  0.00000000000E+00  0.51742434446E+03  0.51742434446E+03  0.00000000000E+00 0. -1.
         -2   -1    0    0    0  501 -0.00000000000E+00 -0.00000000000E+00 -0.31044301327E+02  0.31044301327E+02  0.00000000000E+00 0.  1.
         25    2    1    2    0    0 -0.23319600210E+02  0.61539059198E+02  0.26030667446E+03  0.29620626760E+03  0.12509088150E+03 0.  0.
          5    1    3    3  502    0  0.32627053531E+02  0.63815298210E+02  0.80631579181E+02  0.10796221964E+03  0.41800000000E+01 0. -1.
         -5    1    3    3    0  502 -0.55946653740E+02 -0.22762390113E+01  0.17967509528E+03  0.18824404796E+03  0.41800000000E+01 0. -1.
        -11    1    1    2    0    0  0.57765294342E+02 -0.31264573868E+02  0.12273781971E+03  0.13920802849E+03  0.00000000000E+00 0.  1.
         11    1    1    2    0    0 -0.34445694133E+02 -0.30274485330E+02  0.10333554897E+03  0.11305434970E+03  0.00000000000E+00 0. -1.
</event>
<event>
 7    1  0.3351863E-009  0.1135712E+03  0.7561462E-02  0.1254096E+00
          1   -1    0    0  501    0  0.00000000000E+00  0.00000000000E+00  0.23480198350E+03  0.23480198350E+03  0.00000000000E+00 0. -1.
         -1   -1    0    0    0  501 -0.00000000000E+00 -0.00000000000E+00 -0.62435466373E+02  0.62435466373E+02  0.00000000000E+00 0.  1.
         25    2    1    2    0    0 -0.43241451880E+02  0.30938380333E+02  0.10586853719E+03  0.17228518035E+03  0.12508808761E+03 0.  0.
          5    1    3    3  502    0 -0.81969149670E+02  0.39933087575E+02  0.92950451496E+02  0.13027222196E+03  0.41800000000E+01 0.  1.
         -5    1    3    3    0  502  0.38727697790E+02 -0.89947072421E+01  0.12918085692E+02  0.42012958387E+02  0.41800000000E+01 0.  1.
        -11    1    1    2    0    0 -0.16534419699E+02  0.13548816702E+02 -0.47053584436E+01  0.21888304340E+02  0.00000000000E+00 0.  1.
         11    1    1    2    0    0  0.59775871579E+02 -0.44487197035E+02  0.71203338384E+02  0.10306396519E+03  0.00000000000E+00 0. -1.
</event>
<event>
 7    1  0.3151015E-009  0.1663555E+03  0.7561462E-02  0.1181703E+00
         -2   -1    0    0    0  501 -0.00000000000E+00  0.00000000000E+00  0.39953337091E+03  0.39953337091E+03  0.00000000000E+00 0.  1.
          2   -1    0    0  501    0  0.00000000000E+00 -0.00000000000E+00 -0.83292782788E+02  0.83292782788E+02  0.00000000000E+00 0. -1.
         25    2    1    2    0    0 -0.46984519247E+02  0.13660199625E+03  0.13830933212E+03  0.23589298845E+03  0.12509348593E+03 0.  0.
          5    1    3    3  502    0 -0.10653758959E+02  0.14125380451E+03  0.69524503859E+02  0.15785204751E+03  0.41800000000E+01 0. -1.
         -5    1    3    3    0  502 -0.36330760288E+02 -0.46518082605E+01  0.68784828262E+02  0.78040940936E+02  0.41800000000E+01 0. -1.
        -11    1    1    2    0    0 -0.95451492630E+01 -0.48646572910E+02  0.12325110360E+02  0.51083336576E+02  0.00000000000E+00 0.  1.
         11    1    1    2    0    0  0.56529668510E+02 -0.87955423336E+02  0.16560614564E+03  0.19584982867E+03  0.00000000000E+00 0. -1.
</event>
<event>
 7    1  0.3151015E-009  0.3041951E+03  0.7561462E-02  0.1083162E+00
          2   -1    0    0  501    0  0.00000000000E+00  0.00000000000E+00  0.98402007100E+03  0.98402007100E+03  0.00000000000E+00 0. -1.
         -2   -1    0    0    0  501 -0.00000000000E+00 -0.00000000000E+00 -0.10799369711E+03  0.10799369711E+03  0.00000000000E+00 0.  1.
         25    2    1    2    0    0 -0.29026496585E+03 -0.59149567551E+02  0.56401927034E+03  0.64924399985E+03  0.12509041643E+03 0.  0.
          5    1    3    3  502    0 -0.28448362090E+02 -0.42772669541E+01  0.17320721835E+03  0.17562977312E+03  0.41800000000E+01 0.  1.
         -5    1    3    3    0  502 -0.26181660376E+03 -0.54872300597E+02  0.39081205199E+03  0.47361422673E+03  0.41800000000E+01 0.  1.
        -11    1    1    2    0    0  0.20397860840E+03  0.86069953393E+02  0.24527548593E+03  0.33041696924E+03  0.00000000000E+00 0.  1.
         11    1    1    2    0    0  0.86286357453E+02 -0.26920385842E+02  0.66731617624E+02  0.11235279902E+03  0.00000000000E+00 0. -1.
</event>
<event>
 7    1  0.3151015E-009  0.1138616E+03  0.7561462E-02  0.1253581E+00
         -2   -1    0    0    0  501 -0.00000000000E+00  0.00000000000E+00  0.13506189131E+02  0.13506189131E+02  0.00000000000E+00 0. -1.
          2   -1    0    0  501    0  0.00000000000E+00 -0.00000000000E+00 -0.14875468627E+04  0.14875468627E+04  0.00000000000E+00 0.  1.
         25    2    1    2    0    0 -0.61099747382E+02  0.67549271397E+02 -0.84171929789E+03  0.85582609438E+03  0.12510333404E+03 0.  0.
          5    1    3    3  502    0 -0.45039025154E+02  0.20928926434E+02 -0.93343459703E+02  0.10581591382E+03  0.41800000000E+01 0.  1.
         -5    1    3    3    0  502 -0.16060722228E+02  0.46620344963E+02 -0.74837583819E+03  0.75001018056E+03  0.41800000000E+01 0.  1.
        -11    1    1    2    0    0 -0.42911284455E+01 -0.62678497778E+02 -0.30616956098E+03  0.31254888888E+03  0.00000000000E+00 0.  1.
         11    1    1    2    0    0  0.65390875827E+02 -0.48707736187E+01 -0.32615181468E+03  0.33267806855E+03  0.00000000000E+00 0. -1.
</event>
<event>
 7    1  0.3151015E-009  0.1304104E+03  0.7561462E-02  0.1226848E+00
          1   -1    0    0  501    0  0.00000000000E+00  0.00000000000E+00  0.47154857209E+03  0.47154857209E+03  0.00000000000E+00 0. -1.
         -1   -1    0    0    0  501 -0.00000000000E+00 -0.00000000000E+00 -0.38721346356E+02  0.38721346356E+02  0.00000000000E+00 0.  1.
         25    2    1    2    0    0 -0.58907081078E+02  0.52928021054E+02  0.26672295431E+03  0.30505795158E+03  0.12509116618E+03 0.  0.
          5    1    3    3  502    0  0.19961394778E+02  0.59075346400E+02  0.75079757449E+02  0.97687236691E+02  0.41800000000E+01 0.  1.
         -5    1    3    3    0  502 -0.78868475856E+02 -0.61473253462E+01  0.19164319686E+03  0.20737071489E+03  0.41800000000E+01 0.  1.
        -11    1    1    2    0    0 -0.23427377115E+02 -0.54119606702E+01  0.22083099181E+02  0.32646509557E+02  0.00000000000E+00 0.  1.
         11    1    1    2    0    0  0.82334458194E+02 -0.47516060384E+02  0.14402117225E+03  0.17256545731E+03  0.00000000000E+00 0. -1.
</event>
<event>
 7    1  0.3151015E-009  0.1068149E+03  0.7561462E-02  0.1266585E+00
         -2   -1    0    0    0  501 -0.00000000000E+00  0.00000000000E+00  0.28390188909E+02  0.28390188909E+02  0.00000000000E+00 0. -1.
          2   -1    0    0  501    0  0.00000000000E+00 -0.00000000000E+00 -0.53329969809E+03  0.53329969809E+03  0.00000000000E+00 0.  1.
         25    2    1    2    0    0  0.35430165215E+02 -0.23414333703E+02 -0.36895224620E+03  0.39189264386E+03  0.12510218506E+03 0.  0.
          5    1    3    3  502    0 -0.11359282975E+02 -0.60327717366E+02 -0.10904098632E+03  0.12520333818E+03  0.41800000000E+01 0.  1.
         -5    1    3    3    0  502  0.46789448191E+02  0.36913383664E+02 -0.25991125988E+03  0.26668930569E+03  0.41800000000E+01 0.  1.
        -11    1    1    2    0    0 -0.52513174478E+02 -0.11255499875E+02 -0.41927461050E+02  0.68133925186E+02  0.00000000000E+00 0. -1.
         11    1    1    2    0    0  0.17083009263E+02  0.34669833578E+02 -0.94029801924E+02  0.10166331794E+03  0.00000000000E+00 0.  1.
</event>
<event>
 7    1  0.3151015E-009  0.3270819E+03  0.7561462E-02  0.1072435E+00
          2   -1    0    0  501    0  0.00000000000E+00  0.00000000000E+00  0.49083893008E+03  0.49083893008E+03  0.00000000000E+00 0. -1.
         -2   -1    0    0    0  501 -0.00000000000E+00 -0.00000000000E+00 -0.33738302659E+03  0.33738302659E+03  0.00000000000E+00 0.  1.
         25    2    1    2    0    0 -0.13502234625E+03  0.28419798106E+03  0.31567960411E+03  0.46292618088E+03  0.12509000786E+03 0.  0.
          5    1    3    3  502    0 -0.87751795975E+02  0.26493367142E+03  0.22390732815E+03  0.35782983659E+03  0.41800000000E+01 0.  1.
         -5    1    3    3    0  502 -0.47270550274E+02  0.19264309635E+02  0.91772275960E+02  0.10509634429E+03  0.41800000000E+01 0.  1.
        -11    1    1    2    0    0  0.14088088161E+03 -0.23288395279E+03 -0.15478741353E+03  0.31311579593E+03  0.00000000000E+00 0.  1.
         11    1    1    2    0    0 -0.58585353566E+01 -0.51314028265E+02 -0.74362870882E+01  0.52179979868E+02  0.00000000000E+00 0. -1.
</event>
<event>
 7    1  0.3151015E-009  0.1153344E+03  0.7561462E-02  0.1250999E+00
         -2   -1    0    0    0  501 -0.00000000000E+00  0.00000000000E+00  0.71422650731E+02  0.71422650731E+02  0.00000000000E+00 0.  1.
          2   -1    0    0  501    0  0.00000000000E+00 -0.00000000000E+00 -0.25880728263E+03  0.25880728263E+03  0.00000000000E+00 0. -1.
         25    2    1    2    0    0 -0.64253537867E+02 -0.25056501786E+02 -0.15271872073E+03  0.20911073945E+03  0.12509175944E+03 0.  0.
          5    1    3    3  502    0  0.19491326237E+02  0.19211914411E+02  0.18826611563E+01  0.27749347143E+02  0.41800000000E+01 0.  1.
         -5    1    3    3    0  502 -0.83744864105E+02 -0.44268416197E+02 -0.15460138189E+03  0.18136139230E+03  0.41800000000E+01 0.  1.
        -11    1    1    2    0    0  0.45189013431E+02 -0.27060167008E+02  0.49970030619E+01  0.52908124262E+02  0.00000000000E+00 0.  1.
         11    1    1    2    0    0  0.19064524437E+02  0.52116668795E+02 -0.39662914234E+02  0.68211069657E+02  0.00000000000E+00 0. -1.
</event>
<event>
 7    1  0.3151015E-009  0.8511245E+02  0.7561462E-02  0.1315139E+00
          1   -1    0    0  501    0  0.00000000000E+00  0.00000000000E+00  0.40819720682E+02  0.40819720682E+02  0.00000000000E+00 0. -1.
         -1   -1    0    0    0  501 -0.00000000000E+00 -0.00000000000E+00 -0.30652748367E+03  0.30652748367E+03  0.00000000000E+00 0.  1.
         25    2    1    2    0    0 -0.17499803672E+02 -0.98776535614E+01 -0.11138016708E+03  0.16869264839E+03  0.12509139392E+03 0.  0.
          5    1    3    3  502    0 -0.33947193784E+02  0.48251608873E+02 -0.27467859504E+02  0.65211850383E+02  0.41800000000E+01 0. -1.
         -5    1    3    3    0  502  0.16447390112E+02 -0.58129262434E+02 -0.83912307579E+02  0.10348079801E+03  0.41800000000E+01 0. -1.
        -11    1    1    2    0    0  0.21711466196E+02 -0.14290221946E+02 -0.15178115683E+03  0.15399064185E+03  0.00000000000E+00 0.  1.
         11    1    1    2    0    0 -0.42116625240E+01  0.24167875507E+02 -0.25464390775E+01  0.24663914120E+02  0.00000000000E+00 0. -1.
</event>
<event>
 7    1  0.3151015E-009  0.9990210E+02  0.7561462E-02  0.1280502E+00
          1   -1    0    0  501    0  0.00000000000E+00  0.00000000000E+00  0.20091281011E+03  0.20091281011E+03  0.00000000000E+00 0. -1.
         -1   -1    0    0    0  501 -0.00000000000E+00 -0.00000000000E+00 -0.19113698709E+03  0.19113698709E+03  0.00000000000E+00 0.  1.
         25    2    1    2    0    0  0.43604292826E+02  0.24541966493E+02  0.15924293231E+03  0.20859071995E+03  0.12509250372E+03 0.  0.
          5    1    3    3  502    0 -0.29465900105E+02  0.36861523849E+02  0.21290084988E+02  0.51939881866E+02  0.41800000000E+01 0.  1.
         -5    1    3    3    0  502  0.73070192931E+02 -0.12319557356E+02  0.13795284732E+03  0.15665083808E+03  0.41800000000E+01 0.  1.
        -11    1    1    2    0    0 -0.43002541301E+02  0.96005113407E+01 -0.14176374227E+03  0.14845318116E+03  0.00000000000E+00 0.  1.
         11    1    1    2    0    0 -0.60175152487E+00 -0.34142477833E+02 -0.77033670166E+01  0.35005896087E+02  0.00000000000E+00 0. -1.
</event>
<event>
 7    1  0.3151015E-009  0.9311567E+02  0.7561462E-02  0.1295477E+00
         -2   -1    0    0    0  501 -0.00000000000E+00  0.00000000000E+00  0.27240003287E+02  0.27240003287E+02  0.00000000000E+00 0. -1.
          2   -1    0    0  501    0  0.00000000000E+00 -0.00000000000E+00 -0.51555036844E+03  0.51555036844E+03  0.00000000000E+00 0.  1.
         25    2    1    2    0    0  0.84416756227E+01  0.91180144756E+01 -0.38341202141E+03  0.40348352690E+03  0.12505909901E+03 0.  0.
          5    1    3    3  502    0 -0.82636452146E+01 -0.43658139895E+02 -0.57045284376E+02  0.72428985088E+02  0.41800000000E+01 0. -1.
         -5    1    3    3    0  502  0.16705320837E+02  0.52776154370E+02 -0.32636673703E+03  0.33105454181E+03  0.41800000000E+01 0. -1.
        -11    1    1    2    0    0 -0.46703262052E+02 -0.10225948449E+02 -0.33771920481E+02  0.58534667685E+02  0.00000000000E+00 0.  1.
         11    1    1    2    0    0  0.38261586430E+02  0.11079339730E+01 -0.71126423268E+02  0.80772177144E+02  0.00000000000E+00 0. -1.
</event>
<event>
 7    1  0.3151015E-009  0.5649858E+02  0.7561462E-02  0.1413142E+00
         -4   -1    0    0    0  501 -0.00000000000E+00  0.00000000000E+00  0.11761898209E+03  0.11761898209E+03  0.00000000000E+00 0.  1.
          4   -1    0    0  501    0  0.00000000000E+00 -0.00000000000E+00 -0.10491236755E+03  0.10491236755E+03  0.00000000000E+00 0. -1.
         25    2    1    2    0    0 -0.19021840233E+02  0.17309694601E+02 -0.37966854579E+01  0.12775598505E+03  0.12508285639E+03 0.  0.
          5    1    3    3  502    0 -0.71227836132E+01  0.84007581322E+01 -0.64270870450E+02  0.65341594501E+02  0.41800000000E+01 0.  1.
         -5    1    3    3    0  502 -0.11899056619E+02  0.89089364689E+01  0.60474184992E+02  0.62414390551E+02  0.41800000000E+01 0.  1.
        -11    1    1    2    0    0 -0.93848354399E+01  0.29535367562E+02 -0.11738705013E+02  0.33139255704E+02  0.00000000000E+00 0.  1.
         11    1    1    2    0    0  0.28406675672E+02 -0.46845062163E+02  0.28242005008E+02  0.61636108887E+02  0.00000000000E+00 0. -1.
</event>
<event>
 6    1  0.3151015E-009  0.1523872E+03  0.7561462E-02  0.1197570E+00
          2   -1    0    0  501    0  0.00000000000E+00  0.00000000000E+00  0.98310752061E+02  0.98310752061E+02  0.00000000000E+00 0. -1.
         -2   -1    0    0    0  501 -0.00000000000E+00 -0.00000000000E+00 -0.36769759725E+03  0.36769759725E+03  0.00000000000E+00 0.  1.
          5    1    1    2  502    0 -0.12930935381E+03  0.69004813378E+02 -0.28945440301E+02  0.14945863698E+03  0.41800000000E+01 0. -1.
         -5    1    1    2    0  502  0.29096459555E+02  0.24610690144E+01  0.18343230899E+01  0.29554998909E+02  0.41800000000E+01 0. -1.
        -11    1    1    2    0    0  0.70201101284E+02 -0.69162174715E+02 -0.23668296554E+03  0.25637945941E+03  0.00000000000E+00 0.  1.
         11    1    1    2    0    0  0.30011792973E+02 -0.23037076776E+01 -0.55927624396E+01  0.30615254013E+02  0.00000000000E+00 0. -1.
</event>
<event>
 7    1  0.3151015E-009  0.1164599E+03  0.7561462E-02  0.1249054E+00
          2   -1    0    0  501    0  0.00000000000E+00  0.00000000000E+00  0.13537099689E+04  0.13537099689E+04  0.00000000000E+00 0. -1.
         -2   -1    0    0    0  501 -0.00000000000E+00 -0.00000000000E+00 -0.14822830437E+02  0.14822830437E+02  0.00000000000E+00 0.  1.
         25    2    1    2    0    0  0.29237098683E+02 -0.57911305173E+02  0.10410301737E+04  0.10505238689E+04  0.12509216365E+03 0.  0.
          5    1    3    3  502    0 -0.44086535495E+02 -0.22457118649E+02  0.22418764832E+03  0.22962037987E+03  0.41800000000E+01 0. -1.
         -5    1    3    3    0  502  0.73323634177E+02 -0.35454186524E+02  0.81684252540E+03  0.82090348907E+03  0.41800000000E+01 0. -1.
        -11    1    1    2    0    0  0.22486215883E+02 -0.19877926877E+01  0.24009044068E+02  0.32954748089E+02  0.00000000000E+00 0.  1.
         11    1    1    2    0    0 -0.51723314566E+02  0.59899097861E+02  0.27384792066E+03  0.28505418230E+03  0.00000000000E+00 0. -1.
</event>
<event>
 7    1  0.3151015E-009  0.8229577E+02  0.7561462E-02  0.1322660E+00
         -2   -1    0    0    0  501 -0.00000000000E+00  0.00000000000E+00  0.76789923891E+02  0.76789923891E+02  0.00000000000E+00 0. -1.
          2   -1    0    0  501    0  0.00000000000E+00 -0.00000000000E+00 -0.17696881515E+03  0.17696881515E+03  0.00000000000E+00 0.  1.
         25    2    1    2    0    0 -0.94458955931E+01 -0.38011125775E+02 -0.77141494528E+02  0.15209023220E+03  0.12508620199E+03 0.  0.
          5    1    3    3  502    0 -0.77131692312E+01 -0.81250972915E+02 -0.70854340584E+02  0.10816202457E+03  0.41800000000E+01 0. -1.
         -5    1    3    3    0  502 -0.17327263619E+01  0.43239847140E+02 -0.62871539435E+01  0.43928207636E+02  0.41800000000E+01 0. -1.
        -11    1    1    2    0    0  0.72327885499E+01  0.20430619895E+02  0.34900031107E+02  0.41082059719E+02  0.00000000000E+00 0. -1.
         11    1    1    2    0    0  0.22131070433E+01  0.17580505879E+02 -0.57937427843E+02  0.60586447122E+02  0.00000000000E+00 0.  1.
</event>
<event>
 7    1  0.3151015E-009  0.1190946E+03  0.7561462E-02  0.1244598E+00
         -1   -1    0    0    0  501 -0.00000000000E+00  0.00000000000E+00  0.12125588987E+02  0.12125588987E+02  0.00000000000E+00 0.  1.
          1   -1    0    0  501    0  0.00000000000E+00 -0.00000000000E+00 -0.16981465521E+04  0.16981465521E+04  0.00000000000E+00 0. -1.
         25    2    1    2    0    0 -0.78635326784E+02  0.46162962580E+01 -0.12191470269E+04  0.12280764825E+04  0.12509016291E+03 0.  0.
          5    1    3    3  502    0  0.17661871388E+02 -0.25579146920E+02 -0.59352435988E+03  0.59435248181E+03  0.41800000000E+01 0. -1.
         -5    1    3    3    0  502 -0.96297198172E+02  0.30195443178E+02 -0.62562266706E+03  0.63372400073E+03  0.41800000000E+01 0. -1.
        -11    1    1    2    0    0 -0.98068294820E+01 -0.13768204093E+02 -0.18372831907E+02  0.24965942816E+02  0.00000000000E+00 0.  1.
         11    1    1    2    0    0  0.88442156266E+02  0.91519078348E+01 -0.44850110430E+03  0.45722971576E+03  0.00000000000E+00 0. -1.
</event>
<event>
 7    1  0.3151015E-009  0.9888052E+02  0.7561462E-02  0.1282668E+00
         -1   -1    0    0    0  501 -0.00000000000E+00  0.00000000000E+00  0.53442891108E+02  0.53442891108E+02  0.00000000000E+00 0.  1.
          1   -1    0    0  501    0  0.00000000000E+00 -0.00000000000E+00 -0.36119264531E+03  0.36119264531E+03  0.00000000000E+00 0. -1.
         25    2    1    2    0    0 -0.68585874058E+02  0.25901147742E+02 -0.23184765878E+03  0.27345475883E+03  0.12509706899E+03 0.  0.
          5    1    3    3  502    0  0.94359601396E+01 -0.29422735389E+01 -0.16842945896E+03  0.16877099680E+03  0.41800000000E+01 0. -1.
         -5    1    3    3    0  502 -0.78021834197E+02  0.28843421281E+02 -0.63418199825E+02  0.10468376203E+03  0.41800000000E+01 0. -1.
        -11    1    1    2    0    0  0.82492602958E+02 -0.32097579393E+02 -0.85594309985E+02  0.12313273345E+03  0.00000000000E+00 0. -1.
         11    1    1    2    0    0 -0.13906728901E+02  0.61964316506E+01  0.96922145660E+01  0.18048044135E+02  0.00000000000E+00 0.  1.
</event>
<event>
 7    1  0.3151015E-009  0.9754450E+02  0.7561462E-02  0.1285546E+00
         -1   -1    0    0    0  501 -0.00000000000E+00  0.00000000000E+00  0.26874086356E+02  0.26874086356E+02  0.00000000000E+00 0.  1.
          1   -1    0    0  501    0  0.00000000000E+00 -0.00000000000E+00 -0.84546913390E+03  0.84546913390E+03  0.00000000000E+00 0. -1.
         25    2    1    2    0    0  0.30455700479E+02  0.16838531685E+02 -0.72458873388E+03  0.73613644103E+03  0.12512769761E+03 0.  0.
          5    1    3    3  502    0  0.23955544267E+02 -0.49969313983E+02 -0.45062345690E+03  0.45403719313E+03  0.41800000000E+01 0.  1.
         -5    1    3    3    0  502  0.65001562122E+01  0.66807845668E+02 -0.27396527698E+03  0.28209924789E+03  0.41800000000E+01 0.  1.
        -11    1    1    2    0    0  0.12065711887E+02 -0.26092071401E+02  0.39523711605E+01  0.29017216115E+02  0.00000000000E+00 0.  1.
         11    1    1    2    0    0 -0.42521412366E+02  0.92535397155E+01 -0.97958684831E+02  0.10718956311E+03  0.00000000000E+00 0. -1.
</event>
<event>
 7    1  0.3151015E-009  0.1082641E+03  0.7561462E-02  0.1263819E+00
         -2   -1    0    0    0  501 -0.00000000000E+00  0.00000000000E+00  0.17204981616E+03  0.17204981616E+03  0.00000000000E+00 0.  1.
          2   -1    0    0  501    0  0.00000000000E+00 -0.00000000000E+00 -0.98967962978E+02  0.98967962978E+02  0.00000000000E+00 0. -1.
         25    2    1    2    0    0  0.40852326151E+02  0.46269012834E+02  0.64964337676E+02  0.15387357520E+03  0.12508788061E+03 0.  0.
          5    1    3    3  502    0  0.27990763892E+02  0.89666870912E+02  0.44337087668E+02  0.10395614626E+03  0.41800000000E+01 0.  1.
         -5    1    3    3    0  502  0.12861562259E+02 -0.43397858078E+02  0.20627250008E+02  0.49917428944E+02  0.41800000000E+01 0.  1.
        -11    1    1    2    0    0 -0.28282103793E+02  0.83306991685E+00  0.46950734430E+02  0.54817359148E+02  0.00000000000E+00 0.  1.
         11    1    1    2    0    0 -0.12570222358E+02 -0.47102082751E+02 -0.38833218921E+02  0.62326844789E+02  0.00000000000E+00 0. -1.
</event>
<event>
 7    1  0.3151015E-009  0.9096052E+02  0.7561462E-02  0.1300542E+00
         -2   -1    0    0    0  501 -0.00000000000E+00  0.00000000000E+00  0.17161319046E+02  0.17161319046E+02  0.00000000000E+00 0.  1.
          2   -1    0    0  501    0  0.00000000000E+00 -0.00000000000E+00 -0.94039998829E+03  0.94039998829E+03  0.00000000000E+00 0. -1.
         25    2    1    2    0    0  0.26842177917E+02 -0.28316778844E+01 -0.86371414558E+03  0.87314254315E+03  0.12508898622E+03 0.  0.
          5    1    3    3  502    0 -0.10960751678E+02  0.55264336322E+02 -0.46600258613E+03  0.46941470751E+03  0.41800000000E+01 0.  1.
         -5    1    3    3    0  502  0.37802929596E+02 -0.58096014206E+02 -0.39771155945E+03  0.40372783564E+03  0.41800000000E+01 0.  1.
        -11    1    1    2    0    0 -0.26985974526E+02  0.23218502463E+02 -0.22388580537E+02  0.42054609928E+02  0.00000000000E+00 0.  1.
         11    1    1    2    0    0  0.14379660831E+00 -0.20386824579E+02 -0.37135943120E+02  0.42364154250E+02  0.00000000000E+00 0. -1.
</event>
<event>
 7    1  0.3151015E-009  0.1376399E+03  0.7561462E-02  0.1216540E+00
         -1   -1    0    0    0  501 -0.00000000000E+00  0.00000000000E+00  0.61222111101E+03  0.61222111101E+03  0.00000000000E+00 0.  1.
          1   -1    0    0  501    0  0.00000000000E+00 -0.00000000000E+00 -0.39040970159E+02  0.39040970159E+02  0.00000000000E+00 0. -1.
         25    2    1    2    0    0  0.11936299175E+03  0.13173746923E+02  0.23986130031E+03  0.29597472052E+03  0.12508605197E+03 0.  0.
          5    1    3    3  502    0  0.66821451568E+02  0.53677965102E+02  0.61348405166E+02  0.10548710605E+03  0.41800000000E+01 0. -1.
         -5    1    3    3    0  502  0.52541540181E+02 -0.40504218180E+02  0.17851289514E+03  0.19048761447E+03  0.41800000000E+01 0. -1.
        -11    1    1    2    0    0 -0.61673320816E+02 -0.20154520687E+02  0.17657280101E+03  0.18811633970E+03  0.00000000000E+00 0.  1.
         11    1    1    2    0    0 -0.57689670934E+02  0.69807737641E+01  0.15674603953E+03  0.16717102094E+03  0.00000000000E+00 0. -1.
</event>
<event>
 7    1  0.3151015E-009  0.2087459E+03  0.7561462E-02  0.1142563E+00
         -2   -1    0    0    0  501 -0.00000000000E+00  0.00000000000E+00  0.27002959410E+02  0.27002959410E+02  0.00000000000E+00 0.  1.
          2   -1    0    0  501    0  0.00000000000E+00 -0.00000000000E+00 -0.20469255291E+04  0.20469255291E+04  0.00000000000E+00 0. -1.
         25    2    1    2    0    0  0.13745964544E+03  0.11653670161E+03 -0.15020041757E+04  0.15179393645E+04  0.12508962135E+03 0.  0.
          5    1    3    3  502    0  0.14547949666E+03  0.13389364761E+03 -0.12951515855E+04  0.13101629268E+04  0.41800000000E+01 0.  1.
         -5    1    3    3    0  502 -0.80198512186E+01 -0.17356945998E+02 -0.20685259018E+03  0.20777643767E+03  0.41800000000E+01 0.  1.
        -11    1    1    2    0    0  0.98088531293E+00  0.11527617835E+02 -0.15499621079E+02  0.19341312327E+02  0.00000000000E+00 0.  1.
         11    1    1    2    0    0 -0.13844053075E+03 -0.12806431944E+03 -0.50241877293E+03  0.53664781176E+03  0.00000000000E+00 0. -1.
</event>
<event>
 7    1  0.3151015E-009  0.9655135E+02  0.7561462E-02  0.1287720E+00
         -3   -1    0    0    0  501 -0.00000000000E+00  0.00000000000E+00  0.25825339593E+03  0.25825339593E+03  0.00000000000E+00 0.  1.
          3   -1    0    0  501    0  0.00000000000E+00 -0.00000000000E+00 -0.89380243395E+02  0.89380243395E+02  0.00000000000E+00 0. -1.
         25    2    1    2    0    0  0.60199006741E+02 -0.44453359275E+01 -0.79136222211E+01  0.13911519208E+03  0.12508688911E+03 0.  0.
          5    1    3    3  502    0 -0.18702538073E+02  0.22913403370E+02  0.34270880832E+02  0.45461793381E+02  0.41800000000E+01 0.  1.
         -5    1    3    3    0  502  0.78901544814E+02 -0.27358739298E+02 -0.42184503053E+02  0.93653398699E+02  0.41800000000E+01 0.  1.
        -11    1    1    2    0    0 -0.47427148883E+02  0.26353880461E+02  0.35192766269E+02  0.64671417676E+02  0.00000000000E+00 0. -1.
         11    1    1    2    0    0 -0.12771857858E+02 -0.21908544534E+02  0.14159400848E+03  0.14384702957E+03  0.00000000000E+00 0.  1.
</event>
<event>
 7    1  0.3151015E-009  0.1345570E+03  0.7561462E-02  0.1220846E+00
          2   -1    0    0  501    0  0.00000000000E+00  0.00000000000E+00  0.14797358519E+03  0.14797358519E+03  0.00000000000E+00 0. -1.
         -2   -1    0    0    0  501 -0.00000000000E+00 -0.00000000000E+00 -0.18888839177E+03  0.18888839177E+03  0.00000000000E+00 0.  1.
         25    2    1    2    0    0 -0.16299105151E+02  0.80423961373E+02 -0.11932690767E+03  0.19136417278E+03  0.12509061251E+03 0.  0.
          5    1    3    3  502    0  0.24145605948E+01 -0.33360528278E+02 -0.20603993798E+02  0.39506352784E+02  0.41800000000E+01 0.  1.
         -5    1    3    3    0  502 -0.18713665746E+02  0.11378448965E+03 -0.98722913871E+02  0.15185782000E+03  0.41800000000E+01 0.  1.
        -11    1    1    2    0    0 -0.33955138220E+02 -0.52506919601E+02  0.26053572504E+02  0.67740066857E+02  0.00000000000E+00 0. -1.
         11    1    1    2    0    0  0.50254243372E+02 -0.27917041772E+02  0.52358528582E+02  0.77757737322E+02  0.00000000000E+00 0.  1.
</event>
<event>
 7    1  0.3151015E-009  0.6682084E+02  0.7561462E-02  0.1371250E+00
          1   -1    0    0  501    0  0.00000000000E+00  0.00000000000E+00  0.13470211325E+03  0.13470211325E+03  0.00000000000E+00 0. -1.
         -1   -1    0    0    0  501 -0.00000000000E+00 -0.00000000000E+00 -0.14999001364E+03  0.14999001364E+03  0.00000000000E+00 0.  1.
         25    2    1    2    0    0  0.55922516510E+02  0.15750393538E+02 -0.78306462416E+02  0.15860217708E+03  0.12508935114E+03 0.  0.
          5    1    3    3  502    0 -0.37006912353E+01  0.86126700064E+01  0.31636308506E+02  0.33259609380E+02  0.41800000000E+01 0. -1.
         -5    1    3    3    0  502  0.59623207745E+02  0.71377235316E+01 -0.10994277092E+03  0.12534256770E+03  0.41800000000E+01 0. -1.
        -11    1    1    2    0    0 -0.27868344678E+02 -0.20675486806E+02 -0.18792479904E+02  0.39462357896E+02  0.00000000000E+00 0.  1.
         11    1    1    2    0    0 -0.28054171833E+02  0.49250932678E+01  0.81811041925E+02  0.86627591919E+02  0.00000000000E+00 0. -1.
</event>
<event>
 7    1  0.3151015E-009  0.1068807E+03  0.7561462E-02  0.1266458E+00
          4   -1    0    0  501    0  0.00000000000E+00  0.00000000000E+00  0.23959030995E+03  0.23959030995E+03  0.00000000000E+00 0. -1.
         -4   -1    0    0    0  501 -0.00000000000E+00 -0.00000000000E+00 -0.62835683021E+02  0.62835683021E+02  0.00000000000E+00 0.  1.
         25    2    1    2    0    0 -0.41768051953E+02  0.55617231824E+00  0.48738674344E+02  0.14060313205E+03  0.12509557496E+03 0.  0.
          5    1    3    3  502    0  0.35504159156E+02 -0.15700102564E+02  0.47541348141E+02  0.61519840060E+02  0.41800000000E+01 0.  1.
         -5    1    3    3    0  502 -0.77272211109E+02  0.16256274882E+02  0.11973262026E+01  0.79083291995E+02  0.41800000000E+01 0.  1.
        -11    1    1    2    0    0  0.61675483595E+01 -0.41172671200E+02  0.35580760719E+02  0.54765116998E+02  0.00000000000E+00 0.  1.
         11    1    1    2    0    0  0.35600503594E+02  0.40616498882E+02  0.92435191866E+02  0.10705774392E+03  0.00000000000E+00 0. -1.
</event>
<event>
 7    1  0.3151015E-009  0.9921174E+02  0.7561462E-02  0.1281962E+00
         -1   -1    0    0    0  501 -0.00000000000E+00  0.00000000000E+00  0.35968555493E+03  0.35968555493E+03  0.00000000000E+00 0.  1.
          1   -1    0    0  501    0  0.00000000000E+00 -0.00000000000E+00 -0.43439610544E+02  0.43439610544E+02  0.00000000000E+00 0. -1.
         25    2    1    2    0    0 -0.28071039516E+02 -0.48408020518E+02  0.13047465015E+03  0.18921738891E+03  0.12509303028E+03 0.  0.
          5    1    3    3  502    0  0.66521224492E-01  0.19154901463E+02 -0.16076353400E+02  0.25354214911E+02  0.41800000000E+01 0.  1.
         -5    1    3    3    0  502 -0.28137560740E+02 -0.67562921981E+02  0.14655100355E+03  0.16386317400E+03  0.41800000000E+01 0.  1.
        -11    1    1    2    0    0 -0.28475734888E+02  0.38839490249E+02  0.74190491196E+02  0.88451130372E+02  0.00000000000E+00 0.  1.
         11    1    1    2    0    0  0.56546774403E+02  0.95685302692E+01  0.11158080303E+03  0.12545664619E+03  0.00000000000E+00 0. -1.
</event>
<event>
 7    1  0.3151015E-009  0.1143732E+03  0.7561462E-02  0.1252679E+00
          2   -1    0    0  501    0  0.00000000000E+00  0.00000000000E+00  0.19214089007E+03  0.19214089007E+03  0.00000000000E+00 0. -1.
         -2   -1    0    0    0  501 -0.00000000000E+00 -0.00000000000E+00 -0.88712630063E+02  0.88712630063E+02  0.00000000000E+00 0.  1.
         25    2    1    2    0    0  0.61181069706E+02  0.35434578272E+02  0.39846904792E+02  0.14911478236E+03  0.12509480353E+03 0.  0.
          5    1    3    3  502    0  0.82276733897E+01  0.55961633409E+02  0.65511435958E+02  0.86652291744E+02  0.41800000000E+01 0.  1.
         -5    1    3    3    0  502  0.52953396316E+02 -0.20527055137E+02 -0.25664531166E+02  0.62462490617E+02  0.41800000000E+01 0.  1.
        -11    1    1    2    0    0  0.22660393921E+02  0.29873865632E+01  0.89500919943E+01  0.24546325139E+02  0.00000000000E+00 0. -1.
         11    1    1    2    0    0 -0.83841463627E+02 -0.38421964835E+02  0.54631263219E+02  0.10719241263E+03  0.00000000000E+00 0.  1.
</event>
<event>
 7    1  0.3151015E-009  0.1061412E+03  0.7561462E-02  0.1267887E+00
         -1   -1    0    0    0  501 -0.00000000000E+00  0.00000000000E+00  0.39419010176E+03  0.39419010176E+03  0.00000000000E+00 0.  1.
          1   -1    0    0  501    0  0.00000000000E+00 -0.00000000000E+00 -0.30056748555E+02  0.30056748555E+02  0.00000000000E+00 0. -1.
         25    2    1    2    0    0 -0.15181417060E+02  0.12978249179E+02  0.24534373576E+03  0.27611932254E+03  0.12509764676E+03 0.  0.
          5    1    3    3  502    0  0.50578162520E+02  0.27432924283E+02  0.91981482262E+02  0.10857615455E+03  0.41800000000E+01 0.  1.
         -5    1    3    3    0  502 -0.65759579580E+02 -0.14454675105E+02  0.15336225350E+03  0.16754316798E+03  0.41800000000E+01 0.  1.
        -11    1    1    2    0    0  0.50462831066E+02 -0.34149159752E+01  0.81429427316E+02  0.95858805559E+02  0.00000000000E+00 0.  1.
         11    1    1    2    0    0 -0.35281414006E+02 -0.95633332036E+01  0.37360190128E+02  0.52268722221E+02  0.00000000000E+00 0. -1.
</event>
<event>
 7    1  0.3151015E-009  0.1061822E+03  0.7561462E-02  0.1267808E+00
         -2   -1    0    0    0  501 -0.00000000000E+00  0.00000000000E+00  0.81981897443E+02  0.81981897443E+02  0.00000000000E+00 0.  1.
          2   -1    0    0  501    0  0.00000000000E+00 -0.00000000000E+00 -0.15528480090E+03  0.15528480090E+03  0.00000000000E+00 0. -1.
         25    2    1    2    0    0 -0.82948834384E+01 -0.30972415072E+02 -0.38231820796E+02  0.13467072741E+03  0.12508571906E+03 0.  0.
          5    1    3    3  502    0  0.33538484539E+02 -0.65904893889E+02 -0.27237584814E+02  0.78915419344E+02  0.41800000000E+01 0. -1.
         -5    1    3    3    0  502 -0.41833367977E+02  0.34932478817E+02 -0.10994235983E+02  0.55755308065E+02  0.41800000000E+01 0. -1.
        -11    1    1    2    0    0  0.35738500400E+02  0.41027394465E+02  0.31252954836E+01  0.54500045681E+02  0.00000000000E+00 0.  1.
         11    1    1    2    0    0 -0.27443616962E+02 -0.10054979392E+02 -0.38196378143E+02  0.48095925251E+02  0.00000000000E+00 0. -1.
</event>
<event>
 7    1  0.3696910E-009  0.2176401E+03  0.7561462E-02  0.1135655E+00
         -1   -1    0    0    0  501 -0.00000000000E+00  0.00000000000E+00  0.41392930095E+02  0.41392930095E+02  0.00000000000E+00 0.  1.
          1   -1    0    0  501    0  0.00000000000E+00 -0.00000000000E+00 -0.14106318149E+04  0.14106318149E+04  0.00000000000E+00 0. -1.
         25    2    1    2    0    0 -0.20934071825E+03 -0.49239315067E+02 -0.66669050939E+03  0.71159739456E+03  0.12508625092E+03 0.  0.
          5    1    3    3  502    0 -0.44386243585E+02  0.74217741210E+01 -0.32314605857E+03  0.32629138652E+03  0.41800000000E+01 0. -1.
         -5    1    3    3    0  502 -0.16495447466E+03 -0.56661089188E+02 -0.34354445082E+03  0.38530600803E+03  0.41800000000E+01 0. -1.
        -11    1    1    2    0    0  0.13540146343E+03  0.39473115445E+02 -0.58056415796E+03  0.59744993485E+03  0.00000000000E+00 0.  1.
         11    1    1    2    0    0  0.73939254815E+02  0.97661996222E+01 -0.12198421742E+03  0.14297741555E+03  0.00000000000E+00 0. -1.
</event>
<event>
 7    1  0.3151015E-009  0.7756789E+02  0.7561462E-02  0.1336099E+00
         -1   -1    0    0    0  501 -0.00000000000E+00  0.00000000000E+00  0.16181579151E+03  0.16181579151E+03  0.00000000000E+00 0.  1.
          1   -1    0    0  501    0  0.00000000000E+00 -0.00000000000E+00 -0.10425688630E+03  0.10425688630E+03  0.00000000000E+00 0. -1.
         25    2    1    2    0    0  0.39000360885E+02  0.26972318373E+02 -0.22794580012E+02  0.13570572379E+03  0.12509163235E+03 0.  0.
          5    1    3    3  502    0  0.23061257995E+01  0.12311894140E+02 -0.71578985542E+02  0.72786843074E+02  0.41800000000E+01 0.  1.
         -5    1    3    3    0  502  0.36694235086E+02  0.14660424233E+02  0.48784405530E+02  0.62918880713E+02  0.41800000000E+01 0.  1.
        -11    1    1    2    0    0 -0.65696405749E+02 -0.34842123115E+02  0.63818531988E+02  0.97993858464E+02  0.00000000000E+00 0.  1.
         11    1    1    2    0    0  0.26696044864E+02  0.78698047419E+01  0.16534953231E+02  0.32373095564E+02  0.00000000000E+00 0. -1.
</event>
<event>
 7    1  0.3151015E-009  0.1143924E+03  0.7561462E-02  0.1252645E+00
          1   -1    0    0  501    0  0.00000000000E+00  0.00000000000E+00  0.14494282384E+03  0.14494282384E+03  0.00000000000E+00 0. -1.
         -1   -1    0    0    0  501 -0.00000000000E+00 -0.00000000000E+00 -0.15859627239E+03  0.15859627239E+03  0.00000000000E+00 0.  1.
         25    2    1    2    0    0 -0.56168934753E+02 -0.62925180256E+02  0.50960335752E+02  0.15924629952E+03  0.12509156866E+03 0.  0.
          5    1    3    3  502    0 -0.19807766353E+02 -0.83715953630E+02  0.71933865318E+02  0.11221703026E+03  0.41800000000E+01 0. -1.
         -5    1    3    3    0  502 -0.36361168400E+02  0.20790773374E+02 -0.20973529565E+02  0.47029269262E+02  0.41800000000E+01 0. -1.
        -11    1    1    2    0    0  0.38343322738E+02  0.34785688547E+01 -0.72145453256E+02  0.81775774319E+02  0.00000000000E+00 0.  1.
         11    1    1    2    0    0  0.17825612015E+02  0.59446611402E+02  0.75316689512E+01  0.62517022386E+02  0.00000000000E+00 0. -1.
</event>
<event>
 7    1  0.3151015E-009  0.1476488E+03  0.7561462E-02  0.1203392E+00
         -3   -1    0    0    0  501 -0.00000000000E+00  0.00000000000E+00  0.17297099063E+03  0.17297099063E+03  0.00000000000E+00 0.  1.
          3   -1    0    0  501    0  0.00000000000E+00 -0.00000000000E+00 -0.25254600176E+03  0.25254600176E+03  0.00000000000E+00 0. -1.
         25    2    1    2    0    0 -0.82582112275E+02 -0.88963651657E+02 -0.17416687905E+03  0.24640770684E+03  0.12509324381E+03 0.  0.
          5    1    3    3  502    0  0.26454641322E+02 -0.48232515714E+02 -0.77017925730E+02  0.94738888020E+02  0.41800000000E+01 0. -1.
         -5    1    3    3    0  502 -0.10903675360E+03 -0.40731135943E+02 -0.97148953322E+02  0.15166881882E+03  0.41800000000E+01 0. -1.
        -11    1    1    2    0    0  0.31289671121E+02  0.18002926392E+02  0.83351713422E+02  0.90833127261E+02  0.00000000000E+00 0.  1.
         11    1    1    2    0    0  0.51292441154E+02  0.70960725265E+02  0.11240154493E+02  0.88276158291E+02  0.00000000000E+00 0. -1.
</event>
<event>
 7    1  0.3151015E-009  0.1046948E+03  0.7561462E-02  0.1270722E+00
          2   -1    0    0  501    0  0.00000000000E+00  0.00000000000E+00  0.22221011265E+03  0.22221011265E+03  0.00000000000E+00 0. -1.
         -2   -1    0    0    0  501 -0.00000000000E+00 -0.00000000000E+00 -0.81082092443E+02  0.81082092443E+02  0.00000000000E+00 0.  1.
         25    2    1    2    0    0 -0.10122467604E+02  0.36199951097E+02  0.14225645020E+03  0.19312260150E+03  0.12508613344E+03 0.  0.
          5    1    3    3  502    0 -0.67102828153E+02  0.11791973912E+02  0.68815951232E+02  0.96927538599E+02  0.41800000000E+01 0.  1.
         -5    1    3    3    0  502  0.56980360549E+02  0.24407977185E+02  0.73440498967E+02  0.96195062904E+02  0.41800000000E+01 0.  1.
        -11    1    1    2    0    0  0.30004695350E+02 -0.47462375212E+02 -0.37281334037E+02  0.67400717143E+02  0.00000000000E+00 0.  1.
         11    1    1    2    0    0 -0.19882227746E+02  0.11262424115E+02  0.36152904048E+02  0.42768886450E+02  0.00000000000E+00 0. -1.
</event>
<event>
 7    1  0.3151015E-009  0.1663527E+03  0.7561462E-02  0.1181706E+00
         -2   -1    0    0    0  501 -0.00000000000E+00  0.00000000000E+00  0.88495945701E+03  0.88495945701E+03  0.00000000000E+00 0.  1.
          2   -1    0    0  501    0  0.00000000000E+00 -0.00000000000E+00 -0.33855445724E+02  0.33855445724E+02  0.00000000000E+00 0. -1.
         25    2    1    2    0    0  0.13373024941E+03 -0.46136075469E+02  0.50687185029E+03  0.54089562178E+03  0.12504672718E+03 0.  0.
          5    1    3    3  502    0  0.14842703626E+03 -0.63473779064E+02  0.39635906858E+03  0.42799239405E+03  0.41800000000E+01 0.  1.
         -5    1    3    3    0  502 -0.14696786854E+02  0.17337703596E+02  0.11051278172E+03  0.11290322773E+03  0.41800000000E+01 0.  1.
        -11    1    1    2    0    0 -0.11570336541E+03  0.21659417653E+02  0.31269079707E+03  0.33411365389E+03  0.00000000000E+00 0.  1.
         11    1    1    2    0    0 -0.18026883995E+02  0.24476657816E+02  0.31541363919E+02  0.43805627062E+02  0.00000000000E+00 0. -1.
</event>
<event>
 7    1  0.3151015E-009  0.4183446E+03  0.7561462E-02  0.1037606E+00
         -1   -1    0    0    0  501 -0.00000000000E+00  0.00000000000E+00  0.58800922419E+03  0.58800922419E+03  0.00000000000E+00 0.  1.
          1   -1    0    0  501    0  0.00000000000E+00 -0.00000000000E+00 -0.31085072160E+03  0.31085072160E+03  0.00000000000E+00 0. -1.
         25    2    1    2    0    0  0.21158305666E+03  0.35381256941E+03  0.17088863487E+03  0.46346610384E+03  0.12508868750E+03 0.  0.
          5    1    3    3  502    0  0.75819916922E+02  0.21127522967E+03  0.13887965076E+03  0.26399036397E+03  0.41800000000E+01 0. -1.
         -5    1    3    3    0  502  0.13576313974E+03  0.14253733974E+03  0.32008984112E+02  0.19947573987E+03  0.41800000000E+01 0. -1.
        -11    1    1    2    0    0 -0.13788596356E+03 -0.27348626347E+03  0.11229194267E+03  0.32621581145E+03  0.00000000000E+00 0.  1.
         11    1    1    2    0    0 -0.73697093099E+02 -0.80326305938E+02 -0.60220749590E+01  0.10917803050E+03  0.00000000000E+00 0. -1.
</event>
<event>
 7    1  0.3151015E-009  0.1469384E+03  0.7561462E-02  0.1204286E+00
         -2   -1    0    0    0  501 -0.00000000000E+00  0.00000000000E+00  0.10268244372E+03  0.10268244372E+03  0.00000000000E+00 0.  1.
          2   -1    0    0  501    0  0.00000000000E+00 -0.00000000000E+00 -0.26275226088E+03  0.26275226088E+03  0.00000000000E+00 0. -1.
         25    2    1    2    0    0 -0.28063164595E+02 -0.11805200191E+03 -0.60655828060E+02  0.18452583963E+03  0.12508732811E+03 0.  0.
          5    1    3    3  502    0 -0.52251767887E+02 -0.13355416947E+03 -0.59924282230E+02  0.15548426104E+03  0.41800000000E+01 0.  1.
         -5    1    3    3    0  502  0.24188603292E+02  0.15502167557E+02 -0.73154583016E+00  0.29041578599E+02  0.41800000000E+01 0.  1.
        -11    1    1    2    0    0  0.72779117981E+01  0.35959331214E+02  0.14085114400E+02  0.39299261433E+02  0.00000000000E+00 0.  1.
         11    1    1    2    0    0  0.20785252796E+02  0.82092670694E+02 -0.11349910350E+03  0.14160960353E+03  0.00000000000E+00 0. -1.
</event>
<event>
 7    1  0.3151015E-009  0.8599380E+02  0.7561462E-02  0.1312854E+00
          2   -1    0    0  501    0  0.00000000000E+00  0.00000000000E+00  0.16542168509E+03  0.16542168509E+03  0.00000000000E+00 0. -1.
         -2   -1    0    0    0  501 -0.00000000000E+00 -0.00000000000E+00 -0.98643460823E+02  0.98643460823E+02  0.00000000000E+00 0.  1.
         25    2    1    2    0    0 -0.23362494462E+01  0.13091232312E+02  0.11469701407E+03  0.17023636701E+03  0.12509267441E+03 0.  0.
          5    1    3    3  502    0  0.30533905714E+02 -0.42490128489E+02  0.21375962311E+02  0.56675696572E+02  0.41800000000E+01 0.  1.
         -5    1    3    3    0  502 -0.32870155161E+02  0.55581360801E+02  0.93321051761E+02  0.11356067044E+03  0.41800000000E+01 0.  1.
        -11    1    1    2    0    0  0.12815285376E+02 -0.31276694189E+02  0.74532693592E+01  0.34612344081E+02  0.00000000000E+00 0. -1.
         11    1    1    2    0    0 -0.10479035930E+02  0.18185461876E+02 -0.55372059161E+02  0.59216434825E+02  0.00000000000E+00 0.  1.
</event>
<event>
 7    1  0.3151015E-009  0.1237132E+03  0.7561462E-02  0.1237094E+00
          2   -1    0    0  501    0  0.00000000000E+00  0.00000000000E+00  0.72556236942E+03  0.72556236942E+03  0.00000000000E+00 0. -1.
         -2   -1    0    0    0  501 -0.00000000000E+00 -0.00000000000E+00 -0.35255288182E+02  0.35255288182E+02  0.00000000000E+00 0.  1.
         25    2    1    2    0    0  0.10493540173E+03 -0.17450709491E+02  0.50216915315E+03  0.52833503162E+03  0.12509229181E+03 0.  0.
          5    1    3    3  502    0  0.73602377171E+02 -0.53964122257E+02  0.17300481153E+03  0.19564655282E+03  0.41800000000E+01 0.  1.
         -5    1    3    3    0  502  0.31333024560E+02  0.36513412766E+02  0.32916434161E+03  0.33268847881E+03  0.41800000000E+01 0.  1.
        -11    1    1    2    0    0 -0.22618008969E+02  0.11134202449E+02 -0.19044656829E+01  0.25281846915E+02  0.00000000000E+00 0. -1.
         11    1    1    2    0    0 -0.82317392762E+02  0.63165070421E+01  0.19004239377E+03  0.20720077906E+03  0.00000000000E+00 0.  1.
</event>
<event>
 7    1  0.3151015E-009  0.9853452E+02  0.7561462E-02  0.1283408E+00
         -2   -1    0    0    0  501 -0.00000000000E+00  0.00000000000E+00  0.38331025149E+02  0.38331025149E+02  0.00000000000E+00 0.  1.
          2   -1    0    0  501    0  0.00000000000E+00 -0.00000000000E+00 -0.44072487553E+03  0.44072487553E+03  0.00000000000E+00 0. -1.
         25    2    1    2    0    0  0.50970861230E+02  0.14655297634E+02 -0.13004931878E+03  0.18807606298E+03  0.12508786395E+03 0.  0.
          5    1    3    3  502    0  0.71074220683E+02  0.32300453388E+00 -0.18240060166E+02  0.73497084109E+02  0.41800000000E+01 0. -1.
         -5    1    3    3    0  502 -0.20103359453E+02  0.14332293100E+02 -0.11180925861E+03  0.11457897887E+03  0.41800000000E+01 0. -1.
        -11    1    1    2    0    0 -0.59610627615E+02 -0.41497394473E+02 -0.21756422686E+03  0.22936794345E+03  0.00000000000E+00 0.  1.
         11    1    1    2    0    0  0.86397663853E+01  0.26842096838E+02 -0.54780304741E+02  0.61611894252E+02  0.00000000000E+00 0. -1.
</event>
<event>
 7    1  0.3151015E-009  0.1514795E+03  0.7561462E-02  0.1198667E+00
         -1   -1    0    0    0  501 -0.00000000000E+00  0.00000000000E+00  0.29239073264E+02  0.29239073264E+02  0.00000000000E+00 0.  1.
          1   -1    0    0  501    0  0.00000000000E+00 -0.00000000000E+00 -0.10857808816E+04  0.10857808816E+04  0.00000000000E+00 0. -1.
         25    2    1    2    0    0 -0.28076623741E+02  0.13603871252E+03 -0.64620719794E+03  0.67270095796E+03  0.12509199840E+03 0.  0.
          5    1    3    3  502    0 -0.14959689174E+02  0.11441410802E+03 -0.24682249595E+03  0.27249439870E+03  0.41800000000E+01 0.  1.
         -5    1    3    3    0  502 -0.13116934567E+02  0.21624604500E+02 -0.39938470199E+03  0.40020655926E+03  0.41800000000E+01 0.  1.
        -11    1    1    2    0    0  0.42080202294E+02 -0.22996345851E+02 -0.84642444997E+02  0.97282674936E+02  0.00000000000E+00 0. -1.
         11    1    1    2    0    0 -0.14003578553E+02 -0.11304236667E+03 -0.32569216538E+03  0.34503632195E+03  0.00000000000E+00 0.  1.
</event>
<event>
 7    1  0.3151015E-009  0.1406638E+03  0.7561462E-02  0.1212439E+00
         -1   -1    0    0    0  501 -0.00000000000E+00  0.00000000000E+00  0.24019985272E+03  0.24019985272E+03  0.00000000000E+00 0.  1.
          1   -1    0    0  501    0  0.00000000000E+00 -0.00000000000E+00 -0.93044151037E+02  0.93044151037E+02  0.00000000000E+00 0. -1.
         25    2    1    2    0    0  0.21863163963E+02  0.99731620404E+02  0.87042598713E+02  0.18342784599E+03  0.12507984109E+03 0.  0.
          5    1    3    3  502    0  0.70725934069E+02  0.81590110010E+02  0.68537408213E+02  0.12796074604E+03  0.41800000000E+01 0.  1.
         -5    1    3    3    0  502 -0.48862770106E+02  0.18141510394E+02  0.18505190500E+02  0.55467099954E+02  0.41800000000E+01 0.  1.
        -11    1    1    2    0    0 -0.44922303377E+02 -0.58749371170E+02  0.69925074383E+02  0.10177926106E+03  0.00000000000E+00 0.  1.
         11    1    1    2    0    0  0.23059139414E+02 -0.40982249234E+02 -0.98119714124E+01  0.48036896713E+02  0.00000000000E+00 0. -1.
</event>
<event>
 7    1  0.3151015E-009  0.1977683E+03  0.7561462E-02  0.1151636E+00
          2   -1    0    0  501    0  0.00000000000E+00  0.00000000000E+00  0.66258043182E+03  0.66258043182E+03  0.00000000000E+00 0. -1.
         -2   -1    0    0    0  501 -0.00000000000E+00 -0.00000000000E+00 -0.73686807517E+02  0.73686807517E+02  0.00000000000E+00 0.  1.
         25    2    1    2    0    0 -0.10907885575E+03  0.15879262330E+03  0.26703537483E+03  0.35223413195E+03  0.12509076030E+03 0.  0.
          5    1    3    3  502    0 -0.85525842693E+02  0.13658043498E+03  0.11828551638E+03  0.19994454424E+03  0.41800000000E+01 0.  1.
         -5    1    3    3    0  502 -0.23553013059E+02  0.22212188321E+02  0.14874985845E+03  0.15228958770E+03  0.41800000000E+01 0.  1.
        -11    1    1    2    0    0  0.26198904320E+02 -0.90754282220E+02  0.99654358300E+02  0.13730882512E+03  0.00000000000E+00 0. -1.
         11    1    1    2    0    0  0.82879951432E+02 -0.68038341080E+02  0.22220389118E+03  0.24672428227E+03  0.00000000000E+00 0.  1.
</event>
<event>
 7    1  0.3151015E-009  0.1360125E+03  0.7561462E-02  0.1218797E+00
         -1   -1    0    0    0  501 -0.00000000000E+00  0.00000000000E+00  0.85429444924E+03  0.85429444924E+03  0.00000000000E+00 0.  1.
          1   -1    0    0  501    0  0.00000000000E+00 -0.00000000000E+00 -0.62142379281E+02  0.62142379281E+02  0.00000000000E+00 0. -1.
         25    2    1    2    0    0 -0.70556810266E+02  0.93648516630E+02  0.74054962065E+03  0.76013796917E+03  0.12509070059E+03 0.  0.
          5    1    3    3  502    0 -0.18513278576E+02  0.82807275484E+02  0.20452193788E+03  0.22146440308E+03  0.41800000000E+01 0. -1.
         -5    1    3    3    0  502 -0.52043531690E+02  0.10841241146E+02  0.53602768278E+03  0.53867356609E+03  0.41800000000E+01 0. -1.
        -11    1    1    2    0    0  0.26356329231E+02 -0.84624101616E+02  0.11800604619E+01  0.88641340285E+02  0.00000000000E+00 0. -1.
         11    1    1    2    0    0  0.44200481035E+02 -0.90244150139E+01  0.50422388843E+02  0.67657519070E+02  0.00000000000E+00 0.  1.
</event>
<event>
 7    1  0.3151015E-009  0.1073801E+03  0.7561462E-02  0.1265500E+00
          1   -1    0    0  501    0  0.00000000000E+00  0.00000000000E+00  0.53631600271E+02  0.53631600271E+02  0.00000000000E+00 0. -1.
         -1   -1    0    0    0  501 -0.00000000000E+00 -0.00000000000E+00 -0.28398136805E+03  0.28398136805E+03  0.00000000000E+00 0.  1.
         25    2    1    2    0    0  0.37407724851E+02  0.34478994169E+00 -0.63426636511E+02  0.14516556128E+03  0.12510253877E+03 0.  0.
          5    1    3    3  502    0  0.60376497122E+02  0.46767600496E+02 -0.24753558615E+02  0.80391174422E+02  0.41800000000E+01 0.  1.
         -5    1    3    3    0  502 -0.22968772271E+02 -0.46422810555E+02 -0.38673077896E+02  0.64774386862E+02  0.41800000000E+01 0.  1.
        -11    1    1    2    0    0 -0.39486663033E+02  0.33877043437E+02 -0.56415303604E+02  0.76743319645E+02  0.00000000000E+00 0.  1.
         11    1    1    2    0    0  0.20789381823E+01 -0.34221833378E+02 -0.11050782767E+03  0.11570408740E+03  0.00000000000E+00 0. -1.
</event>
<event>
 7    1  0.3151015E-009  0.1113263E+03  0.7561462E-02  0.1258133E+00
         -1   -1    0    0    0  501 -0.00000000000E+00  0.00000000000E+00  0.53758428821E+02  0.53758428821E+02  0.00000000000E+00 0.  1.
          1   -1    0    0  501    0  0.00000000000E+00 -0.00000000000E+00 -0.35413440275E+03  0.35413440275E+03  0.00000000000E+00 0. -1.
         25    2    1    2    0    0 -0.61974712647E+02  0.57308983116E+02 -0.18925387975E+03  0.24205245280E+03  0.12508866597E+03 0.  0.
          5    1    3    3  502    0 -0.26802517195E+02 -0.31876145925E+02 -0.17619561327E+02  0.45413488617E+02  0.41800000000E+01 0.  1.
         -5    1    3    3    0  502 -0.35172195452E+02  0.89185129041E+02 -0.17163431842E+03  0.19663896418E+03  0.41800000000E+01 0.  1.
        -11    1    1    2    0    0  0.33521253149E+02 -0.36683722831E+02 -0.42043856634E+00  0.49694533925E+02  0.00000000000E+00 0.  1.
         11    1    1    2    0    0  0.28453459498E+02 -0.20625260285E+02 -0.11070165561E+03  0.11614584484E+03  0.00000000000E+00 0. -1.
</event>
<event>
 7    1  0.3151015E-009  0.1136701E+03  0.7561462E-02  0.1253921E+00
         -2   -1    0    0    0  501 -0.00000000000E+00  0.00000000000E+00  0.60433480201E+03  0.60433480201E+03  0.00000000000E+00 0.  1.
          2   -1    0    0  501    0  0.00000000000E+00 -0.00000000000E+00 -0.35350649535E+02  0.35350649535E+02  0.00000000000E+00 0. -1.
         25    2    1    2    0    0 -0.81841035019E+02  0.20641869254E+02  0.42416575359E+03  0.45020868467E+03  0.12508889420E+03 0.  0.
          5    1    3    3  502    0 -0.78492916453E+02  0.61018154775E+02  0.36540741284E+03  0.37871414405E+03  0.41800000000E+01 0.  1.
         -5    1    3    3    0  502 -0.33481185659E+01 -0.40376285521E+02  0.58758340753E+02  0.71494540620E+02  0.41800000000E+01 0.  1.
        -11    1    1    2    0    0  0.58140142474E+02 -0.42704233422E+01  0.20393298099E+02  0.61760823260E+02  0.00000000000E+00 0. -1.
         11    1    1    2    0    0  0.23700892545E+02 -0.16371445912E+02  0.12442510079E+03  0.12771594362E+03  0.00000000000E+00 0.  1.
</event>
<event>
 7    1  0.3151015E-009  0.2213517E+03  0.7561462E-02  0.1132879E+00
         -1   -1    0    0    0  501 -0.00000000000E+00  0.00000000000E+00  0.84356712632E+03  0.84356712632E+03  0.00000000000E+00 0.  1.
          1   -1    0    0  501    0  0.00000000000E+00 -0.00000000000E+00 -0.66303241726E+02  0.66303241726E+02  0.00000000000E+00 0. -1.
         25    2    1    2    0    0  0.15243844066E+03  0.13066273963E+03  0.51630122674E+03  0.56791218343E+03  0.12508821543E+03 0.  0.
          5    1    3    3  502    0  0.10060977819E+03  0.13679251317E+03  0.46310249407E+03  0.49327062708E+03  0.41800000000E+01 0.  1.
         -5    1    3    3    0  502  0.51828662471E+02 -0.61297735389E+01  0.53198732677E+02  0.74641556359E+02  0.41800000000E+01 0.  1.
        -11    1    1    2    0    0 -0.30787899784E+02  0.11961252936E+02  0.31311388338E+02  0.45512299267E+02  0.00000000000E+00 0. -1.
         11    1    1    2    0    0 -0.12165054087E+03 -0.14262399256E+03  0.22965126951E+03  0.29644588535E+03  0.00000000000E+00 0.  1.
</event>
<event>
 7    1  0.3151015E-009  0.1057896E+03  0.7561462E-02  0.1268572E+00
         -1   -1    0    0    0  501 -0.00000000000E+00  0.00000000000E+00  0.29648519757E+03  0.29648519757E+03  0.00000000000E+00 0.  1.
          1   -1    0    0  501    0  0.00000000000E+00 -0.00000000000E+00 -0.58295443752E+02  0.58295443752E+02  0.00000000000E+00 0. -1.
         25    2    1    2    0    0  0.28205644108E+00  0.65824974745E+02  0.18593560601E+03  0.23356605333E+03  0.12509214536E+03 0.  0.
          5    1    3    3  502    0  0.46165789131E+02 -0.86316065213E+01  0.10154727184E+03  0.11196028553E+03  0.41800000000E+01 0.  1.
         -5    1    3    3    0  502 -0.45883732690E+02  0.74456581266E+02  0.84388334165E+02  0.12160576780E+03  0.41800000000E+01 0.  1.
        -11    1    1    2    0    0 -0.13853169068E+02 -0.60861897123E+02  0.72927179846E+02  0.95991949532E+02  0.00000000000E+00 0.  1.
         11    1    1    2    0    0  0.13571112627E+02 -0.49630776218E+01 -0.20673032034E+02  0.25222638460E+02  0.00000000000E+00 0. -1.
</event>
<event>
 7    1  0.3151015E-009  0.1656802E+03  0.7561462E-02  0.1182429E+00
          1   -1    0    0  501    0  0.00000000000E+00  0.00000000000E+00  0.19978817622E+03  0.19978817622E+03  0.00000000000E+00 0. -1.
         -1   -1    0    0    0  501 -0.00000000000E+00 -0.00000000000E+00 -0.21879601554E+03  0.21879601554E+03  0.00000000000E+00 0.  1.
         25    2    1    2    0    0 -0.14701833660E+03 -0.21814544883E+02 -0.10845857800E+03  0.22248759579E+03  0.12508877437E+03 0.  0.
          5    1    3    3  502    0 -0.69811561961E+02 -0.58116342347E+02 -0.89886016679E+01  0.91375219787E+02  0.41800000000E+01 0. -1.
         -5    1    3    3    0  502 -0.77206774640E+02  0.36301797464E+02 -0.99469976336E+02  0.13111237601E+03  0.41800000000E+01 0. -1.
        -11    1    1    2    0    0  0.10689560384E+03 -0.45645506003E+01  0.10053583720E+03  0.14681607475E+03  0.00000000000E+00 0. -1.
         11    1    1    2    0    0  0.40122732761E+02  0.26379095483E+02 -0.11085098516E+02  0.49280521221E+02  0.00000000000E+00 0.  1.
</event>
<event>
 7    1  0.3151015E-009  0.1177972E+03  0.7561462E-02  0.1246776E+00
          2   -1    0    0  501    0  0.00000000000E+00  0.00000000000E+00  0.54885157795E+03  0.54885157795E+03  0.00000000000E+00 0. -1.
         -2   -1    0    0    0  501 -0.00000000000E+00 -0.00000000000E+00 -0.41566610109E+02  0.41566610109E+02  0.00000000000E+00 0.  1.
         25    2    1    2    0    0  0.14518007489E+02 -0.85785105749E+02  0.38457226235E+03  0.41365806848E+03  0.12508923110E+03 0.  0.
          5    1    3    3  502    0  0.83214074593E+01  0.16846590870E+02  0.43198384289E+01  0.19727819192E+02  0.41800000000E+01 0. -1.
         -5    1    3    3    0  502  0.61966000292E+01 -0.10263169662E+03  0.38025242392E+03  0.39393024928E+03  0.41800000000E+01 0. -1.
        -11    1    1    2    0    0  0.13087497034E+02  0.84815412624E+02  0.50806410946E+02  0.99730778551E+02  0.00000000000E+00 0.  1.
         11    1    1    2    0    0 -0.27605504522E+02  0.96969312545E+00  0.71906294547E+02  0.77029341034E+02  0.00000000000E+00 0. -1.
</event>
<event>
 7    1  0.3151015E-009  0.1218628E+03  0.7561462E-02  0.1240055E+00
         -1   -1    0    0    0  501 -0.00000000000E+00  0.00000000000E+00  0.50822160277E+02  0.50822160277E+02  0.00000000000E+00 0.  1.
          1   -1    0    0  501    0  0.00000000000E+00 -0.00000000000E+00 -0.35050610107E+03  0.35050610107E+03  0.00000000000E+00 0. -1.
         25    2    1    2    0    0  0.65565190222E+02  0.38521718196E+02 -0.19305098674E+03  0.24227902808E+03  0.12509087505E+03 0.  0.
          5    1    3    3  502    0  0.40573551308E+02 -0.42870865159E+02 -0.60068919460E+02  0.84320054734E+02  0.41800000000E+01 0.  1.
         -5    1    3    3    0  502  0.24991638914E+02  0.81392583355E+02 -0.13298206728E+03  0.15795897334E+03  0.41800000000E+01 0.  1.
        -11    1    1    2    0    0 -0.26912338030E+02  0.16868815495E+02  0.12272672159E+01  0.31785799648E+02  0.00000000000E+00 0.  1.
         11    1    1    2    0    0 -0.38652852192E+02 -0.55390533692E+02 -0.10786022126E+03  0.12726343362E+03  0.00000000000E+00 0. -1.
</event>
<event>
 7    1  0.3151015E-009  0.9363300E+02  0.7561462E-02  0.1294285E+00
         -2   -1    0    0    0  501 -0.00000000000E+00  0.00000000000E+00  0.95243150921E+02  0.95243150921E+02  0.00000000000E+00 0.  1.
          2   -1    0    0  501    0  0.00000000000E+00 -0.00000000000E+00 -0.15209135794E+03  0.15209135794E+03  0.00000000000E+00 0. -1.
         25    2    1    2    0    0  0.54323020001E+01  0.51463444537E+02 -0.17606561710E+02  0.13651219235E+03  0.12509033382E+03 0.  0.
          5    1    3    3  502    0 -0.50643785567E+01  0.89509234570E+02  0.66546602810E+01  0.89996154957E+02  0.41800000000E+01 0. -1.
         -5    1    3    3    0  502  0.10496680557E+02 -0.38045790033E+02 -0.24261221991E+02  0.46516037390E+02  0.41800000000E+01 0. -1.
        -11    1    1    2    0    0  0.91498243401E+01 -0.33307568999E+02  0.24902313499E+02  0.42582140102E+02  0.00000000000E+00 0.  1.
         11    1    1    2    0    0 -0.14582126340E+02 -0.18155875538E+02 -0.64143958810E+02  0.68240176413E+02  0.00000000000E+00 0. -1.
</event>
<event>
 7    1  0.3151015E-009  0.1854881E+03  0.7561462E-02  0.1162595E+00
         -2   -1    0    0    0  501 -0.00000000000E+00  0.00000000000E+00  0.22384654536E+03  0.22384654536E+03  0.00000000000E+00 0.  1.
          2   -1    0    0  501    0  0.00000000000E+00 -0.00000000000E+00 -0.26748326340E+03  0.26748326340E+03  0.00000000000E+00 0. -1.
         25    2    1    2    0    0 -0.18089360650E+03 -0.29774562310E+02 -0.14317589679E+03  0.26411458179E+03  0.12509257956E+03 0.  0.
          5    1    3    3  502    0 -0.45880275033E+02 -0.25133735019E+02 -0.11449180652E+03  0.12594661740E+03  0.41800000000E+01 0. -1.
         -5    1    3    3    0  502 -0.13501333146E+03 -0.46408272912E+01 -0.28684090271E+02  0.13816796440E+03  0.41800000000E+01 0. -1.
        -11    1    1    2    0    0  0.18150794695E+02  0.23898915391E+01  0.52516500522E+02  0.55616056645E+02  0.00000000000E+00 0.  1.
         11    1    1    2    0    0  0.16274281180E+03  0.27384670771E+02  0.47022678234E+02  0.17159917032E+03  0.00000000000E+00 0. -1.
</event>
<event>
 7    1  0.3151015E-009  0.1864288E+03  0.7561462E-02  0.1161722E+00
         -1   -1    0    0    0  501 -0.00000000000E+00  0.00000000000E+00  0.22411221691E+03  0.22411221691E+03  0.00000000000E+00 0.  1.
          1   -1    0    0  501    0  0.00000000000E+00 -0.00000000000E+00 -0.16789264238E+03  0.16789264238E+03  0.00000000000E+00 0. -1.
         25    2    1    2    0    0  0.75626471594E+02 -0.13810258251E+03  0.60031204744E+02  0.20986314370E+03  0.12508839690E+03 0.  0.
          5    1    3    3  502    0  0.54278174151E+02 -0.14896385864E+01  0.45130468210E+02  0.70728853894E+02  0.41800000000E+01 0.  1.
         -5    1    3    3    0  502  0.21348297443E+02 -0.13661294392E+03  0.14900736534E+02  0.13913428981E+03  0.41800000000E+01 0.  1.
        -11    1    1    2    0    0 -0.86686515313E+02  0.70986845603E+02 -0.15544261194E+02  0.11311634825E+03  0.00000000000E+00 0.  1.
         11    1    1    2    0    0  0.11060043719E+02  0.67115736905E+02  0.11732630982E+02  0.69025367345E+02  0.00000000000E+00 0. -1.
</event>
<event>
 7    1  0.3151015E-009  0.9138044E+02  0.7561462E-02  0.1299543E+00
          1   -1    0    0  501    0  0.00000000000E+00  0.00000000000E+00  0.18284951977E+03  0.18284951977E+03  0.00000000000E+00 0. -1.
         -1   -1    0    0    0  501 -0.00000000000E+00 -0.00000000000E+00 -0.67311305203E+02  0.67311305203E+02  0.00000000000E+00 0.  1.
         25    2    1    2    0    0 -0.20281548203E+02  0.15260960280E+02  0.65152003182E+02  0.14330814028E+03  0.12509277135E+03 0.  0.
          5    1    3    3  502    0  0.40567139546E+01 -0.38139182633E+02 -0.17083091848E+02  0.42194295908E+02  0.41800000000E+01 0.  1.
         -5    1    3    3    0  502 -0.24338262158E+02  0.53400142913E+02  0.82235095031E+02  0.10111384437E+03  0.41800000000E+01 0.  1.
        -11    1    1    2    0    0  0.23959919521E+02  0.30865037645E+02  0.87281840014E+00  0.39083117893E+02  0.00000000000E+00 0.  1.
         11    1    1    2    0    0 -0.36783713173E+01 -0.46125997925E+02  0.49513392983E+02  0.67769566804E+02  0.00000000000E+00 0. -1.
</event>
<event>
 7    1  0.3151015E-009  0.1004114E+03  0.7561462E-02  0.1279433E+00
          1   -1    0    0  501    0  0.00000000000E+00  0.00000000000E+00  0.50320211634E+02  0.50320211634E+02  0.00000000000E+00 0. -1.
         -1   -1    0    0    0  501 -0.00000000000E+00 -0.00000000000E+00 -0.20196812525E+03  0.20196812525E+03  0.00000000000E+00 0.  1.
         25    2    1    2    0    0  0.20471010108E+02 -0.13332503328E+02 -0.90198715644E+02  0.15614085972E+03  0.12508933556E+03 0.  0.
          5    1    3    3  502    0  0.71525822555E+02 -0.22243309871E+02 -0.59568787623E+02  0.95794681403E+02  0.41800000000E+01 0. -1.
         -5    1    3    3    0  502 -0.51054812447E+02  0.89108065432E+01 -0.30629928021E+02  0.60346178320E+02  0.41800000000E+01 0. -1.
        -11    1    1    2    0    0 -0.15356402980E+02 -0.28120000230E+02 -0.23744551904E+02  0.39879283727E+02  0.00000000000E+00 0. -1.
         11    1    1    2    0    0 -0.51146071284E+01  0.41452503559E+02 -0.37704646070E+02  0.56268193436E+02  0.00000000000E+00 0.  1.
</event>
<event>
 7    1  0.3151015E-009  0.2954819E+03  0.7561462E-02  0.1087521E+00
         -1   -1    0    0    0  501 -0.00000000000E+00  0.00000000000E+00  0.15268912066E+03  0.15268912066E+03  0.00000000000E+00 0.  1.
          1   -1    0    0  501    0  0.00000000000E+00 -0.00000000000E+00 -0.63277197011E+03  0.63277197011E+03  0.00000000000E+00 0. -1.
         25    2    1    2    0    0 -0.18380143547E+03  0.22320156009E+03 -0.20343139535E+03  0.37501215179E+03  0.12509147562E+03 0.  0.
          5    1    3    3  502    0 -0.16125521909E+03  0.18287265093E+03 -0.10363391581E+03  0.26495870065E+03  0.41800000000E+01 0.  1.
         -5    1    3    3    0  502 -0.22546216375E+02  0.40328909154E+02 -0.99797479535E+02  0.11005345114E+03  0.41800000000E+01 0.  1.
        -11    1    1    2    0    0 -0.87416766556E+01 -0.69018844070E+01 -0.19627752400E+01  0.11309527212E+02  0.00000000000E+00 0.  1.
         11    1    1    2    0    0  0.19254311213E+03 -0.21629967568E+03 -0.27468867886E+03  0.39913941176E+03  0.00000000000E+00 0. -1.
</event>
<event>
 7    1  0.3151015E-009  0.8341196E+02  0.7561462E-02  0.1319638E+00
          2   -1    0    0  501    0  0.00000000000E+00  0.00000000000E+00  0.20015208240E+03  0.20015208240E+03  0.00000000000E+00 0. -1.
         -2   -1    0    0    0  501 -0.00000000000E+00 -0.00000000000E+00 -0.74167368266E+02  0.74167368266E+02  0.00000000000E+00 0.  1.
         25    2    1    2    0    0 -0.17996717992E+01 -0.27704518708E+02  0.94159850571E+01  0.12847459270E+03  0.12508509511E+03 0.  0.
          5    1    3    3  502    0 -0.37711020126E+02  0.34738640685E+01  0.52025020946E+02  0.64484602619E+02  0.41800000000E+01 0.  1.
         -5    1    3    3    0  502  0.35911348327E+02 -0.31178382777E+02 -0.42609035889E+02  0.63989990081E+02  0.41800000000E+01 0.  1.
        -11    1    1    2    0    0 -0.13469787568E+02 -0.23753396280E+02  0.15479265165E+02  0.31388957645E+02  0.00000000000E+00 0. -1.
         11    1    1    2    0    0  0.15269459367E+02  0.51457914989E+02  0.10108946391E+03  0.11445590032E+03  0.00000000000E+00 0.  1.
</event>
<event>
 7    1  0.3151015E-009  0.1018924E+03  0.7561462E-02  0.1276366E+00
          2   -1    0    0  501    0  0.00000000000E+00  0.00000000000E+00  0.69228093997E+02  0.69228093997E+02  0.00000000000E+00 0. -1.
         -2   -1    0    0    0  501 -0.00000000000E+00 -0.00000000000E+00 -0.23955640812E+03  0.23955640812E+03  0.00000000000E+00 0.  1.
         25    2    1    2    0    0  0.46993362449E+02  0.43976196176E+02 -0.11293601033E+03  0.18040558898E+03  0.12509737073E+03 0.  0.
          5    1    3    3  502    0 -0.17199826240E+02  0.68302720527E+02 -0.44718069987E+02  0.83536063095E+02  0.41800000000E+01 0.  1.
         -5    1    3    3    0  502  0.64193188690E+02 -0.24326524351E+02 -0.68217940345E+02  0.96869525889E+02  0.41800000000E+01 0.  1.
        -11    1    1    2    0    0 -0.17556121307E+02 -0.14201625634E+02 -0.78362628697E+02  0.81551242433E+02  0.00000000000E+00 0.  1.
         11    1    1    2    0    0 -0.29437241142E+02 -0.29774570542E+02  0.20970324901E+02  0.46827670703E+02  0.00000000000E+00 0. -1.
</event>
<event>
 7    1  0.3151015E-009  0.1954906E+03  0.7561462E-02  0.1153600E+00
         -1   -1    0    0    0  501 -0.00000000000E+00  0.00000000000E+00  0.88537156937E+02  0.88537156937E+02  0.00000000000E+00 0.  1.
          1   -1    0    0  501    0  0.00000000000E+00 -0.00000000000E+00 -0.80346075187E+03  0.80346075187E+03  0.00000000000E+00 0. -1.
         25    2    1    2    0    0  0.12285510920E+03 -0.14885319928E+03 -0.11890111919E+03  0.25891247712E+03  0.12509013500E+03 0.  0.
          5    1    3    3  502    0  0.11911914183E+03 -0.14906424933E+03 -0.60464632692E+02  0.20020730402E+03  0.41800000000E+01 0.  1.
         -5    1    3    3    0  502  0.37359673732E+01  0.21105005323E+00 -0.58436486498E+02  0.58705173099E+02  0.41800000000E+01 0.  1.
        -11    1    1    2    0    0 -0.10407335556E+03  0.13791824546E+03 -0.58227608337E+03  0.60736985687E+03  0.00000000000E+00 0.  1.
         11    1    1    2    0    0 -0.18781753641E+02  0.10934953817E+02 -0.13746392370E+02  0.25715574814E+02  0.00000000000E+00 0. -1.
</event>
<event>
 7    1  0.3151015E-009  0.2248628E+03  0.7561462E-02  0.1130309E+00
          4   -1    0    0  501    0  0.00000000000E+00  0.00000000000E+00  0.16788019417E+03  0.16788019417E+03  0.00000000000E+00 0. -1.
         -4   -1    0    0    0  501 -0.00000000000E+00 -0.00000000000E+00 -0.33517098042E+03  0.33517098042E+03  0.00000000000E+00 0.  1.
         25    2    1    2    0    0  0.18111826152E+03 -0.10188662707E+03 -0.59417246978E+02  0.24972177967E+03  0.12508336648E+03 0.  0.
          5    1    3    3  502    0  0.16703273703E+03 -0.12157457727E+03 -0.75905942524E+02  0.22013518026E+03  0.41800000000E+01 0.  1.
         -5    1    3    3    0  502  0.14085524486E+02  0.19687950205E+02  0.16488695546E+02  0.29586599402E+02  0.41800000000E+01 0.  1.
        -11    1    1    2    0    0 -0.10195702861E+03  0.18635839707E+02 -0.89599795645E+02  0.13700603485E+03  0.00000000000E+00 0.  1.
         11    1    1    2    0    0 -0.79161232907E+02  0.83250787360E+02 -0.18273743626E+02  0.11632336007E+03  0.00000000000E+00 0. -1.
</event>
<event>
 7    1  0.3151015E-009  0.1052501E+03  0.7561462E-02  0.1269628E+00
          1   -1    0    0  501    0  0.00000000000E+00  0.00000000000E+00  0.19642506956E+03  0.19642506956E+03  0.00000000000E+00 0. -1.
         -1   -1    0    0    0  501 -0.00000000000E+00 -0.00000000000E+00 -0.67596782912E+02  0.67596782912E+02  0.00000000000E+00 0.  1.
         25    2    1    2    0    0 -0.17524662194E+02  0.19329571005E+02  0.40465343123E+02  0.13403436966E+03  0.12508805761E+03 0.  0.
          5    1    3    3  502    0  0.49231610794E+02  0.32434175566E+02  0.24818942131E+02  0.64102882420E+02  0.41800000000E+01 0.  1.
         -5    1    3    3    0  502 -0.66756272988E+02 -0.13104604561E+02  0.15646400992E+02  0.69931487243E+02  0.41800000000E+01 0.  1.
        -11    1    1    2    0    0  0.47691632892E+02 -0.22819871594E+02  0.22496181406E+02  0.57457084553E+02  0.00000000000E+00 0.  1.
         11    1    1    2    0    0 -0.30166970697E+02  0.34903005894E+01  0.65866762119E+02  0.72530398257E+02  0.00000000000E+00 0. -1.
</event>
<event>
 7    1  0.3151015E-009  0.9166096E+02  0.7561462E-02  0.1298879E+00
          2   -1    0    0  501    0  0.00000000000E+00  0.00000000000E+00  0.19656356193E+02  0.19656356193E+02  0.00000000000E+00 0. -1.
         -2   -1    0    0    0  501 -0.00000000000E+00 -0.00000000000E+00 -0.87279194936E+03  0.87279194936E+03  0.00000000000E+00 0.  1.
         25    2    1    2    0    0  0.47289674673E+02 -0.30597412534E+02 -0.61618550171E+03  0.63127209388E+03  0.12508944405E+03 0.  0.
          5    1    3    3  502    0  0.70603685712E+02 -0.25589864527E+02 -0.59300043632E+03  0.59775137932E+03  0.41800000000E+01 0.  1.
         -5    1    3    3    0  502 -0.23314011039E+02 -0.50075480071E+01 -0.23185065396E+02  0.33520714569E+02  0.41800000000E+01 0.  1.
        -11    1    1    2    0    0 -0.60255132378E+02  0.12340393684E+02 -0.22946625894E+03  0.23756626504E+03  0.00000000000E+00 0.  1.
         11    1    1    2    0    0  0.12965457705E+02  0.18257018850E+02 -0.74838325217E+01  0.23609946633E+02  0.00000000000E+00 0. -1.
</event>
<event>
 7    1  0.3151015E-009  0.1026573E+03  0.7561462E-02  0.1274805E+00
          4   -1    0    0  501    0  0.00000000000E+00  0.00000000000E+00  0.18249497834E+03  0.18249497834E+03  0.00000000000E+00 0.  1.
         -4   -1    0    0    0  501 -0.00000000000E+00 -0.00000000000E+00 -0.11784948957E+03  0.11784948957E+03  0.00000000000E+00 0. -1.
         25    2    1    2    0    0  0.25796862564E+02 -0.86338284515E+02 -0.40739854972E+01  0.15422061343E+03  0.12509045831E+03 0.  0.
          5    1    3    3  502    0  0.21160632181E+02 -0.53762021713E+02 -0.63631421703E+02  0.86049738878E+02  0.41800000000E+01 0. -1.
         -5    1    3    3    0  502  0.46362303827E+01 -0.32576262802E+02  0.59557436206E+02  0.68170874556E+02  0.41800000000E+01 0. -1.
        -11    1    1    2    0    0 -0.46025247812E+02  0.81216825523E+02  0.23412514843E+02  0.96242620680E+02  0.00000000000E+00 0. -1.
         11    1    1    2    0    0  0.20228385248E+02  0.51214589926E+01  0.45306959423E+02  0.49881233787E+02  0.00000000000E+00 0.  1.
</event>
<event>
 7    1  0.3151015E-009  0.1653032E+03  0.7561462E-02  0.1182836E+00
         -1   -1    0    0    0  501 -0.00000000000E+00  0.00000000000E+00  0.55010807354E+03  0.55010807354E+03  0.00000000000E+00 0.  1.
          1   -1    0    0  501    0  0.00000000000E+00 -0.00000000000E+00 -0.55138440949E+02  0.55138440949E+02  0.00000000000E+00 0. -1.
         25    2    1    2    0    0  0.13050436512E+03  0.37844841426E+02  0.25867454943E+03  0.31784217024E+03  0.12508997292E+03 0.  0.
          5    1    3    3  502    0 -0.17328171486E+02  0.82957737730E+01  0.87610739232E+02  0.89789751187E+02  0.41800000000E+01 0. -1.
         -5    1    3    3    0  502  0.14783253660E+03  0.29549067653E+02  0.17106381020E+03  0.22805241906E+03  0.41800000000E+01 0. -1.
        -11    1    1    2    0    0 -0.40446939301E+02  0.27459695695E+02  0.10129869216E+03  0.11247850826E+03  0.00000000000E+00 0.  1.
         11    1    1    2    0    0 -0.90057425816E+02 -0.65304537122E+02  0.13499639100E+03  0.17492583599E+03  0.00000000000E+00 0. -1.
</event>
<event>
 7    1  0.3151015E-009  0.1563775E+03  0.7561462E-02  0.1192848E+00
         -2   -1    0    0    0  501 -0.00000000000E+00  0.00000000000E+00  0.45150937800E+02  0.45150937800E+02  0.00000000000E+00 0. -1.
          2   -1    0    0  501    0  0.00000000000E+00 -0.00000000000E+00 -0.56049387203E+03  0.56049387203E+03  0.00000000000E+00 0.  1.
         25    2    1    2    0    0  0.99313168546E+02  0.55711731243E+02 -0.23504441433E+03  0.28958704638E+03  0.12509147964E+03 0.  0.
          5    1    3    3  502    0  0.37861841035E+02  0.89131868496E+02 -0.15867616258E+03  0.18593979122E+03  0.41800000000E+01 0. -1.
         -5    1    3    3    0  502  0.61451327512E+02 -0.33420137252E+02 -0.76368251742E+02  0.10364725515E+03  0.41800000000E+01 0. -1.
        -11    1    1    2    0    0 -0.91465696837E+02 -0.20215370903E+01 -0.18531604580E+03  0.20666905221E+03  0.00000000000E+00 0.  1.
         11    1    1    2    0    0 -0.78474717096E+01 -0.53690194153E+02 -0.94982474101E+02  0.10938871124E+03  0.00000000000E+00 0. -1.
</event>
<event>
 7    1  0.3151015E-009  0.1188280E+03  0.7561462E-02  0.1245043E+00
          1   -1    0    0  501    0  0.00000000000E+00  0.00000000000E+00  0.22472134104E+03  0.22472134104E+03  0.00000000000E+00 0. -1.
         -1   -1    0    0    0  501 -0.00000000000E+00 -0.00000000000E+00 -0.97827657934E+02  0.97827657934E+02  0.00000000000E+00 0.  1.
         25    2    1    2    0    0 -0.13509949793E+02 -0.82667661762E+02  0.75579326794E+01  0.15073832705E+03  0.12509380420E+03 0.  0.
          5    1    3    3  502    0  0.27001487632E+02 -0.64927825646E+02  0.52264697809E+02  0.87714160285E+02  0.41800000000E+01 0.  1.
         -5    1    3    3    0  502 -0.40511437426E+02 -0.17739836116E+02 -0.44706765129E+02  0.63024166762E+02  0.41800000000E+01 0.  1.
        -11    1    1    2    0    0  0.35036390840E+02  0.92656686803E+02  0.10359104430E+03  0.14333148556E+03  0.00000000000E+00 0.  1.
         11    1    1    2    0    0 -0.21526441046E+02 -0.99890250409E+01  0.15744706127E+02  0.28479186372E+02  0.00000000000E+00 0. -1.
</event>
<event>
 7    1  0.3151015E-009  0.1245975E+03  0.7561462E-02  0.1235700E+00
          1   -1    0    0  501    0  0.00000000000E+00  0.00000000000E+00  0.92282778928E+03  0.92282778928E+03  0.00000000000E+00 0. -1.
         -1   -1    0    0    0  501 -0.00000000000E+00 -0.00000000000E+00 -0.18664452044E+02  0.18664452044E+02  0.00000000000E+00 0.  1.
         25    2    1    2    0    0 -0.55517095414E+02  0.18949760162E+02  0.36994239565E+03  0.39490520360E+03  0.12510596483E+03 0.  0.
          5    1    3    3  502    0 -0.91003464716E+02  0.31012598816E+02  0.30483157341E+03  0.31966102737E+03  0.41800000000E+01 0. -1.
         -5    1    3    3    0  502  0.35486369302E+02 -0.12062838654E+02  0.65110822241E+02  0.75244176223E+02  0.41800000000E+01 0. -1.
        -11    1    1    2    0    0 -0.52627340372E+01  0.34142441842E+02  0.14103667723E+03  0.14520587808E+03  0.00000000000E+00 0.  1.
         11    1    1    2    0    0  0.60779829451E+02 -0.53092202005E+02  0.39318426436E+03  0.40138115965E+03  0.00000000000E+00 0. -1.
</event>
<event>
 7    1  0.3151015E-009  0.2133552E+03  0.7561462E-02  0.1138936E+00
          1   -1    0    0  501    0  0.00000000000E+00  0.00000000000E+00  0.52570262990E+03  0.52570262990E+03  0.00000000000E+00 0. -1.
         -1   -1    0    0    0  501 -0.00000000000E+00 -0.00000000000E+00 -0.10445613013E+03  0.10445613013E+03  0.00000000000E+00 0.  1.
         25    2    1    2    0    0 -0.17314861781E+03 -0.80370778082E+02  0.10918524452E+03  0.25299446467E+03  0.12507947758E+03 0.  0.
          5    1    3    3  502    0 -0.91652682173E+02 -0.10073790968E+03  0.98675594881E+02  0.16823402159E+03  0.41800000000E+01 0. -1.
         -5    1    3    3    0  502 -0.81495935634E+02  0.20367131598E+02  0.10509649643E+02  0.84760443073E+02  0.41800000000E+01 0. -1.
        -11    1    1    2    0    0  0.83574179522E+02 -0.34855369128E+01  0.86122948832E+02  0.12005813078E+03  0.00000000000E+00 0.  1.
         11    1    1    2    0    0  0.89574438285E+02  0.83856314995E+02  0.22593830642E+03  0.25710616458E+03  0.00000000000E+00 0. -1.
</event>
<event>
 7    1  0.3151015E-009  0.1186092E+03  0.7561462E-02  0.1245409E+00
          1   -1    0    0  501    0  0.00000000000E+00  0.00000000000E+00  0.87209954391E+03  0.87209954391E+03  0.00000000000E+00 0. -1.
         -1   -1    0    0    0  501 -0.00000000000E+00 -0.00000000000E+00 -0.22259340503E+02  0.22259340503E+02  0.00000000000E+00 0.  1.
         25    2    1    2    0    0  0.69744266609E+02  0.46302258518E+02  0.37028796278E+03  0.39971028551E+03  0.12508786951E+03 0.  0.
          5    1    3    3  502    0  0.80174455880E+02  0.74764030276E+02  0.33740748279E+03  0.35479414516E+03  0.41800000000E+01 0.  1.
         -5    1    3    3    0  502 -0.10430189271E+02 -0.28461771758E+02  0.32880479992E+02  0.44916140354E+02  0.41800000000E+01 0.  1.
        -11    1    1    2    0    0 -0.93614770351E+01  0.10462326754E+02  0.86082196215E+01  0.16468120064E+02  0.00000000000E+00 0.  1.
         11    1    1    2    0    0 -0.60382789574E+02 -0.56764585271E+02  0.47094402101E+03  0.47818047884E+03  0.00000000000E+00 0. -1.
</event>
<event>
 6    1  0.3151015E-009  0.1235797E+03  0.7561462E-02  0.1237306E+00
         -1   -1    0    0    0  501 -0.00000000000E+00  0.00000000000E+00  0.41473690814E+02  0.41473690814E+02  0.00000000000E+00 0.  1.
          1   -1    0    0  501    0  0.00000000000E+00 -0.00000000000E+00 -0.56182758113E+03  0.56182758113E+03  0.00000000000E+00 0. -1.
          5    1    1    2  502    0 -0.31689218158E+02  0.65482792667E+01 -0.26262766913E+03  0.26464665405E+03  0.41800000000E+01 0. -1.
         -5    1    1    2    0  502  0.68238121962E+01  0.86329268680E+02 -0.11088880198E+03  0.14075903469E+03  0.41800000000E+01 0. -1.
        -11    1    1    2    0    0  0.54725662268E+02 -0.75616995238E+02 -0.12852870271E+03  0.15884727099E+03  0.00000000000E+00 0.  1.
         11    1    1    2    0    0 -0.29860256306E+02 -0.17260552710E+02 -0.18308716493E+02  0.39048312206E+02  0.00000000000E+00 0. -1.
</event>
<event>
 7    1  0.3151015E-009  0.1247412E+03  0.7561462E-02  0.1235474E+00
          3   -1    0    0  501    0  0.00000000000E+00  0.00000000000E+00  0.65307381659E+02  0.65307381659E+02  0.00000000000E+00 0. -1.
         -3   -1    0    0    0  501 -0.00000000000E+00 -0.00000000000E+00 -0.38239660146E+03  0.38239660146E+03  0.00000000000E+00 0.  1.
         25    2    1    2    0    0  0.98366713730E+02  0.39200330254E+02 -0.23106357122E+03  0.28328645669E+03  0.12509263104E+03 0.  0.
          5    1    3    3  502    0 -0.60086766619E+00  0.42043117567E+01  0.14780401007E+02  0.15936434144E+02  0.41800000000E+01 0. -1.
         -5    1    3    3    0  502  0.98967581396E+02  0.34996018497E+02 -0.24584397223E+03  0.26735002255E+03  0.41800000000E+01 0. -1.
        -11    1    1    2    0    0 -0.96182281291E+01  0.26405371875E+02 -0.28238293281E+02  0.39839116250E+02  0.00000000000E+00 0.  1.
         11    1    1    2    0    0 -0.88748485601E+02 -0.65605702129E+02 -0.57787355297E+02  0.12457841017E+03  0.00000000000E+00 0. -1.
</event>
<event>
 7    1  0.3151015E-009  0.8684858E+02  0.7561462E-02  0.1310668E+00
         -1   -1    0    0    0  501 -0.00000000000E+00  0.00000000000E+00  0.16588762967E+03  0.16588762967E+03  0.00000000000E+00 0.  1.
          1   -1    0    0  501    0  0.00000000000E+00 -0.00000000000E+00 -0.99467626678E+02  0.99467626678E+02  0.00000000000E+00 0. -1.
         25    2    1    2    0    0 -0.68774020201E+02 -0.58958073156E+00  0.36163237737E+02  0.14725959039E+03  0.12508954288E+03 0.  0.
          5    1    3    3  502    0 -0.77475935150E+02 -0.43312046933E+01  0.74437925227E+02  0.10760927922E+03  0.41800000000E+01 0.  1.
         -5    1    3    3    0  502  0.87019149487E+01  0.37416239618E+01 -0.38274687490E+02  0.39650311173E+02  0.41800000000E+01 0.  1.
        -11    1    1    2    0    0  0.24198249010E+02 -0.24539160058E+02 -0.25157601063E+02  0.42668847216E+02  0.00000000000E+00 0.  1.
         11    1    1    2    0    0  0.44575771191E+02  0.25128740789E+02  0.55414366316E+02  0.75426818739E+02  0.00000000000E+00 0. -1.
</event>
<event>
 7    1  0.3492292E-009  0.2680290E+03  0.7561462E-02  0.1102413E+00
         -2   -1    0    0    0  501 -0.00000000000E+00  0.00000000000E+00  0.14244833599E+03  0.14244833599E+03  0.00000000000E+00 0.  1.
          2   -1    0    0  501    0  0.00000000000E+00 -0.00000000000E+00 -0.54058701181E+03  0.54058701181E+03  0.00000000000E+00 0. -1.
         25    2    1    2    0    0  0.25125987456E+03  0.30343861638E+02 -0.24323461818E+03  0.37264002449E+03  0.12508090929E+03 0.  0.
          5    1    3    3  502    0  0.25881844370E+03  0.38692961491E+02 -0.24717635227E+03  0.35999687997E+03  0.41800000000E+01 0.  1.
         -5    1    3    3    0  502 -0.75585691409E+01 -0.83490998529E+01  0.39417340847E+01  0.12643144522E+02  0.41800000000E+01 0.  1.
        -11    1    1    2    0    0 -0.12206003891E+03  0.19937573567E+02 -0.38974844424E+02  0.12967342995E+03  0.00000000000E+00 0. -1.
         11    1    1    2    0    0 -0.12919983565E+03 -0.50281435206E+02 -0.11592921322E+03  0.18072189336E+03  0.00000000000E+00 0.  1.
</event>
<event>
 7    1  0.3151015E-009  0.8701981E+02  0.7561462E-02  0.1310233E+00
          1   -1    0    0  501    0  0.00000000000E+00  0.00000000000E+00  0.93286568509E+02  0.93286568509E+02  0.00000000000E+00 0. -1.
         -1   -1    0    0    0  501 -0.00000000000E+00 -0.00000000000E+00 -0.14902280137E+03  0.14902280137E+03  0.00000000000E+00 0.  1.
         25    2    1    2    0    0  0.19170326784E+02  0.15184425445E+02 -0.71958664510E+02  0.14636750844E+03  0.12508928781E+03 0.  0.
          5    1    3    3  502    0  0.79527147030E+01  0.55637080583E+02 -0.85198623849E+02  0.10215188844E+03  0.41800000000E+01 0.  1.
         -5    1    3    3    0  502  0.11217612081E+02 -0.40452655138E+02  0.13239959339E+02  0.44215619998E+02  0.41800000000E+01 0.  1.
        -11    1    1    2    0    0 -0.20357894446E+02  0.26710019386E+02 -0.21232812912E+02  0.39732874877E+02  0.00000000000E+00 0.  1.
         11    1    1    2    0    0  0.11875676622E+01 -0.41894444831E+02  0.37455244563E+02  0.56208986558E+02  0.00000000000E+00 0. -1.
</event>
<event>
 7    1  0.3151015E-009  0.1436872E+03  0.7561462E-02  0.1208452E+00
          4   -1    0    0  501    0  0.00000000000E+00  0.00000000000E+00  0.39367826606E+03  0.39367826606E+03  0.00000000000E+00 0. -1.
         -4   -1    0    0    0  501 -0.00000000000E+00 -0.00000000000E+00 -0.60094119771E+02  0.60094119771E+02  0.00000000000E+00 0.  1.
         25    2    1    2    0    0  0.38914869963E+02 -0.96096630996E+02  0.12554478654E+03  0.20532326702E+03  0.12508885226E+03 0.  0.
          5    1    3    3  502    0  0.84518807658E+02 -0.61904036781E+02  0.88603255883E+02  0.13727180326E+03  0.41800000000E+01 0. -1.
         -5    1    3    3    0  502 -0.45603937696E+02 -0.34192594215E+02  0.36941530656E+02  0.68051463759E+02  0.41800000000E+01 0. -1.
        -11    1    1    2    0    0 -0.49314697487E+02  0.28447961761E+02  0.14347802415E+03  0.15436051739E+03  0.00000000000E+00 0. -1.
         11    1    1    2    0    0  0.10399827524E+02  0.67648669235E+02  0.64561335600E+02  0.94088601415E+02  0.00000000000E+00 0.  1.
</event>
<event>
 7    1  0.3151015E-009  0.1050014E+03  0.7561462E-02  0.1270117E+00
          1   -1    0    0  501    0  0.00000000000E+00  0.00000000000E+00  0.85242399397E+03  0.85242399397E+03  0.00000000000E+00 0. -1.
         -1   -1    0    0    0  501 -0.00000000000E+00 -0.00000000000E+00 -0.22001254799E+02  0.22001254799E+02  0.00000000000E+00 0.  1.
         25    2    1    2    0    0  0.44356163241E+02 -0.20085285526E+02  0.67310977337E+03  0.68636294151E+03  0.12508570087E+03 0.  0.
          5    1    3    3  502    0 -0.18188982024E+02 -0.46073473878E+02  0.46077281513E+03  0.46344650568E+03  0.41800000000E+01 0. -1.
         -5    1    3    3    0  502  0.62545145264E+02  0.25988188353E+02  0.21233695824E+03  0.22291643583E+03  0.41800000000E+01 0. -1.
        -11    1    1    2    0    0 -0.54361584277E+02 -0.14638521168E+02  0.51689465457E+02  0.76428194970E+02  0.00000000000E+00 0.  1.
         11    1    1    2    0    0  0.10005421036E+02  0.34723806694E+02  0.10562350034E+03  0.11163411229E+03  0.00000000000E+00 0. -1.
</event>
<event>
 7    1  0.3151015E-009  0.8816314E+02  0.7561462E-02  0.1307362E+00
         -1   -1    0    0    0  501 -0.00000000000E+00  0.00000000000E+00  0.75800694655E+02  0.75800694655E+02  0.00000000000E+00 0.  1.
          1   -1    0    0  501    0  0.00000000000E+00 -0.00000000000E+00 -0.25592668052E+03  0.25592668052E+03  0.00000000000E+00 0. -1.
         25    2    1    2    0    0 -0.72740200743E+02  0.17369357274E+02 -0.15123427047E+03  0.21002493247E+03  0.12508331751E+03 0.  0.
          5    1    3    3  502    0 -0.20986482364E+02 -0.18162084242E+01  0.20439693609E+02  0.29647673262E+02  0.41800000000E+01 0. -1.
         -5    1    3    3    0  502 -0.51753718380E+02  0.19185565698E+02 -0.17167396408E+03  0.18037725921E+03  0.41800000000E+01 0. -1.
        -11    1    1    2    0    0  0.66940630655E+02 -0.38747666295E+02 -0.49185704403E+02  0.91660586914E+02  0.00000000000E+00 0. -1.
         11    1    1    2    0    0  0.57995700885E+01  0.21378309021E+02  0.20293989004E+02  0.30041855793E+02  0.00000000000E+00 0.  1.
</event>
<event>
 7    1  0.3151015E-009  0.9291526E+02  0.7561462E-02  0.1295942E+00
          1   -1    0    0  501    0  0.00000000000E+00  0.00000000000E+00  0.52773693214E+03  0.52773693214E+03  0.00000000000E+00 0. -1.
         -1   -1    0    0    0  501 -0.00000000000E+00 -0.00000000000E+00 -0.29419224488E+02  0.29419224488E+02  0.00000000000E+00 0.  1.
         25    2    1    2    0    0  0.57310154990E+02 -0.51623699256E+01  0.32026145423E+03  0.34860573318E+03  0.12508978459E+03 0.  0.
          5    1    3    3  502    0  0.62276219695E+02  0.15269846433E+02  0.32078838498E+03  0.32716074962E+03  0.41800000000E+01 0.  1.
         -5    1    3    3    0  502 -0.49660647056E+01 -0.20432216359E+02 -0.52693074945E+00  0.21444983563E+02  0.41800000000E+01 0.  1.
        -11    1    1    2    0    0 -0.78515971460E+02  0.71245990293E+01  0.16672883997E+03  0.18442891250E+03  0.00000000000E+00 0.  1.
         11    1    1    2    0    0  0.21205816471E+02 -0.19622291037E+01  0.11327413446E+02  0.24121510952E+02  0.00000000000E+00 0. -1.
</event>
<event>
 7    1  0.3151015E-009  0.1291670E+03  0.7561462E-02  0.1228697E+00
         -1   -1    0    0    0  501 -0.00000000000E+00  0.00000000000E+00  0.93612429089E+02  0.93612429089E+02  0.00000000000E+00 0.  1.
          1   -1    0    0  501    0  0.00000000000E+00 -0.00000000000E+00 -0.25031512112E+03  0.25031512112E+03  0.00000000000E+00 0. -1.
         25    2    1    2    0    0 -0.69954846395E+02 -0.65646041042E+02 -0.14656022008E+03  0.21524395569E+03  0.12508788556E+03 0.  0.
          5    1    3    3  502    0 -0.10018745796E+03 -0.19371159926E+02 -0.91759636188E+02  0.13729556367E+03  0.41800000000E+01 0. -1.
         -5    1    3    3    0  502  0.30232611566E+02 -0.46274881115E+02 -0.54800583887E+02  0.77948392021E+02  0.41800000000E+01 0. -1.
        -11    1    1    2    0    0  0.48050060022E+02  0.62199823903E+02  0.28933670914E+02  0.83754305407E+02  0.00000000000E+00 0.  1.
         11    1    1    2    0    0  0.21904786374E+02  0.34462171385E+01 -0.39076142866E+02  0.44929289110E+02  0.00000000000E+00 0. -1.
</event>
<event>
 7    1  0.3151015E-009  0.2221173E+03  0.7561462E-02  0.1132314E+00
          2   -1    0    0  501    0  0.00000000000E+00  0.00000000000E+00  0.17915844612E+03  0.17915844612E+03  0.00000000000E+00 0. -1.
         -2   -1    0    0    0  501 -0.00000000000E+00 -0.00000000000E+00 -0.34604535848E+03  0.34604535848E+03  0.00000000000E+00 0.  1.
         25    2    1    2    0    0  0.14616940767E+03  0.12832275877E+03  0.18681438065E+02  0.23200969168E+03  0.12508906726E+03 0.  0.
          5    1    3    3  502    0  0.14265374237E+03  0.66337049106E+02 -0.20146722268E+02  0.15866334521E+03  0.41800000000E+01 0. -1.
         -5    1    3    3    0  502  0.35156653009E+01  0.61985709665E+02  0.38828160333E+02  0.73346346467E+02  0.41800000000E+01 0. -1.
        -11    1    1    2    0    0 -0.61203605769E+01 -0.74254006194E+02 -0.42291298560E+02  0.85671875101E+02  0.00000000000E+00 0. -1.
         11    1    1    2    0    0 -0.14004904709E+03 -0.54068752577E+02 -0.14327705186E+03  0.20752223781E+03  0.00000000000E+00 0.  1.
</event>
<event>
 7    1  0.3151015E-009  0.1123913E+03  0.7561462E-02  0.1256205E+00
          2   -1    0    0  501    0  0.00000000000E+00  0.00000000000E+00  0.55369653629E+03  0.55369653629E+03  0.00000000000E+00 0. -1.
         -2   -1    0    0    0  501 -0.00000000000E+00 -0.00000000000E+00 -0.32749690435E+02  0.32749690435E+02  0.00000000000E+00 0.  1.
         25    2    1    2    0    0  0.57135725633E+02 -0.45378111364E+02  0.34877237401E+03  0.37764222064E+03  0.12509122195E+03 0.  0.
          5    1    3    3  502    0 -0.11085556149E+02  0.29388808223E+02  0.16294520386E+03  0.16599760078E+03  0.41800000000E+01 0. -1.
         -5    1    3    3    0  502  0.68221281782E+02 -0.74766919587E+02  0.18582717015E+03  0.21164461986E+03  0.41800000000E+01 0. -1.
        -11    1    1    2    0    0 -0.53038782950E+02  0.73479937198E+01  0.15990856519E+03  0.16863527131E+03  0.00000000000E+00 0. -1.
         11    1    1    2    0    0 -0.40969426829E+01  0.38030117644E+02  0.12265906665E+02  0.40168734778E+02  0.00000000000E+00 0.  1.
</event>
<event>
 7    1  0.3151015E-009  0.1041318E+03  0.7561462E-02  0.1271840E+00
          1   -1    0    0  501    0  0.00000000000E+00  0.00000000000E+00  0.92508449263E+02  0.92508449263E+02  0.00000000000E+00 0. -1.
         -1   -1    0    0    0  501 -0.00000000000E+00 -0.00000000000E+00 -0.15448946529E+03  0.15448946529E+03  0.00000000000E+00 0.  1.
         25    2    1    2    0    0 -0.29664625637E+02  0.42965304345E+02 -0.40010711572E+02  0.14133119196E+03  0.12509053277E+03 0.  0.
          5    1    3    3  502    0 -0.76785558817E+02  0.10371267661E+02 -0.29002421640E+02  0.82838385407E+02  0.41800000000E+01 0.  1.
         -5    1    3    3    0  502  0.47120933181E+02  0.32594036684E+02 -0.11008289932E+02  0.58492806553E+02  0.41800000000E+01 0.  1.
        -11    1    1    2    0    0  0.57956784385E+01  0.11983502527E+02 -0.40761282865E+02  0.42879790137E+02  0.00000000000E+00 0.  1.
         11    1    1    2    0    0  0.23868947198E+02 -0.54948806873E+02  0.18790978415E+02  0.62786932453E+02  0.00000000000E+00 0. -1.
</event>
<event>
 7    1  0.3151015E-009  0.8881933E+02  0.7561462E-02  0.1305736E+00
          1   -1    0    0  501    0  0.00000000000E+00  0.00000000000E+00  0.17413303006E+03  0.17413303006E+03  0.00000000000E+00 0. -1.
         -1   -1    0    0    0  501 -0.00000000000E+00 -0.00000000000E+00 -0.13538071545E+03  0.13538071545E+03  0.00000000000E+00 0.  1.
         25    2    1    2    0    0 -0.39811216075E+02 -0.94915767217E+01  0.12325576058E+03  0.18031383318E+03  0.12508426346E+03 0.  0.
          5    1    3    3  502    0  0.34477316401E+02  0.10998175029E+02  0.88438742803E+02  0.95647942104E+02  0.41800000000E+01 0. -1.
         -5    1    3    3    0  502 -0.74288532476E+02 -0.20489751751E+02  0.34817017776E+02  0.84665891072E+02  0.41800000000E+01 0. -1.
        -11    1    1    2    0    0  0.89814370079E+01 -0.19653195501E+02  0.11327955282E+02  0.24397476816E+02  0.00000000000E+00 0. -1.
         11    1    1    2    0    0  0.30829779067E+02  0.29144772223E+02 -0.95831401247E+02  0.10480243552E+03  0.00000000000E+00 0.  1.
</event>
<event>
 7    1  0.3151015E-009  0.9801566E+02  0.7561462E-02  0.1284525E+00
         -2   -1    0    0    0  501 -0.00000000000E+00  0.00000000000E+00  0.85172887710E+01  0.85172887710E+01  0.00000000000E+00 0.  1.
          2   -1    0    0  501    0  0.00000000000E+00 -0.00000000000E+00 -0.27407472702E+04  0.27407472702E+04  0.00000000000E+00 0. -1.
         25    2    1    2    0    0  0.61962124471E+02 -0.68448303897E+01 -0.22565418055E+04  0.22608654741E+04  0.12508243510E+03 0.  0.
          5    1    3    3  502    0  0.25646809326E+02  0.31110759048E+02 -0.19017163465E+04  0.19021483047E+04  0.41800000000E+01 0. -1.
         -5    1    3    3    0  502  0.36315315145E+02 -0.37955589438E+02 -0.35482545902E+03  0.35871716944E+03  0.41800000000E+01 0. -1.
        -11    1    1    2    0    0 -0.82113623085E+02  0.23196535978E+01 -0.43586901058E+03  0.44354235680E+03  0.00000000000E+00 0. -1.
         11    1    1    2    0    0  0.20151498614E+02  0.45251767919E+01 -0.39819165313E+02  0.44856728008E+02  0.00000000000E+00 0.  1.
</event>
<event>
 7    1  0.3151015E-009  0.1144662E+03  0.7561462E-02  0.1252516E+00
          2   -1    0    0  501    0  0.00000000000E+00  0.00000000000E+00  0.43518409638E+03  0.43518409638E+03  0.00000000000E+00 0. -1.
         -2   -1    0    0    0  501 -0.00000000000E+00 -0.00000000000E+00 -0.58980885085E+02  0.58980885085E+02  0.00000000000E+00 0.  1.
         25    2    1    2    0    0  0.54359409628E+02  0.31720019244E+02  0.49014534317E+02  0.14835683909E+03  0.12508485958E+03 0.  0.
          5    1    3    3  502    0  0.47269101032E+02  0.68345549178E+02 -0.41122621563E+01  0.83305852765E+02  0.41800000000E+01 0.  1.
         -5    1    3    3    0  502  0.70903085968E+01 -0.36625529935E+02  0.53126796474E+02  0.65050986330E+02  0.41800000000E+01 0.  1.
        -11    1    1    2    0    0  0.16158904772E+02 -0.33988759452E+02  0.15952354325E+03  0.16390273587E+03  0.00000000000E+00 0.  1.
         11    1    1    2    0    0 -0.70518314400E+02  0.22687402080E+01  0.16766513372E+03  0.18190540650E+03  0.00000000000E+00 0. -1.
</event>
<event>
 7    1  0.3151015E-009  0.1222322E+03  0.7561462E-02  0.1239459E+00
          2   -1    0    0  501    0  0.00000000000E+00  0.00000000000E+00  0.37680176286E+02  0.37680176286E+02  0.00000000000E+00 0. -1.
         -2   -1    0    0    0  501 -0.00000000000E+00 -0.00000000000E+00 -0.54707818906E+03  0.54707818906E+03  0.00000000000E+00 0.  1.
         25    2    1    2    0    0  0.50003110436E+02 -0.54724266064E+02 -0.16051824000E+03  0.21658327787E+03  0.12508858672E+03 0.  0.
          5    1    3    3  502    0 -0.32504426890E+02  0.11599283997E+01 -0.70341747235E+01  0.33538563109E+02  0.41800000000E+01 0.  1.
         -5    1    3    3    0  502  0.82507537326E+02 -0.55884194464E+02 -0.15348406528E+03  0.18304471476E+03  0.41800000000E+01 0.  1.
        -11    1    1    2    0    0  0.23340663941E+02  0.20204406793E+02 -0.52439209458E+02  0.60851255827E+02  0.00000000000E+00 0. -1.
         11    1    1    2    0    0 -0.73343774377E+02  0.34519859271E+02 -0.29644056332E+03  0.30732383166E+03  0.00000000000E+00 0.  1.
</event>
<event>
 7    1  0.3151015E-009  0.1312579E+03  0.7561462E-02  0.1225601E+00
          2   -1    0    0  501    0  0.00000000000E+00  0.00000000000E+00  0.10749092819E+03  0.10749092819E+03  0.00000000000E+00 0. -1.
         -2   -1    0    0    0  501 -0.00000000000E+00 -0.00000000000E+00 -0.16414681976E+03  0.16414681976E+03  0.00000000000E+00 0.  1.
         25    2    1    2    0    0 -0.20914618394E+02 -0.71686520673E+02 -0.15592608499E+02  0.14651513810E+03  0.12508867952E+03 0.  0.
          5    1    3    3  502    0 -0.18983706155E+01 -0.10606310099E+03 -0.12239823561E+02  0.10686566747E+03  0.41800000000E+01 0.  1.
         -5    1    3    3    0  502 -0.19016247778E+02  0.34376580320E+02 -0.33527849382E+01  0.39649470626E+02  0.41800000000E+01 0.  1.
        -11    1    1    2    0    0  0.18209207011E+02  0.93301721341E+02 -0.40504728400E+02  0.10333159946E+03  0.00000000000E+00 0. -1.
         11    1    1    2    0    0  0.27054113830E+01 -0.21615200668E+02 -0.55855467406E+00  0.21791010394E+02  0.00000000000E+00 0.  1.
</event>
<event>
 7    1  0.3151015E-009  0.1001826E+03  0.7561462E-02  0.1279912E+00
          1   -1    0    0  501    0  0.00000000000E+00  0.00000000000E+00  0.60246237444E+03  0.60246237444E+03  0.00000000000E+00 0. -1.
         -1   -1    0    0    0  501 -0.00000000000E+00 -0.00000000000E+00 -0.24991371291E+02  0.24991371291E+02  0.00000000000E+00 0.  1.
         25    2    1    2    0    0 -0.28136619236E+02  0.12504539801E+01  0.20187763891E+03  0.23915701600E+03  0.12509302232E+03 0.  0.
          5    1    3    3  502    0  0.32111333286E+02 -0.22041169840E+02  0.15330558215E+03  0.15823092242E+03  0.41800000000E+01 0.  1.
         -5    1    3    3    0  502 -0.60247952522E+02  0.23291623820E+02  0.48572056764E+02  0.80926093577E+02  0.41800000000E+01 0.  1.
        -11    1    1    2    0    0  0.54420065961E+01  0.44798259989E+02  0.13693971050E+03  0.14418385432E+03  0.00000000000E+00 0.  1.
         11    1    1    2    0    0  0.22694612640E+02 -0.46048713969E+02  0.23865365373E+03  0.24411287541E+03  0.00000000000E+00 0. -1.
</event>
<event>
 7    1  0.3151015E-009  0.1421435E+03  0.7561462E-02  0.1210473E+00
          1   -1    0    0  501    0  0.00000000000E+00  0.00000000000E+00  0.23120238039E+03  0.23120238039E+03  0.00000000000E+00 0. -1.
         -1   -1    0    0    0  501 -0.00000000000E+00 -0.00000000000E+00 -0.12373343212E+03  0.12373343212E+03  0.00000000000E+00 0.  1.
         25    2    1    2    0    0 -0.54443334243E+02 -0.10195719318E+03  0.11753169050E+03  0.20693180042E+03  0.12509087044E+03 0.  0.
          5    1    3    3  502    0 -0.38363686605E+02 -0.11114930171E+03  0.35742012803E+02  0.12296708340E+03  0.41800000000E+01 0.  1.
         -5    1    3    3    0  502 -0.16079647638E+02  0.91921085217E+01  0.81789677697E+02  0.83964717025E+02  0.41800000000E+01 0.  1.
        -11    1    1    2    0    0 -0.17528499931E+02  0.63832911473E+02 -0.57224691451E+01  0.66442723831E+02  0.00000000000E+00 0.  1.
         11    1    1    2    0    0  0.71971834174E+02  0.38124281711E+02 -0.43402730849E+01  0.81561288249E+02  0.00000000000E+00 0. -1.
</event>
<event>
 7    1  0.3151015E-009  0.1306570E+03  0.7561462E-02  0.1226484E+00
         -2   -1    0    0    0  501 -0.00000000000E+00  0.00000000000E+00  0.54515163215E+03  0.54515163215E+03  0.00000000000E+00 0. -1.
          2   -1    0    0  501    0  0.00000000000E+00 -0.00000000000E+00 -0.32313575063E+02  0.32313575063E+02  0.00000000000E+00 0.  1.
         25    2    1    2    0    0 -0.51833201364E+02  0.55966648238E+02  0.26150159746E+03  0.29974837243E+03  0.12508818817E+03 0.  0.
          5    1    3    3  502    0 -0.91372569738E+02  0.48223666298E+02  0.21129067036E+03  0.23523538908E+03  0.41800000000E+01 0. -1.
         -5    1    3    3    0  502  0.39539368374E+02  0.77429819404E+01  0.50210927103E+02  0.64512983354E+02  0.41800000000E+01 0. -1.
        -11    1    1    2    0    0  0.43918537773E+02 -0.80459590988E+02  0.20817334181E+03  0.22746147802E+03  0.00000000000E+00 0. -1.
         11    1    1    2    0    0  0.79146635905E+01  0.24492942750E+02  0.43163117817E+02  0.50255356769E+02  0.00000000000E+00 0.  1.
</event>
<event>
 7    1  0.3151015E-009  0.1065706E+03  0.7561462E-02  0.1267056E+00
          2   -1    0    0  501    0  0.00000000000E+00  0.00000000000E+00  0.35536715799E+03  0.35536715799E+03  0.00000000000E+00 0. -1.
         -2   -1    0    0    0  501 -0.00000000000E+00 -0.00000000000E+00 -0.47204217208E+02  0.47204217208E+02  0.00000000000E+00 0.  1.
         25    2    1    2    0    0  0.34706123181E+02 -0.43437067350E+02  0.10333360804E+03  0.17151814020E+03  0.12509733835E+03 0.  0.
          5    1    3    3  502    0 -0.14336475270E+01  0.28745796756E+02 -0.11342137246E+02  0.31216864891E+02  0.41800000000E+01 0. -1.
         -5    1    3    3    0  502  0.36139770708E+02 -0.72182864106E+02  0.11467574529E+03  0.14030127531E+03  0.41800000000E+01 0. -1.
        -11    1    1    2    0    0  0.26444466251E+01 -0.25063915330E+02  0.27407865944E+02  0.37234178723E+02  0.00000000000E+00 0.  1.
         11    1    1    2    0    0 -0.37350569806E+02  0.68500982680E+02  0.17742146680E+03  0.19381905627E+03  0.00000000000E+00 0. -1.
</event>
<event>
 7    1  0.3151015E-009  0.1439611E+03  0.7561462E-02  0.1208096E+00
         -2   -1    0    0    0  501 -0.00000000000E+00  0.00000000000E+00  0.31907276324E+02  0.31907276324E+02  0.00000000000E+00 0.  1.
          2   -1    0    0  501    0  0.00000000000E+00 -0.00000000000E+00 -0.71921840939E+03  0.71921840939E+03  0.00000000000E+00 0. -1.
         25    2    1    2    0    0 -0.97022548727E+02 -0.90021019996E+01 -0.47316752601E+03  0.49902809637E+03  0.12508845066E+03 0.  0.
          5    1    3    3  502    0 -0.68714366937E+02  0.53317822877E+02 -0.21641131678E+03  0.23327191192E+03  0.41800000000E+01 0.  1.
         -5    1    3    3    0  502 -0.28308181789E+02 -0.62319924877E+02 -0.25675620924E+03  0.26575618445E+03  0.41800000000E+01 0.  1.
        -11    1    1    2    0    0  0.90244723097E+02  0.41317901860E+02 -0.17169444672E+03  0.19831858737E+03  0.00000000000E+00 0. -1.
         11    1    1    2    0    0  0.67778256301E+01 -0.32315799860E+02 -0.42449160330E+02  0.53779001977E+02  0.00000000000E+00 0.  1.
</event>
<event>
 7    1  0.3151015E-009  0.1332488E+03  0.7561462E-02  0.1222713E+00
          3   -1    0    0  501    0  0.00000000000E+00  0.00000000000E+00  0.16880571716E+03  0.16880571716E+03  0.00000000000E+00 0. -1.
         -3   -1    0    0    0  501 -0.00000000000E+00 -0.00000000000E+00 -0.10563455468E+03  0.10563455468E+03  0.00000000000E+00 0.  1.
         25    2    1    2    0    0 -0.33705425861E+02 -0.70272226485E+02  0.37042316633E+02  0.15196698053E+03  0.12509032098E+03 0.  0.
          5    1    3    3  502    0  0.47480276374E+02 -0.26074074171E+02  0.75650938798E+01  0.54853778665E+02  0.41800000000E+01 0. -1.
         -5    1    3    3    0  502 -0.81185702235E+02 -0.44198152313E+02  0.29477222754E+02  0.97113201865E+02  0.41800000000E+01 0. -1.
        -11    1    1    2    0    0  0.39021249695E+02  0.90589068696E+02  0.22324858278E+02  0.10113078954E+03  0.00000000000E+00 0. -1.
         11    1    1    2    0    0 -0.53158238338E+01 -0.20316842211E+02  0.38039875697E+01  0.21342501772E+02  0.00000000000E+00 0.  1.
</event>
<event>
 7    1  0.3151015E-009  0.1011794E+03  0.7561462E-02  0.1277835E+00
         -1   -1    0    0    0  501 -0.00000000000E+00  0.00000000000E+00  0.46420094740E+02  0.46420094740E+02  0.00000000000E+00 0.  1.
          1   -1    0    0  501    0  0.00000000000E+00 -0.00000000000E+00 -0.52674471181E+03  0.52674471181E+03  0.00000000000E+00 0. -1.
         25    2    1    2    0    0  0.68994536209E+01  0.37158368673E+01 -0.46307185325E+03  0.47973449302E+03  0.12509289595E+03 0.  0.
          5    1    3    3  502    0  0.56173335054E+02 -0.18774471774E+02 -0.13914086016E+03  0.15127979286E+03  0.41800000000E+01 0.  1.
         -5    1    3    3    0  502 -0.49273881433E+02  0.22490308641E+02 -0.32393099308E+03  0.32845470016E+03  0.41800000000E+01 0.  1.
        -11    1    1    2    0    0 -0.78339508104E+00  0.42265361758E+02  0.38933712385E+01  0.42451535331E+02  0.00000000000E+00 0.  1.
         11    1    1    2    0    0 -0.61160585399E+01 -0.45981198625E+02 -0.21146135065E+02  0.50978778205E+02  0.00000000000E+00 0. -1.
</event>
<event>
 7    1  0.3151015E-009  0.8363411E+02  0.7561462E-02  0.1319044E+00
          1   -1    0    0  501    0  0.00000000000E+00  0.00000000000E+00  0.54232393849E+02  0.54232393849E+02  0.00000000000E+00 0. -1.
         -1   -1    0    0    0  501 -0.00000000000E+00 -0.00000000000E+00 -0.30243222968E+03  0.30243222968E+03  0.00000000000E+00 0.  1.
         25    2    1    2    0    0 -0.59762763421E+02 -0.25757786381E+02 -0.11438386690E+03  0.18156697997E+03  0.12509135764E+03 0.  0.
          5    1    3    3  502    0 -0.78672455467E+01  0.24420944915E+02  0.17377545927E+02  0.31268636130E+02  0.41800000000E+01 0. -1.
         -5    1    3    3    0  502 -0.51895517875E+02 -0.50178731296E+02 -0.13176141283E+03  0.15029834384E+03  0.41800000000E+01 0. -1.
        -11    1    1    2    0    0  0.43040424404E+02  0.66140323676E+01 -0.50393035908E+01  0.43836265098E+02  0.00000000000E+00 0. -1.
         11    1    1    2    0    0  0.16722339017E+02  0.19143754013E+02 -0.12877666533E+03  0.13126137846E+03  0.00000000000E+00 0.  1.
</event>
<event>
 7    1  0.3151015E-009  0.2047450E+03  0.7561462E-02  0.1145796E+00
         -2   -1    0    0    0  501 -0.00000000000E+00  0.00000000000E+00  0.43209036011E+02  0.43209036011E+02  0.00000000000E+00 0.  1.
          2   -1    0    0  501    0  0.00000000000E+00 -0.00000000000E+00 -0.12429178943E+04  0.12429178943E+04  0.00000000000E+00 0. -1.
         25    2    1    2    0    0 -0.12844607598E+03 -0.15847913264E+03 -0.56702917370E+03  0.61545770987E+03  0.12510826872E+03 0.  0.
          5    1    3    3  502    0 -0.11157554134E+03 -0.14440619292E+03 -0.32789178456E+03  0.37527689079E+03  0.41800000000E+01 0. -1.
         -5    1    3    3    0  502 -0.16870534640E+02 -0.14072939715E+02 -0.23913738914E+03  0.24018081908E+03  0.41800000000E+01 0. -1.
        -11    1    1    2    0    0  0.69298697023E+02  0.97692624010E+02 -0.23180824254E+03  0.26092378102E+03  0.00000000000E+00 0.  1.
         11    1    1    2    0    0  0.59147378954E+02  0.60786508627E+02 -0.40087144201E+03  0.40974543937E+03  0.00000000000E+00 0. -1.
</event>
<event>
 7    1  0.3151015E-009  0.2013145E+03  0.7561462E-02  0.1148635E+00
         -2   -1    0    0    0  501 -0.00000000000E+00  0.00000000000E+00  0.87462575215E+02  0.87462575215E+02  0.00000000000E+00 0.  1.
          2   -1    0    0  501    0  0.00000000000E+00 -0.00000000000E+00 -0.51368656125E+03  0.51368656125E+03  0.00000000000E+00 0. -1.
         25    2    1    2    0    0  0.11955293343E+03  0.13031667571E+03 -0.15650538291E+03  0.26724018972E+03  0.12509214310E+03 0.  0.
          5    1    3    3  502    0  0.46456346562E+02 -0.18030509667E+02 -0.48565592292E+02  0.69709257416E+02  0.41800000000E+01 0.  1.
         -5    1    3    3    0  502  0.73096586866E+02  0.14834718538E+03 -0.10793979061E+03  0.19753093231E+03  0.41800000000E+01 0.  1.
        -11    1    1    2    0    0 -0.21496892028E+02 -0.67253566333E+02 -0.54692037156E+02  0.89310567570E+02  0.00000000000E+00 0.  1.
         11    1    1    2    0    0 -0.98056041401E+02 -0.63063109378E+02 -0.21502656597E+03  0.24459837917E+03  0.00000000000E+00 0. -1.
</event>
<event>
 7    1  0.3714789E-009  0.2887985E+03  0.7561462E-02  0.1090978E+00
         -4   -1    0    0    0  501 -0.00000000000E+00  0.00000000000E+00  0.68528457278E+03  0.68528457278E+03  0.00000000000E+00 0.  1.
          4   -1    0    0  501    0  0.00000000000E+00 -0.00000000000E+00 -0.12660007801E+03  0.12660007801E+03  0.00000000000E+00 0. -1.
         25    2    1    2    0    0  0.72938701179E+02 -0.25776901615E+03  0.20936011538E+03  0.36227696037E+03  0.12509203928E+03 0.  0.
          5    1    3    3  502    0 -0.27434602158E+02 -0.13084335682E+03  0.97350425581E+02  0.16543040585E+03  0.41800000000E+01 0.  1.
         -5    1    3    3    0  502  0.10037330334E+03 -0.12692565933E+03  0.11200968979E+03  0.19684655452E+03  0.41800000000E+01 0.  1.
        -11    1    1    2    0    0  0.10281262421E+02  0.12402184561E+03  0.13482219286E+03  0.18347791756E+03  0.00000000000E+00 0.  1.
         11    1    1    2    0    0 -0.83219963600E+02  0.13374717054E+03  0.21450218655E+03  0.26612977286E+03  0.00000000000E+00 0. -1.
</event>
<event>
 6    1  0.3151015E-009  0.1484722E+03  0.7561462E-02  0.1202363E+00
          2   -1    0    0  501    0  0.00000000000E+00  0.00000000000E+00  0.27539455661E+04  0.27539455661E+04  0.00000000000E+00 0. -1.
         -2   -1    0    0    0  501 -0.00000000000E+00 -0.00000000000E+00 -0.13126149602E+02  0.13126149602E+02  0.00000000000E+00 0.  1.
          5    1    1    2  502    0 -0.79298312461E+02 -0.10357729915E+03  0.19365774065E+04  0.19409703767E+04  0.41800000000E+01 0.  1.
         -5    1    1    2    0  502  0.14863336631E+02  0.25534121341E+02  0.36211189459E+03  0.36333924469E+03  0.41800000000E+01 0.  1.
        -11    1    1    2    0    0  0.54647275723E+02 -0.32184251010E+01  0.17132182946E+03  0.17985508682E+03  0.00000000000E+00 0. -1.
         11    1    1    2    0    0  0.97877001077E+01  0.81261602912E+02  0.27080828593E+03  0.28290700753E+03  0.00000000000E+00 0.  1.
</event>
<event>
 7    1  0.3151015E-009  0.9792835E+02  0.7561462E-02  0.1284714E+00
         -2   -1    0    0    0  501 -0.00000000000E+00  0.00000000000E+00  0.37299873450E+03  0.37299873450E+03  0.00000000000E+00 0.  1.
          2   -1    0    0  501    0  0.00000000000E+00 -0.00000000000E+00 -0.38459702488E+02  0.38459702488E+02  0.00000000000E+00 0. -1.
         25    2    1    2    0    0 -0.23850992180E+02 -0.15041984542E+02  0.11513405278E+03  0.17233284857E+03  0.12509048509E+03 0.  0.
          5    1    3    3  502    0 -0.31014321403E+02  0.45160828021E+02  0.18117561123E+02  0.57854186890E+02  0.41800000000E+01 0. -1.
         -5    1    3    3    0  502  0.71633292235E+01 -0.60202812563E+02  0.97016491657E+02  0.11447866168E+03  0.41800000000E+01 0. -1.
        -11    1    1    2    0    0 -0.65591991359E+00  0.42975822879E+02  0.51125471623E+02  0.66791956340E+02  0.00000000000E+00 0. -1.
         11    1    1    2    0    0  0.24506912093E+02 -0.27933838337E+02  0.16827950761E+03  0.17233363208E+03  0.00000000000E+00 0.  1.
</event>
<event>
 7    1  0.3151015E-009  0.1260510E+03  0.7561462E-02  0.1233436E+00
          3   -1    0    0  501    0  0.00000000000E+00  0.00000000000E+00  0.54074218166E+03  0.54074218166E+03  0.00000000000E+00 0. -1.
         -3   -1    0    0    0  501 -0.00000000000E+00 -0.00000000000E+00 -0.44978864913E+02  0.44978864913E+02  0.00000000000E+00 0.  1.
         25    2    1    2    0    0  0.29085381616E+02  0.96311188349E+02  0.17213530065E+03  0.23537074545E+03  0.12508805562E+03 0.  0.
          5    1    3    3  502    0 -0.39609258499E+02  0.63839484864E+02  0.12487145943E+03  0.14579000983E+03  0.41800000000E+01 0. -1.
         -5    1    3    3    0  502  0.68694640114E+02  0.32471703485E+02  0.47263841228E+02  0.89580735626E+02  0.41800000000E+01 0. -1.
        -11    1    1    2    0    0 -0.70324080162E+01 -0.32269419294E+02  0.18623812916E+02  0.37915914753E+02  0.00000000000E+00 0.  1.
         11    1    1    2    0    0 -0.22052973599E+02 -0.64041769055E+02  0.30500420318E+03  0.31243438636E+03  0.00000000000E+00 0. -1.
</event>
<event>
 7    1  0.3151015E-009  0.7748145E+02  0.7561462E-02  0.1336355E+00
         -4   -1    0    0    0  501 -0.00000000000E+00  0.00000000000E+00  0.46538179550E+02  0.46538179550E+02  0.00000000000E+00 0.  1.
          4   -1    0    0  501    0  0.00000000000E+00 -0.00000000000E+00 -0.25317344417E+03  0.25317344417E+03  0.00000000000E+00 0. -1.
         25    2    1    2    0    0  0.17816090197E+02  0.86022668485E+01 -0.10417438490E+03  0.16399155800E+03  0.12509802781E+03 0.  0.
          5    1    3    3  502    0  0.42350128291E+02 -0.22840951356E+02 -0.11303708951E+03  0.12292314034E+03  0.41800000000E+01 0.  1.
         -5    1    3    3    0  502 -0.24534038094E+02  0.31443218204E+02  0.88627046146E+01  0.41068417663E+02  0.41800000000E+01 0.  1.
        -11    1    1    2    0    0 -0.36341790652E+02  0.12548415440E+02 -0.10042102464E+03  0.10752939444E+03  0.00000000000E+00 0. -1.
         11    1    1    2    0    0  0.18525700455E+02 -0.21150682288E+02 -0.20398550814E+01  0.28190671283E+02  0.00000000000E+00 0.  1.
</event>
<event>
 7    1  0.3151015E-009  0.1799016E+03  0.7561462E-02  0.1167898E+00
          1   -1    0    0  501    0  0.00000000000E+00  0.00000000000E+00  0.10573140940E+04  0.10573140940E+04  0.00000000000E+00 0.  1.
         -1   -1    0    0    0  501 -0.00000000000E+00 -0.00000000000E+00 -0.41927981201E+02  0.41927981201E+02  0.00000000000E+00 0. -1.
         25    2    1    2    0    0  0.30073958165E+02 -0.14707144900E+03  0.78825325192E+03  0.81211162910E+03  0.12509058671E+03 0.  0.
          5    1    3    3  502    0  0.66001033684E+02 -0.30485767607E+02  0.26659283133E+03  0.27635978107E+03  0.41800000000E+01 0. -1.
         -5    1    3    3    0  502 -0.35927075519E+02 -0.11658568139E+03  0.52166042059E+03  0.53575184803E+03  0.41800000000E+01 0. -1.
        -11    1    1    2    0    0  0.19605161256E+02  0.74009932231E+02  0.15573057555E+03  0.17353341055E+03  0.00000000000E+00 0.  1.
         11    1    1    2    0    0 -0.49679119420E+02  0.73061516767E+02  0.71402285364E+02  0.11359703559E+03  0.00000000000E+00 0. -1.
</event>
<event>
 7    1  0.3151015E-009  0.1307595E+03  0.7561462E-02  0.1226333E+00
          2   -1    0    0  501    0  0.00000000000E+00  0.00000000000E+00  0.10324700012E+03  0.10324700012E+03  0.00000000000E+00 0. -1.
         -2   -1    0    0    0  501 -0.00000000000E+00 -0.00000000000E+00 -0.21471932737E+03  0.21471932737E+03  0.00000000000E+00 0.  1.
         25    2    1    2    0    0 -0.82496404548E+02 -0.60133443852E+02 -0.66325472018E+02  0.17455202192E+03  0.12509057633E+03 0.  0.
          5    1    3    3  502    0 -0.45087822976E+02  0.24388511665E+02 -0.63858361492E+02  0.81994353552E+02  0.41800000000E+01 0.  1.
         -5    1    3    3    0  502 -0.37408581572E+02 -0.84521955517E+02 -0.24671105254E+01  0.92557668369E+02  0.41800000000E+01 0.  1.
        -11    1    1    2    0    0  0.58074247084E+02  0.62580415750E+01 -0.58613338891E+02  0.82748442612E+02  0.00000000000E+00 0.  1.
         11    1    1    2    0    0  0.24422157464E+02  0.53875402277E+02  0.13466483664E+02  0.60665862954E+02  0.00000000000E+00 0. -1.
</event>
<event>
 7    1  0.3151015E-009  0.6589358E+02  0.7561462E-02  0.1374641E+00
         -2   -1    0    0    0  501 -0.00000000000E+00  0.00000000000E+00  0.10796697302E+03  0.10796697302E+03  0.00000000000E+00 0.  1.
          2   -1    0    0  501    0  0.00000000000E+00 -0.00000000000E+00 -0.20126015726E+03  0.20126015726E+03  0.00000000000E+00 0. -1.
         25    2    1    2    0    0  0.11148701500E+02  0.41939770233E+02 -0.15376532068E+03  0.20291539681E+03  0.12509055339E+03 0.  0.
          5    1    3    3  502    0  0.62413532834E+01  0.31861183603E+02 -0.17527328609E+03  0.17830391675E+03  0.41800000000E+01 0.  1.
         -5    1    3    3    0  502  0.49073482166E+01  0.10078586630E+02  0.21507965408E+02  0.24611480064E+02  0.41800000000E+01 0.  1.
        -11    1    1    2    0    0 -0.16262932267E+02  0.19525379097E+02  0.13429096018E+02  0.28741329382E+02  0.00000000000E+00 0.  1.
         11    1    1    2    0    0  0.51142307671E+01 -0.61465149329E+02  0.47043040419E+02  0.77570404088E+02  0.00000000000E+00 0. -1.
</event>
<event>
 7    1  0.3151015E-009  0.8255369E+02  0.7561462E-02  0.1321957E+00
          1   -1    0    0  501    0  0.00000000000E+00  0.00000000000E+00  0.76001234279E+03  0.76001234279E+03  0.00000000000E+00 0.  1.
         -1   -1    0    0    0  501 -0.00000000000E+00 -0.00000000000E+00 -0.21997921139E+02  0.21997921139E+02  0.00000000000E+00 0. -1.
         25    2    1    2    0    0 -0.10939593150E+02 -0.69896355990E+02  0.38373948380E+03  0.40976680593E+03  0.12509064129E+03 0.  0.
          5    1    3    3  502    0  0.14303694855E+01 -0.32480267771E+02  0.36403785140E+03  0.36551066113E+03  0.41800000000E+01 0.  1.
         -5    1    3    3    0  502 -0.12369962636E+02 -0.37416088219E+02  0.19701632400E+02  0.44256144799E+02  0.41800000000E+01 0.  1.
        -11    1    1    2    0    0  0.26324659323E+02  0.72467419219E+02  0.34619491062E+03  0.35467651554E+03  0.00000000000E+00 0.  1.
         11    1    1    2    0    0 -0.15385066172E+02 -0.25710632288E+01  0.80800272366E+01  0.17566942460E+02  0.00000000000E+00 0. -1.
</event>
<event>
 7    1  0.3151015E-009  0.1284666E+03  0.7561462E-02  0.1229749E+00
          2   -1    0    0  501    0  0.00000000000E+00  0.00000000000E+00  0.79279725732E+02  0.79279725732E+02  0.00000000000E+00 0. -1.
         -2   -1    0    0    0  501 -0.00000000000E+00 -0.00000000000E+00 -0.21067726295E+03  0.21067726295E+03  0.00000000000E+00 0.  1.
         25    2    1    2    0    0 -0.76432231453E+02 -0.23107489229E+02 -0.72231431497E+02  0.16504780100E+03  0.12509018689E+03 0.  0.
          5    1    3    3  502    0  0.34174166015E+02 -0.26783866676E+01 -0.26620996696E+02  0.43602720592E+02  0.41800000000E+01 0.  1.
         -5    1    3    3    0  502 -0.11060639747E+03 -0.20429102562E+02 -0.45610434800E+02  0.12144508041E+03  0.41800000000E+01 0.  1.
        -11    1    1    2    0    0  0.38446449651E+02 -0.26990630478E+02 -0.28668043291E+02  0.55031630273E+02  0.00000000000E+00 0. -1.
         11    1    1    2    0    0  0.37985781802E+02  0.50098119707E+02 -0.30498062426E+02  0.69877557406E+02  0.00000000000E+00 0.  1.
</event>
<event>
 7    1  0.3151015E-009  0.7234052E+02  0.7561462E-02  0.1352310E+00
          3   -1    0    0  501    0  0.00000000000E+00  0.00000000000E+00  0.95344499084E+02  0.95344499084E+02  0.00000000000E+00 0. -1.
         -3   -1    0    0    0  501 -0.00000000000E+00 -0.00000000000E+00 -0.19317095828E+03  0.19317095828E+03  0.00000000000E+00 0.  1.
         25    2    1    2    0    0 -0.36465350696E+02 -0.26834578294E+02 -0.12212581830E+03  0.18058626643E+03  0.12508744035E+03 0.  0.
          5    1    3    3  502    0 -0.36884750886E+02 -0.95082679474E+01  0.15846713269E+02  0.41466645979E+02  0.41800000000E+01 0.  1.
         -5    1    3    3    0  502  0.41940019040E+00 -0.17326310346E+02 -0.13797253157E+03  0.13911962045E+03  0.41800000000E+01 0.  1.
        -11    1    1    2    0    0 -0.19607417608E+02 -0.94284263633E+01 -0.18546347787E+02  0.28588687714E+02  0.00000000000E+00 0.  1.
         11    1    1    2    0    0  0.56072768303E+02  0.36263004657E+02  0.42845706892E+02  0.79340503219E+02  0.00000000000E+00 0. -1.
</event>
<event>
 7    1  0.3151015E-009  0.7983998E+02  0.7561462E-02  0.1329506E+00
         -2   -1    0    0    0  501 -0.00000000000E+00  0.00000000000E+00  0.13306018167E+03  0.13306018167E+03  0.00000000000E+00 0.  1.
          2   -1    0    0  501    0  0.00000000000E+00 -0.00000000000E+00 -0.10409630603E+03  0.10409630603E+03  0.00000000000E+00 0. -1.
         25    2    1    2    0    0  0.17659153502E+02 -0.13456476967E+02  0.57437734756E+02  0.13942707605E+03  0.12509154123E+03 0.  0.
          5    1    3    3  502    0  0.15043530327E+02  0.35438421604E+02 -0.23091422326E+02  0.45087423030E+02  0.41800000000E+01 0.  1.
         -5    1    3    3    0  502  0.26156231747E+01 -0.48894898571E+02  0.80529157082E+02  0.94339653016E+02  0.41800000000E+01 0.  1.
        -11    1    1    2    0    0  0.21434897617E+02  0.23133659488E+02 -0.44366168763E+02  0.54433243224E+02  0.00000000000E+00 0. -1.
         11    1    1    2    0    0 -0.39094051119E+02 -0.96771825211E+01  0.15892309653E+02  0.43296168428E+02  0.00000000000E+00 0.  1.
</event>
<event>
 7    1  0.3151015E-009  0.1314995E+03  0.7561462E-02  0.1225248E+00
         -2   -1    0    0    0  501 -0.00000000000E+00  0.00000000000E+00  0.44786193022E+03  0.44786193022E+03  0.00000000000E+00 0.  1.
          2   -1    0    0  501    0  0.00000000000E+00 -0.00000000000E+00 -0.39856345737E+02  0.39856345737E+02  0.00000000000E+00 0. -1.
         25    2    1    2    0    0 -0.18702028374E+02 -0.76057031408E+02  0.19411398472E+03  0.24384968826E+03  0.12509194022E+03 0.  0.
          5    1    3    3  502    0  0.37826869898E+02  0.13075178176E+02  0.37923477816E+02  0.55294619451E+02  0.41800000000E+01 0.  1.
         -5    1    3    3    0  502 -0.56528898273E+02 -0.89132209584E+02  0.15619050690E+03  0.18855506880E+03  0.41800000000E+01 0.  1.
        -11    1    1    2    0    0 -0.11793402479E+02  0.84633011967E+02  0.15764512477E+03  0.17931485276E+03  0.00000000000E+00 0.  1.
         11    1    1    2    0    0  0.30495430853E+02 -0.85759805586E+01  0.56246474987E+02  0.64553734934E+02  0.00000000000E+00 0. -1.
</event>
<event>
 7    1  0.3151015E-009  0.9050159E+02  0.7561462E-02  0.1301642E+00
          2   -1    0    0  501    0  0.00000000000E+00  0.00000000000E+00  0.11016649260E+03  0.11016649260E+03  0.00000000000E+00 0.  1.
         -2   -1    0    0    0  501 -0.00000000000E+00 -0.00000000000E+00 -0.14198737596E+03  0.14198737596E+03  0.00000000000E+00 0. -1.
         25    2    1    2    0    0  0.79226326831E+01  0.43250608484E+02  0.28236779396E+02  0.13556659414E+03  0.12509037730E+03 0.  0.
          5    1    3    3  502    0  0.58918450415E+01  0.82078335021E+02 -0.73109785410E+01  0.82719343112E+02  0.41800000000E+01 0. -1.
         -5    1    3    3    0  502  0.20307876416E+01 -0.38827726537E+02  0.35547757937E+02  0.52847251024E+02  0.41800000000E+01 0. -1.
        -11    1    1    2    0    0  0.16383567223E+02 -0.14749866014E+02 -0.73543003448E+02  0.76775993504E+02  0.00000000000E+00 0. -1.
         11    1    1    2    0    0 -0.24306199906E+02 -0.28500742469E+02  0.13485340693E+02  0.39811280924E+02  0.00000000000E+00 0.  1.
</event>
<event>
 7    1  0.3151015E-009  0.7401244E+02  0.7561462E-02  0.1346957E+00
          1   -1    0    0  501    0  0.00000000000E+00  0.00000000000E+00  0.19027160123E+03  0.19027160123E+03  0.00000000000E+00 0. -1.
         -1   -1    0    0    0  501 -0.00000000000E+00 -0.00000000000E+00 -0.89534818288E+02  0.89534818288E+02  0.00000000000E+00 0.  1.
         25    2    1    2    0    0  0.19294514554E+02  0.14435589757E+02  0.12731589785E+03  0.18011484003E+03  0.12510536842E+03 0.  0.
          5    1    3    3  502    0  0.43850880536E+02  0.30213742314E+02  0.13860490177E+03  0.14854144588E+03  0.41800000000E+01 0.  1.
         -5    1    3    3    0  502 -0.24556365983E+02 -0.15778152558E+02 -0.11289003922E+02  0.31573394147E+02  0.41800000000E+01 0.  1.
        -11    1    1    2    0    0 -0.41357775873E+02 -0.10981850061E+02 -0.51017008748E+02  0.66586799274E+02  0.00000000000E+00 0.  1.
         11    1    1    2    0    0  0.22063261320E+02 -0.34537396953E+01  0.24437893840E+02  0.33104780218E+02  0.00000000000E+00 0. -1.
</event>
<event>
 7    1  0.3151015E-009  0.2401038E+03  0.7561462E-02  0.1119724E+00
         -2   -1    0    0    0  501 -0.00000000000E+00  0.00000000000E+00  0.40571355881E+02  0.40571355881E+02  0.00000000000E+00 0.  1.
          2   -1    0    0  501    0  0.00000000000E+00 -0.00000000000E+00 -0.14618443315E+04  0.14618443315E+04  0.00000000000E+00 0. -1.
         25    2    1    2    0    0  0.41480161100E+02  0.21066259471E+03 -0.63585123621E+03  0.68268163960E+03  0.12509234143E+03 0.  0.
          5    1    3    3  502    0  0.43790907027E+02  0.22607107246E+03 -0.56752391029E+03  0.61247582360E+03  0.41800000000E+01 0.  1.
         -5    1    3    3    0  502 -0.23107459276E+01 -0.15408477752E+02 -0.68327325916E+02  0.70205816000E+02  0.41800000000E+01 0.  1.
        -11    1    1    2    0    0 -0.52587812262E+01 -0.19369451359E+03 -0.67639074231E+03  0.70359765183E+03  0.00000000000E+00 0.  1.
         11    1    1    2    0    0 -0.36221379873E+02 -0.16968081114E+02 -0.10903099713E+03  0.11613639599E+03  0.00000000000E+00 0. -1.
</event>
<event>
 7    1  0.3151015E-009  0.1201930E+03  0.7561462E-02  0.1242779E+00
          1   -1    0    0  501    0  0.00000000000E+00  0.00000000000E+00  0.65734051744E+02  0.65734051744E+02  0.00000000000E+00 0. -1.
         -1   -1    0    0    0  501 -0.00000000000E+00 -0.00000000000E+00 -0.33093662991E+03  0.33093662991E+03  0.00000000000E+00 0.  1.
         25    2    1    2    0    0 -0.51473117614E+02  0.66864293504E+02 -0.21878422125E+03  0.26577140886E+03  0.12509033022E+03 0.  0.
          5    1    3    3  502    0  0.36743040278E+02 -0.38509104082E+01 -0.44541544265E+02  0.58019842170E+02  0.41800000000E+01 0. -1.
         -5    1    3    3    0  502 -0.88216157892E+02  0.70715203913E+02 -0.17424267699E+03  0.20775156669E+03  0.41800000000E+01 0. -1.
        -11    1    1    2    0    0  0.28703176077E+02 -0.59626537054E+02  0.12477548925E+02  0.67341558232E+02  0.00000000000E+00 0. -1.
         11    1    1    2    0    0  0.22769941537E+02 -0.72377564505E+01 -0.58895905836E+02  0.63557714562E+02  0.00000000000E+00 0.  1.
</event>
<event>
 7    1  0.3151015E-009  0.8039003E+02  0.7561462E-02  0.1327948E+00
         -1   -1    0    0    0  501 -0.00000000000E+00  0.00000000000E+00  0.24557875683E+02  0.24557875683E+02  0.00000000000E+00 0.  1.
          1   -1    0    0  501    0  0.00000000000E+00 -0.00000000000E+00 -0.68063923293E+03  0.68063923293E+03  0.00000000000E+00 0. -1.
         25    2    1    2    0    0 -0.43744963168E+02  0.37472424266E+02 -0.46720573754E+03  0.48707913004E+03  0.12508826222E+03 0.  0.
          5    1    3    3  502    0 -0.57953697454E+02  0.48359096441E+02 -0.13790431765E+03  0.15726508348E+03  0.41800000000E+01 0.  1.
         -5    1    3    3    0  502  0.14208734286E+02 -0.10886672175E+02 -0.32930141989E+03  0.32981404656E+03  0.41800000000E+01 0.  1.
        -11    1    1    2    0    0  0.39959154249E+02 -0.12972432770E+02 -0.18870657487E+03  0.19332663918E+03  0.00000000000E+00 0. -1.
         11    1    1    2    0    0  0.37858089194E+01 -0.24499991496E+02 -0.16904483686E+00  0.24791339388E+02  0.00000000000E+00 0.  1.
</event>
<event>
 7    1  0.3151015E-009  0.1011552E+03  0.7561462E-02  0.1277885E+00
         -2   -1    0    0    0  501 -0.00000000000E+00  0.00000000000E+00  0.33042811984E+03  0.33042811984E+03  0.00000000000E+00 0.  1.
          2   -1    0    0  501    0  0.00000000000E+00 -0.00000000000E+00 -0.47029591600E+02  0.47029591600E+02  0.00000000000E+00 0. -1.
         25    2    1    2    0    0  0.63723044114E+01  0.32290786704E+01  0.23544555488E+03  0.26670809917E+03  0.12509023798E+03 0.  0.
          5    1    3    3  502    0  0.17053037477E+02  0.51277306566E+02  0.46505116978E+02  0.71416850679E+02  0.41800000000E+01 0.  1.
         -5    1    3    3    0  502 -0.10680733065E+02 -0.48048227895E+02  0.18894043790E+03  0.19529124849E+03  0.41800000000E+01 0.  1.
        -11    1    1    2    0    0 -0.33945499730E+02  0.36825752412E+02  0.32584393404E+02  0.59750947157E+02  0.00000000000E+00 0.  1.
         11    1    1    2    0    0  0.27573195319E+02 -0.40054831082E+02  0.15368579951E+02  0.50998665108E+02  0.00000000000E+00 0. -1.
</event>
<event>
 7    1  0.3151015E-009  0.1033268E+03  0.7561462E-02  0.1273452E+00
         -1   -1    0    0    0  501 -0.00000000000E+00  0.00000000000E+00  0.19877786058E+02  0.19877786058E+02  0.00000000000E+00 0.  1.
          1   -1    0    0  501    0  0.00000000000E+00 -0.00000000000E+00 -0.92565645026E+03  0.92565645026E+03  0.00000000000E+00 0. -1.
         25    2    1    2    0    0  0.18264048005E+02  0.37838059551E+02 -0.73206297384E+03  0.74386060963E+03  0.12508842754E+03 0.  0.
          5    1    3    3  502    0 -0.40789553234E+02  0.12309724644E+02 -0.10356653380E+03  0.11206612467E+03  0.41800000000E+01 0.  1.
         -5    1    3    3    0  502  0.59053601239E+02  0.25528334908E+02 -0.62849644003E+03  0.63179448497E+03  0.41800000000E+01 0.  1.
        -11    1    1    2    0    0  0.19339568653E+02 -0.54805209740E+02 -0.12490800952E+03  0.13776661704E+03  0.00000000000E+00 0. -1.
         11    1    1    2    0    0 -0.37603616658E+02  0.16967150189E+02 -0.48807680854E+02  0.63907009644E+02  0.00000000000E+00 0.  1.
</event>
<event>
 7    1  0.3151015E-009  0.1032916E+03  0.7561462E-02  0.1273523E+00
          1   -1    0    0  501    0  0.00000000000E+00  0.00000000000E+00  0.65297727603E+03  0.65297727603E+03  0.00000000000E+00 0. -1.
         -1   -1    0    0    0  501 -0.00000000000E+00 -0.00000000000E+00 -0.20079549852E+02  0.20079549852E+02  0.00000000000E+00 0.  1.
         25    2    1    2    0    0 -0.22341838201E+02  0.19374180140E+02  0.42769331514E+03  0.44659166631E+03  0.12509207813E+03 0.  0.
          5    1    3    3  502    0  0.13449247259E+02 -0.40179086750E+02  0.68028894103E+02  0.80253623574E+02  0.41800000000E+01 0. -1.
         -5    1    3    3    0  502 -0.35791085460E+02  0.59553266890E+02  0.35966442104E+03  0.36633804273E+03  0.41800000000E+01 0. -1.
        -11    1    1    2    0    0  0.15935832048E+02 -0.55483988841E+02  0.10601134522E+03  0.12070968924E+03  0.00000000000E+00 0.  1.
         11    1    1    2    0    0  0.64060061530E+01  0.36109808701E+02  0.99193065813E+02  0.10575547033E+03  0.00000000000E+00 0. -1.
</event>
<event>
 7    1  0.3151015E-009  0.1251150E+03  0.7561462E-02  0.1234890E+00
         -2   -1    0    0    0  501 -0.00000000000E+00  0.00000000000E+00  0.12546566630E+03  0.12546566630E+03  0.00000000000E+00 0.  1.
          2   -1    0    0  501    0  0.00000000000E+00 -0.00000000000E+00 -0.13278002185E+03  0.13278002185E+03  0.00000000000E+00 0. -1.
         25    2    1    2    0    0  0.57806165728E+02 -0.34145146392E+02  0.10722312392E+02  0.14237547339E+03  0.12509341957E+03 0.  0.
          5    1    3    3  502    0 -0.34920795787E+02  0.12108578259E+02 -0.48309872795E+01  0.37508538814E+02  0.41800000000E+01 0.  1.
         -5    1    3    3    0  502  0.92726961515E+02 -0.46253724651E+02  0.15553299671E+02  0.10486693457E+03  0.41800000000E+01 0.  1.
        -11    1    1    2    0    0 -0.73526470147E+02  0.20116258556E+01  0.43288658843E+01  0.73681256305E+02  0.00000000000E+00 0.  1.
         11    1    1    2    0    0  0.15720304419E+02  0.32133520536E+02 -0.22365533821E+02  0.42188958463E+02  0.00000000000E+00 0. -1.
</event>
<event>
 7    1  0.3151015E-009  0.1018052E+03  0.7561462E-02  0.1276545E+00
         -2   -1    0    0    0  501 -0.00000000000E+00  0.00000000000E+00  0.43723591635E+02  0.43723591635E+02  0.00000000000E+00 0.  1.
          2   -1    0    0  501    0  0.00000000000E+00 -0.00000000000E+00 -0.40018010343E+03  0.40018010343E+03  0.00000000000E+00 0. -1.
         25    2    1    2    0    0  0.19574783015E+02 -0.70135026303E+02 -0.16927183737E+03  0.22271012916E+03  0.12507898569E+03 0.  0.
          5    1    3    3  502    0  0.46345315380E+02 -0.64670957205E+02 -0.37474489542E+02  0.88045617324E+02  0.41800000000E+01 0. -1.
         -5    1    3    3    0  502 -0.26770532365E+02 -0.54640690978E+01 -0.13179734782E+03  0.13466451184E+03  0.41800000000E+01 0. -1.
        -11    1    1    2    0    0 -0.41857420609E+01 -0.12012657058E+02  0.33328076609E+01  0.13150360189E+02  0.00000000000E+00 0.  1.
         11    1    1    2    0    0 -0.15389040954E+02  0.82147683361E+02 -0.19051748209E+03  0.20804320572E+03  0.00000000000E+00 0. -1.
</event>
<event>
 7    1  0.3151015E-009  0.1256008E+03  0.7561462E-02  0.1234133E+00
          1   -1    0    0  501    0  0.00000000000E+00  0.00000000000E+00  0.65833069073E+02  0.65833069073E+02  0.00000000000E+00 0. -1.
         -1   -1    0    0    0  501 -0.00000000000E+00 -0.00000000000E+00 -0.31580603482E+03  0.31580603482E+03  0.00000000000E+00 0.  1.
         25    2    1    2    0    0  0.66052674965E+02 -0.61449374451E+02 -0.99505852683E+02  0.18354139209E+03  0.12508815452E+03 0.  0.
          5    1    3    3  502    0 -0.24393822210E+02 -0.31076990097E+02 -0.75115816286E+02  0.84974679357E+02  0.41800000000E+01 0.  1.
         -5    1    3    3    0  502  0.90446497176E+02 -0.30372384353E+02 -0.24390036397E+02  0.98566712728E+02  0.41800000000E+01 0.  1.
        -11    1    1    2    0    0 -0.68672873247E+00  0.49522206520E+02 -0.23553061283E+02  0.54842203008E+02  0.00000000000E+00 0. -1.
         11    1    1    2    0    0 -0.65365946233E+02  0.11927167930E+02 -0.12691405178E+03  0.14325550880E+03  0.00000000000E+00 0.  1.
</event>
<event>
 7    1  0.3151015E-009  0.1946566E+03  0.7561462E-02  0.1154327E+00
          1   -1    0    0  501    0  0.00000000000E+00  0.00000000000E+00  0.10689950432E+04  0.10689950432E+04  0.00000000000E+00 0. -1.
         -1   -1    0    0    0  501 -0.00000000000E+00 -0.00000000000E+00 -0.43746310627E+02  0.43746310627E+02  0.00000000000E+00 0.  1.
         25    2    1    2    0    0 -0.15079324104E+03 -0.10775402913E+03  0.55891472991E+03  0.60198291758E+03  0.12509286718E+03 0.  0.
          5    1    3    3  502    0 -0.24128419695E+02 -0.63481172601E+02  0.32711250265E+03  0.33411390528E+03  0.41800000000E+01 0.  1.
         -5    1    3    3    0  502 -0.12666482134E+03 -0.44272856525E+02  0.23180222725E+03  0.26786901230E+03  0.41800000000E+01 0.  1.
        -11    1    1    2    0    0  0.58225632692E+02  0.56900117603E+02  0.32061213903E+03  0.33078692746E+03  0.00000000000E+00 0. -1.
         11    1    1    2    0    0  0.92567608346E+02  0.50853911523E+02  0.14572186364E+03  0.17997150879E+03  0.00000000000E+00 0.  1.
</event>
<event>
 7    1  0.3151015E-009  0.8685116E+02  0.7561462E-02  0.1310661E+00
         -1   -1    0    0    0  501 -0.00000000000E+00  0.00000000000E+00  0.68525398213E+02  0.68525398213E+02  0.00000000000E+00 0.  1.
          1   -1    0    0  501    0  0.00000000000E+00 -0.00000000000E+00 -0.18004761302E+03  0.18004761302E+03  0.00000000000E+00 0. -1.
         25    2    1    2    0    0 -0.25404895785E+02  0.86476804358E+01 -0.71453728626E+02  0.14653740144E+03  0.12508950227E+03 0.  0.
          5    1    3    3  502    0 -0.99834930449E+01 -0.34618412798E+02 -0.89840063324E+02  0.96885571764E+02  0.41800000000E+01 0.  1.
         -5    1    3    3    0  502 -0.15421402740E+02  0.43266093234E+02  0.18386334697E+02  0.49651829672E+02  0.41800000000E+01 0.  1.
        -11    1    1    2    0    0  0.38778020882E+02  0.30886029607E+02 -0.33388209707E+02  0.59770011509E+02  0.00000000000E+00 0.  1.
         11    1    1    2    0    0 -0.13373125097E+02 -0.39533710043E+02 -0.66802764696E+01  0.42265598284E+02  0.00000000000E+00 0. -1.
</event>
<event>
 7    1  0.3151015E-009  0.9163112E+02  0.7561462E-02  0.1298949E+00
         -3   -1    0    0    0  501 -0.00000000000E+00  0.00000000000E+00  0.45119883953E+02  0.45119883953E+02  0.00000000000E+00 0.  1.
          3   -1    0    0  501    0  0.00000000000E+00 -0.00000000000E+00 -0.37622186849E+03  0.37622186849E+03  0.00000000000E+00 0. -1.
         25    2    1    2    0    0  0.70067237875E+02 -0.32840228258E+01 -0.20621790958E+03  0.25118607748E+03  0.12509363157E+03 0.  0.
          5    1    3    3  502    0  0.52928130235E+02  0.17571146434E+02 -0.14828930974E+02  0.57857598905E+02  0.41800000000E+01 0. -1.
         -5    1    3    3    0  502  0.17139107640E+02 -0.20855169260E+02 -0.19138897861E+03  0.19332847858E+03  0.41800000000E+01 0. -1.
        -11    1    1    2    0    0  0.10576695116E+02  0.15183521603E+02  0.27535647794E+01  0.18707964263E+02  0.00000000000E+00 0.  1.
         11    1    1    2    0    0 -0.80643932991E+02 -0.11899498778E+02 -0.12763763973E+03  0.15144771070E+03  0.00000000000E+00 0. -1.
</event>
<event>
 7    1  0.3151015E-009  0.9412752E+02  0.7561462E-02  0.1293153E+00
         -1   -1    0    0    0  501 -0.00000000000E+00  0.00000000000E+00  0.24742688871E+02  0.24742688871E+02  0.00000000000E+00 0.  1.
          1   -1    0    0  501    0  0.00000000000E+00 -0.00000000000E+00 -0.54125617846E+03  0.54125617846E+03  0.00000000000E+00 0. -1.
         25    2    1    2    0    0  0.46552966544E+01 -0.24160681806E+02 -0.21637255587E+03  0.25113842642E+03  0.12509202996E+03 0.  0.
          5    1    3    3  502    0 -0.55684635844E+01 -0.57822686617E+02 -0.38601233613E+02  0.69871299621E+02  0.41800000000E+01 0. -1.
         -5    1    3    3    0  502  0.10223760239E+02  0.33662004811E+02 -0.17777132226E+03  0.18126712680E+03  0.41800000000E+01 0. -1.
        -11    1    1    2    0    0 -0.14556055762E+02  0.57756504688E+02 -0.20499448049E+03  0.21347231583E+03  0.00000000000E+00 0.  1.
         11    1    1    2    0    0  0.99007591073E+01 -0.33595822882E+02 -0.95146453228E+02  0.10138812508E+03  0.00000000000E+00 0. -1.
</event>
<event>
 7    1  0.3151015E-009  0.1689325E+03  0.7561462E-02  0.1178966E+00
         -1   -1    0    0    0  501 -0.00000000000E+00  0.00000000000E+00  0.68092743024E+02  0.68092743024E+02  0.00000000000E+00 0.  1.
          1   -1    0    0  501    0  0.00000000000E+00 -0.00000000000E+00 -0.45080329257E+03  0.45080329257E+03  0.00000000000E+00 0. -1.
         25    2    1    2    0    0  0.11174695668E+03  0.65492879635E+02 -0.27170233217E+03  0.32595482416E+03  0.12509072898E+03 0.  0.
          5    1    3    3  502    0  0.13331524790E+03  0.27518870409E+02 -0.20668338649E+03  0.24751916734E+03  0.41800000000E+01 0.  1.
         -5    1    3    3    0  502 -0.21568291222E+02  0.37974009226E+02 -0.65018945686E+02  0.78435656821E+02  0.41800000000E+01 0.  1.
        -11    1    1    2    0    0 -0.50150482451E+02 -0.80095026026E+02 -0.65755268597E+02  0.11512618917E+03  0.00000000000E+00 0.  1.
         11    1    1    2    0    0 -0.61596474229E+02  0.14602146392E+02 -0.45252948775E+02  0.77815022262E+02  0.00000000000E+00 0. -1.
</event>
<event>
 7    1  0.3151015E-009  0.2013233E+03  0.7561462E-02  0.1148627E+00
          2   -1    0    0  501    0  0.00000000000E+00  0.00000000000E+00  0.95602193473E+02  0.95602193473E+02  0.00000000000E+00 0. -1.
         -2   -1    0    0    0  501 -0.00000000000E+00 -0.00000000000E+00 -0.67693213925E+03  0.67693213925E+03  0.00000000000E+00 0.  1.
         25    2    1    2    0    0  0.82260151425E+02 -0.16029557040E+03 -0.82825362256E+02  0.23445702537E+03  0.12509457907E+03 0.  0.
          5    1    3    3  502    0 -0.13111321157E+02 -0.11077220193E+03 -0.37540060629E+02  0.11776721112E+03  0.41800000000E+01 0.  1.
         -5    1    3    3    0  502  0.95371472582E+02 -0.49523368471E+02 -0.45285301627E+02  0.11668981425E+03  0.41800000000E+01 0.  1.
        -11    1    1    2    0    0 -0.31473782812E+02  0.98970484918E+02 -0.38937645134E+03  0.40298855660E+03  0.00000000000E+00 0.  1.
         11    1    1    2    0    0 -0.50786368613E+02  0.61325085483E+02 -0.10912813218E+03  0.13508875075E+03  0.00000000000E+00 0. -1.
</event>
<event>
 7    1  0.3151015E-009  0.7437218E+02  0.7561462E-02  0.1345826E+00
         -1   -1    0    0    0  501 -0.00000000000E+00  0.00000000000E+00  0.63662412692E+03  0.63662412692E+03  0.00000000000E+00 0.  1.
          1   -1    0    0  501    0  0.00000000000E+00 -0.00000000000E+00 -0.19866025354E+02  0.19866025354E+02  0.00000000000E+00 0. -1.
         25    2    1    2    0    0 -0.78184550617E+01 -0.30961493427E+02  0.36496910371E+03  0.38713135269E+03  0.12509394575E+03 0.  0.
          5    1    3    3  502    0 -0.26104857376E+02  0.48275874082E+01  0.33680976789E+03  0.33788024702E+03  0.41800000000E+01 0. -1.
         -5    1    3    3    0  502  0.18286402314E+02 -0.35789080835E+02  0.28159335814E+02  0.49251105674E+02  0.41800000000E+01 0. -1.
        -11    1    1    2    0    0 -0.33121123312E+02  0.21363228770E+02  0.52310345510E+02  0.65496325090E+02  0.00000000000E+00 0.  1.
         11    1    1    2    0    0  0.40939578374E+02  0.95982646574E+01  0.19947865235E+03  0.20386247449E+03  0.00000000000E+00 0. -1.
</event>
<event>
 7    1  0.3151015E-009  0.1256288E+03  0.7561462E-02  0.1234090E+00
          2   -1    0    0  501    0  0.00000000000E+00  0.00000000000E+00  0.16287203641E+04  0.16287203641E+04  0.00000000000E+00 0.  1.
         -2   -1    0    0    0  501 -0.00000000000E+00 -0.00000000000E+00 -0.10677665268E+02  0.10677665268E+02  0.00000000000E+00 0. -1.
         25    2    1    2    0    0 -0.11737153679E+02  0.68421598283E+02  0.10542795148E+04  0.10639416738E+04  0.12508922379E+03 0.  0.
          5    1    3    3  502    0 -0.52376261032E+02 -0.47555201481E+01  0.26322590152E+03  0.26846086367E+03  0.41800000000E+01 0.  1.
         -5    1    3    3    0  502  0.40639107353E+02  0.73177118431E+02  0.79105361331E+03  0.79548081011E+03  0.41800000000E+01 0.  1.
        -11    1    1    2    0    0 -0.35905897210E+02 -0.63819222509E+01  0.15051387000E+03  0.15486893636E+03  0.00000000000E+00 0. -1.
         11    1    1    2    0    0  0.47643050889E+02 -0.62039676032E+02  0.41324931403E+03  0.42058741926E+03  0.00000000000E+00 0.  1.
</event>
<event>
 7    1  0.3151015E-009  0.1129356E+03  0.7561462E-02  0.1255228E+00
         -3   -1    0    0    0  501 -0.00000000000E+00  0.00000000000E+00  0.22397534957E+03  0.22397534957E+03  0.00000000000E+00 0.  1.
          3   -1    0    0  501    0  0.00000000000E+00 -0.00000000000E+00 -0.91038078669E+02  0.91038078669E+02  0.00000000000E+00 0. -1.
         25    2    1    2    0    0  0.89610718483E+01 -0.89780917799E+02  0.54065765185E+02  0.16344168679E+03  0.12509661868E+03 0.  0.
          5    1    3    3  502    0 -0.14562503712E+02 -0.25421756877E+02 -0.38272468348E+02  0.48379608003E+02  0.41800000000E+01 0. -1.
         -5    1    3    3    0  502  0.23523575560E+02 -0.64359160922E+02  0.92338233534E+02  0.11506207878E+03  0.41800000000E+01 0. -1.
        -11    1    1    2    0    0  0.31585424000E+02  0.28612333410E+01  0.91887461794E+01  0.33019066035E+02  0.00000000000E+00 0. -1.
         11    1    1    2    0    0 -0.40546495848E+02  0.86919684458E+02  0.69682759533E+02  0.11855267541E+03  0.00000000000E+00 0.  1.
</event>
<event>
 7    1  0.3151015E-009  0.1065994E+03  0.7561462E-02  0.1267000E+00
         -1   -1    0    0    0  501 -0.00000000000E+00  0.00000000000E+00  0.40965478665E+02  0.40965478665E+02  0.00000000000E+00 0.  1.
          1   -1    0    0  501    0  0.00000000000E+00 -0.00000000000E+00 -0.81809799415E+03  0.81809799415E+03  0.00000000000E+00 0. -1.
         25    2    1    2    0    0 -0.18264260027E+02 -0.27982474827E+02 -0.74101882643E+03  0.75224560555E+03  0.12509175774E+03 0.  0.
          5    1    3    3  502    0  0.26619622064E+02  0.29401923514E+02 -0.10972288197E+03  0.11674613747E+03  0.41800000000E+01 0.  1.
         -5    1    3    3    0  502 -0.44883882092E+02 -0.57384398341E+02 -0.63129594446E+03  0.63549946808E+03  0.41800000000E+01 0.  1.
        -11    1    1    2    0    0 -0.38792290463E+02  0.16439656361E+02 -0.18357657617E+02  0.45957672851E+02  0.00000000000E+00 0. -1.
         11    1    1    2    0    0  0.57056550490E+02  0.11542818466E+02 -0.17756031441E+02  0.60860194418E+02  0.00000000000E+00 0.  1.
</event>
<event>
 7    1  0.3151015E-009  0.1503429E+03  0.7561462E-02  0.1200052E+00
         -1   -1    0    0    0  501 -0.00000000000E+00  0.00000000000E+00  0.37776463485E+02  0.37776463485E+02  0.00000000000E+00 0.  1.
          1   -1    0    0  501    0  0.00000000000E+00 -0.00000000000E+00 -0.63299999601E+03  0.63299999601E+03  0.00000000000E+00 0. -1.
         25    2    1    2    0    0  0.29904664591E+02 -0.10567632041E+03 -0.31464396785E+03  0.35596367659E+03  0.12509012307E+03 0.  0.
          5    1    3    3  502    0 -0.40739139092E+02 -0.65179659475E+02 -0.98899722989E+02  0.12532634627E+03  0.41800000000E+01 0.  1.
         -5    1    3    3    0  502  0.70643803682E+02 -0.40496660933E+02 -0.21574424486E+03  0.23063733031E+03  0.41800000000E+01 0.  1.
        -11    1    1    2    0    0 -0.22233804822E+02 -0.11303426812E+02 -0.60914405286E+02  0.65823052997E+02  0.00000000000E+00 0. -1.
         11    1    1    2    0    0 -0.76708597683E+01  0.11697974722E+03 -0.21966515940E+03  0.24898972991E+03  0.00000000000E+00 0.  1.
</event>
<event>
 7    1  0.3151015E-009  0.1355713E+03  0.7561462E-02  0.1219415E+00
         -2   -1    0    0    0  501 -0.00000000000E+00  0.00000000000E+00  0.16785591875E+03  0.16785591875E+03  0.00000000000E+00 0.  1.
          2   -1    0    0  501    0  0.00000000000E+00 -0.00000000000E+00 -0.17734368756E+03  0.17734368756E+03  0.00000000000E+00 0. -1.
         25    2    1    2    0    0 -0.35725366858E+02 -0.11211046623E+03 -0.52629966013E+02  0.17961213909E+03  0.12508216784E+03 0.  0.
          5    1    3    3  502    0 -0.63501720497E+02 -0.10708140707E+03 -0.73158508878E+02  0.14445946168E+03  0.41800000000E+01 0. -1.
         -5    1    3    3    0  502  0.27776353639E+02 -0.50290591623E+01  0.20528542865E+02  0.35152677419E+02  0.41800000000E+01 0. -1.
        -11    1    1    2    0    0  0.79284810154E+01  0.39607126547E+02  0.72157724704E+02  0.82694150452E+02  0.00000000000E+00 0.  1.
         11    1    1    2    0    0  0.27796885842E+02  0.72503339686E+02 -0.29015527499E+02  0.82893316764E+02  0.00000000000E+00 0. -1.
</event>
<event>
 7    1  0.3151015E-009  0.1330105E+03  0.7561462E-02  0.1223056E+00
          3   -1    0    0  501    0  0.00000000000E+00  0.00000000000E+00  0.14146659625E+03  0.14146659625E+03  0.00000000000E+00 0. -1.
         -3   -1    0    0    0  501 -0.00000000000E+00 -0.00000000000E+00 -0.15315712147E+03  0.15315712147E+03  0.00000000000E+00 0.  1.
         25    2    1    2    0    0 -0.87376179088E+02 -0.19916402878E+01  0.39783616340E+02  0.15768298983E+03  0.12507048352E+03 0.  0.
          5    1    3    3  502    0 -0.94402124494E+02 -0.46862216319E+02  0.37750026186E+02  0.11202841293E+03  0.41800000000E+01 0. -1.
         -5    1    3    3    0  502  0.70259454058E+01  0.44870576032E+02  0.20335901548E+01  0.45654576892E+02  0.41800000000E+01 0. -1.
        -11    1    1    2    0    0 -0.83818618390E-01  0.24600124309E+02 -0.38486526985E+02  0.45676973422E+02  0.00000000000E+00 0.  1.
         11    1    1    2    0    0  0.87459997707E+02 -0.22608484021E+02 -0.12987614573E+02  0.91263754475E+02  0.00000000000E+00 0. -1.
</event>
<event>
 7    1  0.3151015E-009  0.1081979E+03  0.7561462E-02  0.1263944E+00
          1   -1    0    0  501    0  0.00000000000E+00  0.00000000000E+00  0.75267169193E+03  0.75267169193E+03  0.00000000000E+00 0. -1.
         -1   -1    0    0    0  501 -0.00000000000E+00 -0.00000000000E+00 -0.25080813067E+02  0.25080813067E+02  0.00000000000E+00 0.  1.
         25    2    1    2    0    0 -0.78937676532E+02  0.19750993465E+02  0.47328923426E+03  0.49625786642E+03  0.12509161522E+03 0.  0.
          5    1    3    3  502    0 -0.67273422964E+02  0.57538753729E+02  0.42279982921E+03  0.43198795076E+03  0.41800000000E+01 0.  1.
         -5    1    3    3    0  502 -0.11664253568E+02 -0.37787760264E+02  0.50489405041E+02  0.64269915656E+02  0.41800000000E+01 0.  1.
        -11    1    1    2    0    0  0.31557577798E+02 -0.25103965029E+02  0.25350874524E+02  0.47631466656E+02  0.00000000000E+00 0.  1.
         11    1    1    2    0    0  0.47380098734E+02  0.53529715643E+01  0.22895077009E+03  0.23386317193E+03  0.00000000000E+00 0. -1.
</event>
<event>
 7    1  0.3151015E-009  0.1504324E+03  0.7561462E-02  0.1199943E+00
         -1   -1    0    0    0  501 -0.00000000000E+00  0.00000000000E+00  0.45382337216E+03  0.45382337216E+03  0.00000000000E+00 0.  1.
          1   -1    0    0  501    0  0.00000000000E+00 -0.00000000000E+00 -0.10704912575E+03  0.10704912575E+03  0.00000000000E+00 0. -1.
         25    2    1    2    0    0  0.16621365779E+02 -0.11567451201E+03 -0.13285739344E+02  0.17170078429E+03  0.12509111050E+03 0.  0.
          5    1    3    3  502    0  0.62532107285E+02 -0.48336077803E+02  0.22955922720E+02  0.82408055716E+02  0.41800000000E+01 0. -1.
         -5    1    3    3    0  502 -0.45910741506E+02 -0.67338434202E+02 -0.36241662063E+02  0.89292728570E+02  0.41800000000E+01 0. -1.
        -11    1    1    2    0    0 -0.43773953613E+02  0.38486855011E+02  0.92075911771E+02  0.10897417378E+03  0.00000000000E+00 0.  1.
         11    1    1    2    0    0  0.27152587834E+02  0.77187656995E+02  0.26798407398E+03  0.28019753983E+03  0.00000000000E+00 0. -1.
</event>
<event>
 7    1  0.3151015E-009  0.2294130E+03  0.7561462E-02  0.1127054E+00
          1   -1    0    0  501    0  0.00000000000E+00  0.00000000000E+00  0.31036283267E+03  0.31036283267E+03  0.00000000000E+00 0. -1.
         -1   -1    0    0    0  501 -0.00000000000E+00 -0.00000000000E+00 -0.21298200693E+03  0.21298200693E+03  0.00000000000E+00 0.  1.
         25    2    1    2    0    0 -0.19407676901E+03 -0.10464244896E+03  0.12820320554E+03  0.28407690396E+03  0.12509113100E+03 0.  0.
          5    1    3    3  502    0 -0.51361402903E+02 -0.77017152299E+02  0.38703499822E+01  0.92747439131E+02  0.41800000000E+01 0.  1.
         -5    1    3    3    0  502 -0.14271536611E+03 -0.27625296663E+02  0.12433285556E+03  0.19132946482E+03  0.41800000000E+01 0.  1.
        -11    1    1    2    0    0  0.76666451699E+02  0.47138318064E+02 -0.56181844387E+02  0.10609507757E+03  0.00000000000E+00 0.  1.
         11    1    1    2    0    0  0.11741031731E+03  0.57504130898E+02  0.25359464587E+02  0.13317285807E+03  0.00000000000E+00 0. -1.
</event>
<event>
 7    1  0.3151015E-009  0.1418327E+03  0.7561462E-02  0.1210884E+00
          2   -1    0    0  501    0  0.00000000000E+00  0.00000000000E+00  0.73639986629E+03  0.73639986629E+03  0.00000000000E+00 0. -1.
         -2   -1    0    0    0  501 -0.00000000000E+00 -0.00000000000E+00 -0.29787377216E+02  0.29787377216E+02  0.00000000000E+00 0.  1.
         25    2    1    2    0    0 -0.42479940100E+02  0.87870184189E+02  0.44636033507E+03  0.47371835437E+03  0.12508323614E+03 0.  0.
          5    1    3    3  502    0  0.45037551778E+01  0.10522140043E+03  0.34223523789E+03  0.35809811138E+03  0.41800000000E+01 0. -1.
         -5    1    3    3    0  502 -0.46983695278E+02 -0.17351216239E+02  0.10412509718E+03  0.11562024299E+03  0.41800000000E+01 0. -1.
        -11    1    1    2    0    0  0.67734848914E+02 -0.61436525542E+02  0.21912906715E+03  0.23744473988E+03  0.00000000000E+00 0.  1.
         11    1    1    2    0    0 -0.25254908814E+02 -0.26433658647E+02  0.41123086859E+02  0.55024149257E+02  0.00000000000E+00 0. -1.
</event>
<event>
 7    1  0.3151015E-009  0.1814792E+03  0.7561462E-02  0.1166379E+00
         -1   -1    0    0    0  501 -0.00000000000E+00  0.00000000000E+00  0.12003925804E+03  0.12003925804E+03  0.00000000000E+00 0.  1.
          1   -1    0    0  501    0  0.00000000000E+00 -0.00000000000E+00 -0.31103696959E+03  0.31103696959E+03  0.00000000000E+00 0. -1.
         25    2    1    2    0    0 -0.88987780772E+02  0.12920469880E+03 -0.13321423036E+03  0.24084483245E+03  0.12509005888E+03 0.  0.
          5    1    3    3  502    0 -0.11306248099E+03  0.13167434000E+03 -0.12812044429E+03  0.21576277961E+03  0.41800000000E+01 0.  1.
         -5    1    3    3    0  502  0.24074700216E+02 -0.24696412004E+01 -0.50937860680E+01  0.25082052840E+02  0.41800000000E+01 0.  1.
        -11    1    1    2    0    0  0.79709590003E+02 -0.73833663180E+02  0.13931672057E+01  0.10865987977E+03  0.00000000000E+00 0.  1.
         11    1    1    2    0    0  0.92781907686E+01 -0.55371035619E+02 -0.59176648404E+02  0.81571515407E+02  0.00000000000E+00 0. -1.
</event>
<event>
 7    1  0.3151015E-009  0.1008669E+03  0.7561462E-02  0.1278483E+00
         -2   -1    0    0    0  501 -0.00000000000E+00  0.00000000000E+00  0.40147820670E+02  0.40147820670E+02  0.00000000000E+00 0.  1.
          2   -1    0    0  501    0  0.00000000000E+00 -0.00000000000E+00 -0.35352877823E+03  0.35352877823E+03  0.00000000000E+00 0. -1.
         25    2    1    2    0    0  0.34061682048E+02 -0.16735226894E+02 -0.22936755638E+03  0.26400932898E+03  0.12510469163E+03 0.  0.
          5    1    3    3  502    0  0.30833056911E+02  0.52602237989E+02 -0.11191041519E+03  0.12751112214E+03  0.41800000000E+01 0.  1.
         -5    1    3    3    0  502  0.32286251368E+01 -0.69337464883E+02 -0.11745714118E+03  0.13649820684E+03  0.41800000000E+01 0.  1.
        -11    1    1    2    0    0 -0.56503995634E+01  0.36201230589E+02  0.23250354156E+01  0.36713238771E+02  0.00000000000E+00 0.  1.
         11    1    1    2    0    0 -0.28411282485E+02 -0.19466003695E+02 -0.86338436600E+02  0.92954031149E+02  0.00000000000E+00 0. -1.
</event>
<event>
 7    1  0.3151015E-009  0.7192498E+02  0.7561462E-02  0.1353667E+00
          1   -1    0    0  501    0  0.00000000000E+00  0.00000000000E+00  0.77882650072E+03  0.77882650072E+03  0.00000000000E+00 0. -1.
         -1   -1    0    0    0  501 -0.00000000000E+00 -0.00000000000E+00 -0.16189080235E+02  0.16189080235E+02  0.00000000000E+00 0.  1.
         25    2    1    2    0    0 -0.15010742308E+01 -0.30564946545E+02  0.44072527586E+03  0.45915605174E+03  0.12509613057E+03 0.  0.
          5    1    3    3  502    0  0.45538407285E+01  0.75752065052E+01  0.40868915392E+03  0.40880608869E+03  0.41800000000E+01 0. -1.
         -5    1    3    3    0  502 -0.60549149593E+01 -0.38140153050E+02  0.32036121943E+02  0.50349963049E+02  0.41800000000E+01 0. -1.
        -11    1    1    2    0    0 -0.27119861184E+02 -0.22302044789E+02  0.10179100218E+03  0.10767672078E+03  0.00000000000E+00 0. -1.
         11    1    1    2    0    0  0.28620935415E+02  0.52866991334E+02  0.22012114244E+03  0.22818280844E+03  0.00000000000E+00 0.  1.
</event>
<event>
 7    1  0.3151015E-009  0.9415785E+02  0.7561462E-02  0.1293084E+00
         -1   -1    0    0    0  501 -0.00000000000E+00  0.00000000000E+00  0.25211999391E+02  0.25211999391E+02  0.00000000000E+00 0.  1.
          1   -1    0    0  501    0  0.00000000000E+00 -0.00000000000E+00 -0.61999714707E+03  0.61999714707E+03  0.00000000000E+00 0. -1.
         25    2    1    2    0    0 -0.57305701007E+02  0.24328761433E+02 -0.31230126461E+03  0.34213512255E+03  0.12509408542E+03 0.  0.
          5    1    3    3  502    0 -0.20766448973E+01  0.27889922269E+02 -0.36253837205E+01  0.28509227021E+02  0.41800000000E+01 0.  1.
         -5    1    3    3    0  502 -0.55229056110E+02 -0.35611608361E+01 -0.30867588089E+03  0.31362589553E+03  0.41800000000E+01 0.  1.
        -11    1    1    2    0    0 -0.41699719154E+01  0.25230105383E+02 -0.35339841986E+02  0.43621684000E+02  0.00000000000E+00 0.  1.
         11    1    1    2    0    0  0.61475672923E+02 -0.49558866816E+02 -0.24714404108E+03  0.25945233991E+03  0.00000000000E+00 0. -1.
</event>
<event>
 7    1  0.3151015E-009  0.1021921E+03  0.7561462E-02  0.1275753E+00
          2   -1    0    0  501    0  0.00000000000E+00  0.00000000000E+00  0.27338136174E+03  0.27338136174E+03  0.00000000000E+00 0. -1.
         -2   -1    0    0    0  501 -0.00000000000E+00 -0.00000000000E+00 -0.90123719839E+02  0.90123719839E+02  0.00000000000E+00 0.  1.
         25    2    1    2    0    0 -0.22827251134E+02  0.75531152839E+02  0.44520151454E+01  0.14795557238E+03  0.12507994450E+03 0.  0.
          5    1    3    3  502    0 -0.35689819475E+02  0.65414843330E+02 -0.50732184877E+02  0.90244622690E+02  0.41800000000E+01 0.  1.
         -5    1    3    3    0  502  0.12862568341E+02  0.10116309510E+02  0.55184200023E+02  0.57710949694E+02  0.41800000000E+01 0.  1.
        -11    1    1    2    0    0  0.51459270886E+02 -0.63677566690E+02  0.15880461606E+03  0.17866671526E+03  0.00000000000E+00 0. -1.
         11    1    1    2    0    0 -0.28632019753E+02 -0.11853586149E+02  0.20001010697E+02  0.36882793937E+02  0.00000000000E+00 0.  1.
</event>
<event>
 7    1  0.3151015E-009  0.1176676E+03  0.7561462E-02  0.1246995E+00
          2   -1    0    0  501    0  0.00000000000E+00  0.00000000000E+00  0.46374469529E+03  0.46374469529E+03  0.00000000000E+00 0. -1.
         -2   -1    0    0    0  501 -0.00000000000E+00 -0.00000000000E+00 -0.54515851973E+02  0.54515851973E+02  0.00000000000E+00 0.  1.
         25    2    1    2    0    0  0.13922568683E+02 -0.10977703108E+03  0.27795780357E+03  0.32428406621E+03  0.12511906553E+03 0.  0.
          5    1    3    3  502    0  0.20304821459E+02 -0.54438845162E+02  0.25872888231E+03  0.26520554402E+03  0.41800000000E+01 0.  1.
         -5    1    3    3    0  502 -0.63822527757E+01 -0.55338185914E+02  0.19228921257E+02  0.59078522184E+02  0.41800000000E+01 0.  1.
        -11    1    1    2    0    0 -0.32255283784E+02  0.79937800339E+02  0.13347083059E+03  0.15888649368E+03  0.00000000000E+00 0. -1.
         11    1    1    2    0    0  0.18332715101E+02  0.29839230737E+02 -0.21997908508E+01  0.35089987372E+02  0.00000000000E+00 0.  1.
</event>
<event>
 7    1  0.3151015E-009  0.5953338E+02  0.7561462E-02  0.1399800E+00
         -3   -1    0    0    0  501 -0.00000000000E+00  0.00000000000E+00  0.24097128985E+02  0.24097128985E+02  0.00000000000E+00 0.  1.
          3   -1    0    0  501    0  0.00000000000E+00 -0.00000000000E+00 -0.70710688442E+03  0.70710688442E+03  0.00000000000E+00 0. -1.
         25    2    1    2    0    0  0.17167930197E+02  0.45982384272E+02 -0.51879676035E+03  0.53591729762E+03  0.12509258112E+03 0.  0.
          5    1    3    3  502    0 -0.15034111669E+02  0.17761544436E+02 -0.10612336907E+02  0.25915074166E+02  0.41800000000E+01 0.  1.
         -5    1    3    3    0  502  0.32202041866E+02  0.28220839836E+02 -0.50818442344E+03  0.51000222346E+03  0.41800000000E+01 0.  1.
        -11    1    1    2    0    0 -0.19730808667E+02 -0.28087315838E+02 -0.17215343265E+03  0.17554203626E+03  0.00000000000E+00 0. -1.
         11    1    1    2    0    0  0.25628784702E+01 -0.17895068433E+02  0.79404375702E+01  0.19744679514E+02  0.00000000000E+00 0.  1.
</event>
<event>
 7    1  0.3151015E-009  0.1143284E+03  0.7561462E-02  0.1252758E+00
         -2   -1    0    0    0  501 -0.00000000000E+00  0.00000000000E+00  0.66174565378E+02  0.66174565378E+02  0.00000000000E+00 0. -1.
          2   -1    0    0  501    0  0.00000000000E+00 -0.00000000000E+00 -0.28495198757E+03  0.28495198757E+03  0.00000000000E+00 0.  1.
         25    2    1    2    0    0  0.10410371496E+02  0.49779970047E+02 -0.20650609649E+03  0.24673803650E+03  0.12509384285E+03 0.  0.
          5    1    3    3  502    0  0.62439779738E+02  0.38940182056E+02 -0.76518644282E+02  0.10624330188E+03  0.41800000000E+01 0.  1.
         -5    1    3    3    0  502 -0.52029408241E+02  0.10839787991E+02 -0.12998745220E+03  0.14049473462E+03  0.41800000000E+01 0.  1.
        -11    1    1    2    0    0 -0.93139712075E+01 -0.75411972325E+02 -0.82918932493E-01  0.75985015004E+02  0.00000000000E+00 0.  1.
         11    1    1    2    0    0 -0.10964002889E+01  0.25632002278E+02 -0.12188406773E+02  0.28403501440E+02  0.00000000000E+00 0. -1.
</event>
<event>
 7    1  0.3151015E-009  0.1093307E+03  0.7561462E-02  0.1261814E+00
         -2   -1    0    0    0  501 -0.00000000000E+00  0.00000000000E+00  0.63043107226E+02  0.63043107226E+02  0.00000000000E+00 0.  1.
          2   -1    0    0  501    0  0.00000000000E+00 -0.00000000000E+00 -0.30381040195E+03  0.30381040195E+03  0.00000000000E+00 0. -1.
         25    2    1    2    0    0 -0.59837323291E+02  0.38741197928E+02 -0.60080445963E+02  0.15601002647E+03  0.12509229671E+03 0.  0.
          5    1    3    3  502    0 -0.58632319362E+02 -0.21426668589E+02  0.10199574121E+02  0.63390493868E+02  0.41800000000E+01 0.  1.
         -5    1    3    3    0  502 -0.12050039292E+01  0.60167866518E+02 -0.70280020083E+02  0.92619532598E+02  0.41800000000E+01 0.  1.
        -11    1    1    2    0    0  0.60558914936E+02 -0.53613995613E+02 -0.99136479130E+02  0.12794484827E+03  0.00000000000E+00 0.  1.
         11    1    1    2    0    0 -0.72159164484E+00  0.14872797685E+02 -0.81550369627E+02  0.82898634439E+02  0.00000000000E+00 0. -1.
</event>
<event>
 7    1  0.3151015E-009  0.1048407E+03  0.7561462E-02  0.1270434E+00
         -1   -1    0    0    0  501 -0.00000000000E+00  0.00000000000E+00  0.11768712214E+03  0.11768712214E+03  0.00000000000E+00 0.  1.
          1   -1    0    0  501    0  0.00000000000E+00 -0.00000000000E+00 -0.11922144397E+03  0.11922144397E+03  0.00000000000E+00 0. -1.
         25    2    1    2    0    0  0.20426941155E+02  0.13224500484E+02 -0.42474338521E+02  0.13433991965E+03  0.12510394574E+03 0.  0.
          5    1    3    3  502    0 -0.20155716023E+02  0.56334196403E+02  0.22542247651E+01  0.60019567660E+02  0.41800000000E+01 0. -1.
         -5    1    3    3    0  502  0.40582657178E+02 -0.43109695919E+02 -0.44728563286E+02  0.74320351987E+02  0.41800000000E+01 0. -1.
        -11    1    1    2    0    0 -0.45263324528E+02 -0.35081020899E+02  0.39279496674E+02  0.69442965329E+02  0.00000000000E+00 0.  1.
         11    1    1    2    0    0  0.24836383373E+02  0.21856520415E+02  0.16605200110E+01  0.33125681131E+02  0.00000000000E+00 0. -1.
</event>
<event>
 7    1  0.3151015E-009  0.1119601E+03  0.7561462E-02  0.1256983E+00
          1   -1    0    0  501    0  0.00000000000E+00  0.00000000000E+00  0.31725439666E+03  0.31725439666E+03  0.00000000000E+00 0. -1.
         -1   -1    0    0    0  501 -0.00000000000E+00 -0.00000000000E+00 -0.72113955907E+02  0.72113955907E+02  0.00000000000E+00 0.  1.
         25    2    1    2    0    0  0.74407368659E+02 -0.18932840333E+02  0.22444163568E+03  0.26817186711E+03  0.12508874261E+03 0.  0.
          5    1    3    3  502    0 -0.34712623612E+02 -0.13329433628E+02  0.58629869083E+02  0.69552670600E+02  0.41800000000E+01 0.  1.
         -5    1    3    3    0  502  0.10911999227E+03 -0.56034067049E+01  0.16581176660E+03  0.19861919651E+03  0.41800000000E+01 0.  1.
        -11    1    1    2    0    0 -0.43854173345E+02  0.15023512212E+02  0.57076515218E+02  0.73529742474E+02  0.00000000000E+00 0. -1.
         11    1    1    2    0    0 -0.30553195314E+02  0.39093281207E+01 -0.36377710152E+02  0.47666742978E+02  0.00000000000E+00 0.  1.
</event>
<event>
 7    1  0.3151015E-009  0.7676905E+02  0.7561462E-02  0.1338479E+00
         -1   -1    0    0    0  501 -0.00000000000E+00  0.00000000000E+00  0.88352028803E+02  0.88352028803E+02  0.00000000000E+00 0.  1.
          1   -1    0    0  501    0  0.00000000000E+00 -0.00000000000E+00 -0.22337034703E+03  0.22337034703E+03  0.00000000000E+00 0. -1.
         25    2    1    2    0    0  0.16382401064E+02  0.35581566752E+02 -0.15868026586E+03  0.20582351978E+03  0.12509781600E+03 0.  0.
          5    1    3    3  502    0  0.43838625525E+02 -0.54146495427E+01 -0.53437272725E+01  0.44689722965E+02  0.41800000000E+01 0.  1.
         -5    1    3    3    0  502 -0.27456224461E+02  0.40996216295E+02 -0.15333653859E+03  0.16113379682E+03  0.41800000000E+01 0.  1.
        -11    1    1    2    0    0  0.12716319868E+02 -0.26123376883E+02 -0.31479002272E+02  0.42837637596E+02  0.00000000000E+00 0. -1.
         11    1    1    2    0    0 -0.29098720932E+02 -0.94581898690E+01  0.55140949907E+02  0.63061218448E+02  0.00000000000E+00 0.  1.
</event>
<event>
 7    1  0.3151015E-009  0.9534016E+02  0.7561462E-02  0.1290412E+00
          2   -1    0    0  501    0  0.00000000000E+00  0.00000000000E+00  0.13831011033E+03  0.13831011033E+03  0.00000000000E+00 0. -1.
         -2   -1    0    0    0  501 -0.00000000000E+00 -0.00000000000E+00 -0.10355261277E+03  0.10355261277E+03  0.00000000000E+00 0.  1.
         25    2    1    2    0    0  0.50835444925E+02 -0.13085615258E+02  0.13908427744E+02  0.13636943167E+03  0.12509077402E+03 0.  0.
          5    1    3    3  502    0 -0.75165465754E+01 -0.54044682248E+02 -0.18741485779E+02  0.57844981121E+02  0.41800000000E+01 0. -1.
         -5    1    3    3    0  502  0.58351991501E+02  0.40959066990E+02  0.32649913522E+02  0.78524450548E+02  0.41800000000E+01 0. -1.
        -11    1    1    2    0    0 -0.44300491180E+02  0.25061406630E+02  0.51213938160E+02  0.72204397947E+02  0.00000000000E+00 0. -1.
         11    1    1    2    0    0 -0.65349537455E+01 -0.11975791372E+02 -0.30364868349E+02  0.33288893483E+02  0.00000000000E+00 0.  1.
</event>
<event>
 7    1  0.3151015E-009  0.1603837E+03  0.7561462E-02  0.1188264E+00
         -1   -1    0    0    0  501 -0.00000000000E+00  0.00000000000E+00  0.13599546203E+03  0.13599546203E+03  0.00000000000E+00 0.  1.
          1   -1    0    0  501    0  0.00000000000E+00 -0.00000000000E+00 -0.55645342633E+03  0.55645342633E+03  0.00000000000E+00 0. -1.
         25    2    1    2    0    0  0.41223107330E+02  0.12895903760E+03 -0.48346042741E+03  0.51740835053E+03  0.12509052073E+03 0.  0.
          5    1    3    3  502    0 -0.26083334537E+02  0.11060925541E+03 -0.32119977727E+03  0.34073672688E+03  0.41800000000E+01 0. -1.
         -5    1    3    3    0  502  0.67306441867E+02  0.18349782191E+02 -0.16226065013E+03  0.17667162366E+03  0.41800000000E+01 0. -1.
        -11    1    1    2    0    0 -0.23674172198E+02 -0.10392269747E+03  0.17705756236E+01  0.10659985186E+03  0.00000000000E+00 0. -1.
         11    1    1    2    0    0 -0.17548935132E+02 -0.25036340125E+02  0.61231887486E+02  0.68440685971E+02  0.00000000000E+00 0.  1.
</event>
<event>
 7    1  0.3151015E-009  0.1054807E+03  0.7561462E-02  0.1269175E+00
          1   -1    0    0  501    0  0.00000000000E+00  0.00000000000E+00  0.65293156778E+03  0.65293156778E+03  0.00000000000E+00 0. -1.
         -1   -1    0    0    0  501 -0.00000000000E+00 -0.00000000000E+00 -0.24712078438E+02  0.24712078438E+02  0.00000000000E+00 0.  1.
         25    2    1    2    0    0 -0.40150701477E+02  0.25343951460E+02  0.37194224136E+03  0.39527762305E+03  0.12509585795E+03 0.  0.
          5    1    3    3  502    0  0.39552921479E+02  0.23012696084E+02  0.76538365071E+02  0.89272680627E+02  0.41800000000E+01 0. -1.
         -5    1    3    3    0  502 -0.79703622956E+02  0.23312553764E+01  0.29540387629E+03  0.30600494242E+03  0.41800000000E+01 0. -1.
        -11    1    1    2    0    0  0.35915288300E+02  0.18990494656E+02  0.26946989160E+02  0.48751277376E+02  0.00000000000E+00 0.  1.
         11    1    1    2    0    0  0.42354131772E+01 -0.44334446117E+02  0.22933025883E+03  0.23361474579E+03  0.00000000000E+00 0. -1.
</event>
<event>
 7    1  0.3151015E-009  0.1223463E+03  0.7561462E-02  0.1239276E+00
          1   -1    0    0  501    0  0.00000000000E+00  0.00000000000E+00  0.12803137946E+04  0.12803137946E+04  0.00000000000E+00 0.  1.
         -1   -1    0    0    0  501 -0.00000000000E+00 -0.00000000000E+00 -0.14541235022E+02  0.14541235022E+02  0.00000000000E+00 0. -1.
         25    2    1    2    0    0 -0.42554496995E+02  0.40895355448E+02  0.97317520242E+03  0.98295526692E+03  0.12509103423E+03 0.  0.
          5    1    3    3  502    0 -0.77396261574E+02  0.60065757056E+02  0.66264415643E+03  0.66986030404E+03  0.41800000000E+01 0. -1.
         -5    1    3    3    0  502  0.34841764579E+02 -0.19170401608E+02  0.31053104599E+03  0.31309496288E+03  0.41800000000E+01 0. -1.
        -11    1    1    2    0    0 -0.16301359838E+02  0.17375357971E+02  0.88168818466E+02  0.91331144452E+02  0.00000000000E+00 0.  1.
         11    1    1    2    0    0  0.58855856833E+02 -0.58270713419E+02  0.20442853870E+03  0.22056861826E+03  0.00000000000E+00 0. -1.
</event>
<event>
 7    1  0.3151015E-009  0.2174160E+03  0.7561462E-02  0.1135824E+00
          3   -1    0    0  501    0  0.00000000000E+00  0.00000000000E+00  0.38058064101E+02  0.38058064101E+02  0.00000000000E+00 0. -1.
         -3   -1    0    0    0  501 -0.00000000000E+00 -0.00000000000E+00 -0.13721892575E+04  0.13721892575E+04  0.00000000000E+00 0.  1.
         25    2    1    2    0    0  0.15881970698E+03 -0.10118974728E+03 -0.47688740322E+03  0.52776163224E+03  0.12509069045E+03 0.  0.
          5    1    3    3  502    0 -0.95779017664E+01 -0.47322698068E+02 -0.85676950329E+02  0.98433663816E+02  0.41800000000E+01 0. -1.
         -5    1    3    3    0  502  0.16839760874E+03 -0.53867049215E+02 -0.39121045289E+03  0.42932796842E+03  0.41800000000E+01 0. -1.
        -11    1    1    2    0    0 -0.76940609930E+02  0.10183694098E+03 -0.53064997819E+03  0.54578385773E+03  0.00000000000E+00 0.  1.
         11    1    1    2    0    0 -0.81879097047E+02 -0.64719369635E+00 -0.32659381199E+03  0.33670183163E+03  0.00000000000E+00 0. -1.
</event>
<event>
 6    1  0.3151015E-009  0.1027993E+03  0.7561462E-02  0.1274517E+00
         -1   -1    0    0    0  501 -0.00000000000E+00  0.00000000000E+00  0.21933172876E+02  0.21933172876E+02  0.00000000000E+00 0.  1.
          1   -1    0    0  501    0  0.00000000000E+00 -0.00000000000E+00 -0.59514177583E+03  0.59514177583E+03  0.00000000000E+00 0. -1.
          5    1    1    2  502    0 -0.38192596131E+02 -0.40386459374E+02 -0.11147028541E+03  0.12463080450E+03  0.41800000000E+01 0. -1.
         -5    1    1    2    0  502  0.49669904178E-01  0.69170366831E+02 -0.30656101011E+03  0.31429550973E+03  0.41800000000E+01 0. -1.
        -11    1    1    2    0    0  0.28283360859E+02  0.17485139424E+02 -0.31790216374E+02  0.46003222270E+02  0.00000000000E+00 0.  1.
         11    1    1    2    0    0  0.98595653682E+01 -0.46269046881E+02 -0.12338709106E+03  0.13214541221E+03  0.00000000000E+00 0. -1.
</event>
<event>
 7    1  0.3151015E-009  0.5584533E+02  0.7561462E-02  0.1416143E+00
         -1   -1    0    0    0  501 -0.00000000000E+00  0.00000000000E+00  0.53394382509E+02  0.53394382509E+02  0.00000000000E+00 0.  1.
          1   -1    0    0  501    0  0.00000000000E+00 -0.00000000000E+00 -0.27158496182E+03  0.27158496182E+03  0.00000000000E+00 0. -1.
         25    2    1    2    0    0 -0.67089771932E+01  0.17344949152E+02 -0.62545167140E+02  0.14108561524E+03  0.12508954896E+03 0.  0.
          5    1    3    3  502    0 -0.98803669312E+01 -0.34246077518E+00  0.37678739683E+02  0.39177783937E+02  0.41800000000E+01 0. -1.
         -5    1    3    3    0  502  0.31713897380E+01  0.17687409927E+02 -0.10022390682E+03  0.10190783131E+03  0.41800000000E+01 0. -1.
        -11    1    1    2    0    0 -0.25442334023E+02  0.20626426834E+02 -0.17657075624E+02  0.37209328992E+02  0.00000000000E+00 0. -1.
         11    1    1    2    0    0  0.32151311216E+02 -0.37971375986E+02 -0.13798833655E+03  0.14668440009E+03  0.00000000000E+00 0.  1.
</event>
<event>
 7    1  0.3151015E-009  0.2707664E+03  0.7561462E-02  0.1100842E+00
          2   -1    0    0  501    0  0.00000000000E+00  0.00000000000E+00  0.15419013369E+04  0.15419013369E+04  0.00000000000E+00 0. -1.
         -2   -1    0    0    0  501 -0.00000000000E+00 -0.00000000000E+00 -0.54391576010E+02  0.54391576010E+02  0.00000000000E+00 0.  1.
         25    2    1    2    0    0  0.16343555370E+03 -0.20743999930E+03  0.88090248404E+03  0.92810486720E+03  0.12508766767E+03 0.  0.
          5    1    3    3  502    0  0.15825244316E+03 -0.20881310549E+03  0.88294321596E+03  0.92100648412E+03  0.41800000000E+01 0. -1.
         -5    1    3    3    0  502  0.51831105492E+01  0.13731061861E+01 -0.20407319157E+01  0.70983830775E+01  0.41800000000E+01 0. -1.
        -11    1    1    2    0    0 -0.74990854094E+02  0.44233262257E+02  0.27127428889E+03  0.28490340381E+03  0.00000000000E+00 0. -1.
         11    1    1    2    0    0 -0.88444699610E+02  0.16320673705E+03  0.33533298796E+03  0.38328464190E+03  0.00000000000E+00 0.  1.
</event>
<event>
 7    1  0.3151015E-009  0.1632259E+03  0.7561462E-02  0.1185102E+00
         -2   -1    0    0    0  501 -0.00000000000E+00  0.00000000000E+00  0.60609267250E+02  0.60609267250E+02  0.00000000000E+00 0.  1.
          2   -1    0    0  501    0  0.00000000000E+00 -0.00000000000E+00 -0.81608640097E+03  0.81608640097E+03  0.00000000000E+00 0. -1.
         25    2    1    2    0    0 -0.13770560368E+03 -0.54673452718E+02 -0.14551019279E+03  0.24242935796E+03  0.12508700044E+03 0.  0.
          5    1    3    3  502    0 -0.14311806466E+03 -0.58518785082E+02 -0.75748990635E+02  0.17222836765E+03  0.41800000000E+01 0. -1.
         -5    1    3    3    0  502  0.54124609800E+01  0.38453323640E+01 -0.69761202158E+02  0.70200990317E+02  0.41800000000E+01 0. -1.
        -11    1    1    2    0    0  0.48011667008E+02  0.56593514691E+02 -0.17403725079E+03  0.18920071548E+03  0.00000000000E+00 0.  1.
         11    1    1    2    0    0  0.89693936675E+02 -0.19200619722E+01 -0.43592969013E+03  0.44506559478E+03  0.00000000000E+00 0. -1.
</event>
<event>
 7    1  0.3151015E-009  0.1306480E+03  0.7561462E-02  0.1226497E+00
         -1   -1    0    0    0  501 -0.00000000000E+00  0.00000000000E+00  0.48613237983E+02  0.48613237983E+02  0.00000000000E+00 0.  1.
          1   -1    0    0  501    0  0.00000000000E+00 -0.00000000000E+00 -0.55857722644E+03  0.55857722644E+03  0.00000000000E+00 0. -1.
         25    2    1    2    0    0  0.16213812900E+02  0.95383888953E+02 -0.13317021222E+03  0.20675184708E+03  0.12510414400E+03 0.  0.
          5    1    3    3  502    0 -0.30014654271E+02  0.10287313931E+03 -0.11238969493E+03  0.15534696067E+03  0.41800000000E+01 0. -1.
         -5    1    3    3    0  502  0.46228467171E+02 -0.74892503553E+01 -0.20780517296E+02  0.51404886411E+02  0.41800000000E+01 0. -1.
        -11    1    1    2    0    0  0.13998044344E+02 -0.54071856492E+02 -0.31632330248E+03  0.32121665991E+03  0.00000000000E+00 0. -1.
         11    1    1    2    0    0 -0.30211857244E+02 -0.41312032461E+02 -0.60470473747E+02  0.79221957432E+02  0.00000000000E+00 0.  1.
</event>
<event>
 7    1  0.3179144E-009  0.9637471E+02  0.7561462E-02  0.1288110E+00
          2   -1    0    0  501    0  0.00000000000E+00  0.00000000000E+00  0.98858049227E+03  0.98858049227E+03  0.00000000000E+00 0. -1.
         -2   -1    0    0    0  501 -0.00000000000E+00 -0.00000000000E+00 -0.15747462100E+02  0.15747462100E+02  0.00000000000E+00 0.  1.
         25    2    1    2    0    0  0.20775323230E+02 -0.20353464530E+02  0.76226956763E+03  0.77301197640E+03  0.12508694712E+03 0.  0.
          5    1    3    3  502    0  0.66391718047E+02 -0.40359672005E+02  0.50059968293E+03  0.50661057855E+03  0.41800000000E+01 0. -1.
         -5    1    3    3    0  502 -0.45616394817E+02  0.20006207475E+02  0.26166988471E+03  0.26640139785E+03  0.41800000000E+01 0. -1.
        -11    1    1    2    0    0  0.18637056193E+02 -0.33900043628E+01  0.35776608540E+01  0.19277750136E+02  0.00000000000E+00 0.  1.
         11    1    1    2    0    0 -0.39412379423E+02  0.23743468893E+02  0.20698580168E+03  0.21203822783E+03  0.00000000000E+00 0. -1.
</event>
<event>
 7    1  0.3151015E-009  0.9856251E+02  0.7561462E-02  0.1283348E+00
         -3   -1    0    0    0  501 -0.00000000000E+00  0.00000000000E+00  0.11303342678E+03  0.11303342678E+03  0.00000000000E+00 0. -1.
          3   -1    0    0  501    0  0.00000000000E+00 -0.00000000000E+00 -0.12525585145E+03  0.12525585145E+03  0.00000000000E+00 0.  1.
         25    2    1    2    0    0 -0.17942980871E+01 -0.52813197695E+02  0.13149764466E+01  0.13579657405E+03  0.12508607838E+03 0.  0.
          5    1    3    3  502    0 -0.52051722245E+02 -0.33444365930E+02 -0.34517479754E+02  0.70970671476E+02  0.41800000000E+01 0.  1.
         -5    1    3    3    0  502  0.50257424158E+02 -0.19368831766E+02  0.35832456201E+02  0.64825902573E+02  0.41800000000E+01 0.  1.
        -11    1    1    2    0    0  0.30890225874E+02  0.36193525573E+02  0.23056529157E+02  0.52875144300E+02  0.00000000000E+00 0. -1.
         11    1    1    2    0    0 -0.29095927787E+02  0.16619672122E+02 -0.36593930278E+02  0.49617559880E+02  0.00000000000E+00 0.  1.
</event>
<event>
 7    1  0.3151015E-009  0.2165738E+03  0.7561462E-02  0.1136463E+00
         -2   -1    0    0    0  501 -0.00000000000E+00  0.00000000000E+00  0.51895412564E+02  0.51895412564E+02  0.00000000000E+00 0.  1.
          2   -1    0    0  501    0  0.00000000000E+00 -0.00000000000E+00 -0.12294200449E+04  0.12294200449E+04  0.00000000000E+00 0. -1.
         25    2    1    2    0    0 -0.21271224513E+03  0.22932146981E+02 -0.40736581170E+03  0.47682984346E+03  0.12508961781E+03 0.  0.
          5    1    3    3  502    0 -0.12283940203E+03 -0.99529575515E+01 -0.11295419959E+03  0.16722650406E+03  0.41800000000E+01 0.  1.
         -5    1    3    3    0  502 -0.89872843103E+02  0.32885104532E+02 -0.29441161211E+03  0.30960333941E+03  0.41800000000E+01 0.  1.
        -11    1    1    2    0    0  0.64404555438E+02 -0.39487217732E+01 -0.10931246502E+03  0.12693602394E+03  0.00000000000E+00 0.  1.
         11    1    1    2    0    0  0.14830768969E+03 -0.18983425207E+02 -0.66084635559E+03  0.67754959004E+03  0.00000000000E+00 0. -1.
</event>
<event>
 7    1  0.3151015E-009  0.1990722E+03  0.7561462E-02  0.1150524E+00
          2   -1    0    0  501    0  0.00000000000E+00  0.00000000000E+00  0.98802580321E+02  0.98802580321E+02  0.00000000000E+00 0. -1.
         -2   -1    0    0    0  501 -0.00000000000E+00 -0.00000000000E+00 -0.48653737363E+03  0.48653737363E+03  0.00000000000E+00 0.  1.
         25    2    1    2    0    0 -0.51085564604E+02  0.17768105768E+03 -0.14410100595E+03  0.26569239772E+03  0.12508819737E+03 0.  0.
          5    1    3    3  502    0  0.27801341211E+02  0.88485225525E+02 -0.22675873178E+02  0.95573099425E+02  0.41800000000E+01 0.  1.
         -5    1    3    3    0  502 -0.78886905815E+02  0.89195832151E+02 -0.12142513277E+03  0.17011929829E+03  0.41800000000E+01 0.  1.
        -11    1    1    2    0    0 -0.20893582938E+01 -0.10896028911E+02  0.75940249966E+01  0.13444630145E+02  0.00000000000E+00 0. -1.
         11    1    1    2    0    0  0.53174922897E+02 -0.16678502877E+03 -0.25122781235E+03  0.30620292609E+03  0.00000000000E+00 0.  1.
</event>
<event>
 7    1  0.3151015E-009  0.1144725E+03  0.7561462E-02  0.1252505E+00
          2   -1    0    0  501    0  0.00000000000E+00  0.00000000000E+00  0.99608102367E+03  0.99608102367E+03  0.00000000000E+00 0. -1.
         -2   -1    0    0    0  501 -0.00000000000E+00 -0.00000000000E+00 -0.15374656311E+02  0.15374656311E+02  0.00000000000E+00 0.  1.
         25    2    1    2    0    0  0.55930511048E+02  0.16880245428E+02  0.58041488573E+03  0.59660888050E+03  0.12509017532E+03 0.  0.
          5    1    3    3  502    0  0.87185653952E+02  0.38906380398E+01  0.51950667722E+03  0.52680274809E+03  0.41800000000E+01 0. -1.
         -5    1    3    3    0  502 -0.31255142904E+02  0.12989607388E+02  0.60908208504E+02  0.69806132404E+02  0.41800000000E+01 0. -1.
        -11    1    1    2    0    0 -0.92309326340E+01  0.35857184763E+02  0.17174138652E+03  0.17568736910E+03  0.00000000000E+00 0. -1.
         11    1    1    2    0    0 -0.46699578414E+02 -0.52737430190E+02  0.22855009512E+03  0.23915943039E+03  0.00000000000E+00 0.  1.
</event>
<event>
 7    1  0.3151015E-009  0.1624886E+03  0.7561462E-02  0.1185915E+00
         -2   -1    0    0    0  501 -0.00000000000E+00  0.00000000000E+00  0.18249929329E+02  0.18249929329E+02  0.00000000000E+00 0.  1.
          2   -1    0    0  501    0  0.00000000000E+00 -0.00000000000E+00 -0.18475197545E+04  0.18475197545E+04  0.00000000000E+00 0. -1.
         25    2    1    2    0    0 -0.90936906933E+02  0.80639992807E+02 -0.13806632160E+04  0.13916360430E+04  0.12509048920E+03 0.  0.
          5    1    3    3  502    0 -0.66322059642E+02  0.11372475495E+03 -0.11161493679E+04  0.11238944877E+04  0.41800000000E+01 0.  1.
         -5    1    3    3    0  502 -0.24614847291E+02 -0.33084762145E+02 -0.26451384809E+03  0.26774155528E+03  0.41800000000E+01 0.  1.
        -11    1    1    2    0    0  0.22354684171E+02  0.20019954076E+02 -0.11950346014E+03  0.12321366585E+03  0.00000000000E+00 0. -1.
         11    1    1    2    0    0  0.68582222762E+02 -0.10065994688E+03 -0.32910314895E+03  0.35091997497E+03  0.00000000000E+00 0.  1.
</event>
<event>
 7    1  0.3151015E-009  0.8832727E+02  0.7561462E-02  0.1306954E+00
          1   -1    0    0  501    0  0.00000000000E+00  0.00000000000E+00  0.38574754843E+02  0.38574754843E+02  0.00000000000E+00 0. -1.
         -1   -1    0    0    0  501 -0.00000000000E+00 -0.00000000000E+00 -0.37676339574E+03  0.37676339574E+03  0.00000000000E+00 0.  1.
         25    2    1    2    0    0 -0.29913835628E+02 -0.42539750453E+02 -0.18144781523E+03  0.22644867337E+03  0.12510485238E+03 0.  0.
          5    1    3    3  502    0 -0.67538876128E+02 -0.97934090958E+01 -0.46955703641E+02  0.82944084508E+02  0.41800000000E+01 0.  1.
         -5    1    3    3    0  502  0.37625040500E+02 -0.32746341357E+02 -0.13449211159E+03  0.14350458886E+03  0.41800000000E+01 0.  1.
        -11    1    1    2    0    0  0.26174717729E+02  0.14467581166E+02 -0.15774163484E+03  0.16055170542E+03  0.00000000000E+00 0.  1.
         11    1    1    2    0    0  0.37391178990E+01  0.28072169287E+02  0.10008091692E+01  0.28337771792E+02  0.00000000000E+00 0. -1.
</event>
<event>
 7    1  0.3151015E-009  0.7694794E+02  0.7561462E-02  0.1337943E+00
          2   -1    0    0  501    0  0.00000000000E+00  0.00000000000E+00  0.45741467402E+02  0.45741467402E+02  0.00000000000E+00 0. -1.
         -2   -1    0    0    0  501 -0.00000000000E+00 -0.00000000000E+00 -0.26780194800E+03  0.26780194800E+03  0.00000000000E+00 0.  1.
         25    2    1    2    0    0 -0.19191298268E+02 -0.78216237347E+01 -0.14326128588E+03  0.19131737333E+03  0.12509619330E+03 0.  0.
          5    1    3    3  502    0  0.46179132759E+02  0.39196833040E+01 -0.18811206344E+02  0.50191733420E+02  0.41800000000E+01 0. -1.
         -5    1    3    3    0  502 -0.65370431028E+02 -0.11741307039E+02 -0.12445007954E+03  0.14112563991E+03  0.41800000000E+01 0. -1.
        -11    1    1    2    0    0  0.22707990258E+02 -0.84033191336E+01 -0.95592796985E+02  0.98611619140E+02  0.00000000000E+00 0.  1.
         11    1    1    2    0    0 -0.35166919902E+01  0.16224942868E+02  0.16793602263E+02  0.23614422936E+02  0.00000000000E+00 0. -1.
</event>
<event>
 7    1  0.3151015E-009  0.1030255E+03  0.7561462E-02  0.1274059E+00
          1   -1    0    0  501    0  0.00000000000E+00  0.00000000000E+00  0.35811676316E+02  0.35811676316E+02  0.00000000000E+00 0. -1.
         -1   -1    0    0    0  501 -0.00000000000E+00 -0.00000000000E+00 -0.39673678200E+03  0.39673678200E+03  0.00000000000E+00 0.  1.
         25    2    1    2    0    0  0.31731256668E+02 -0.12412214523E+02 -0.26734888384E+03  0.29712515753E+03  0.12508796035E+03 0.  0.
          5    1    3    3  502    0  0.34226116403E+02  0.53409840758E+02 -0.13607697106E+03  0.15019471558E+03  0.41800000000E+01 0. -1.
         -5    1    3    3    0  502 -0.24948597354E+01 -0.65822055281E+02 -0.13127191278E+03  0.14693044195E+03  0.41800000000E+01 0. -1.
        -11    1    1    2    0    0 -0.16851351154E+02 -0.28407212965E+02 -0.86947245016E+00  0.33040789435E+02  0.00000000000E+00 0. -1.
         11    1    1    2    0    0 -0.14879905514E+02  0.40819427488E+02 -0.92706749384E+02  0.10238251135E+03  0.00000000000E+00 0.  1.
</event>
<event>
 7    1  0.3151015E-009  0.1400232E+03  0.7561462E-02  0.1213298E+00
         -1   -1    0    0    0  501 -0.00000000000E+00  0.00000000000E+00  0.94237195803E+02  0.94237195803E+02  0.00000000000E+00 0.  1.
          1   -1    0    0  501    0  0.00000000000E+00 -0.00000000000E+00 -0.31721591559E+03  0.31721591559E+03  0.00000000000E+00 0. -1.
         25    2    1    2    0    0 -0.68369639761E+02  0.97633771367E+02 -0.19132051903E+03  0.25779427245E+03  0.12509030719E+03 0.  0.
          5    1    3    3  502    0 -0.63868867606E+02  0.48462758491E+02 -0.24753249737E+02  0.84012302565E+02  0.41800000000E+01 0. -1.
         -5    1    3    3    0  502 -0.45007721551E+01  0.49171012876E+02 -0.16656726929E+03  0.17378196988E+03  0.41800000000E+01 0. -1.
        -11    1    1    2    0    0  0.65897413089E+02 -0.15055895863E+02 -0.17684459904E+02  0.69870517203E+02  0.00000000000E+00 0.  1.
         11    1    1    2    0    0  0.24722266719E+01 -0.82577875504E+02 -0.13973740858E+02  0.83788321746E+02  0.00000000000E+00 0. -1.
</event>
<event>
 7    1  0.3151015E-009  0.8431150E+02  0.7561462E-02  0.1317243E+00
          2   -1    0    0  501    0  0.00000000000E+00  0.00000000000E+00  0.55393302436E+03  0.55393302436E+03  0.00000000000E+00 0. -1.
         -2   -1    0    0    0  501 -0.00000000000E+00 -0.00000000000E+00 -0.42863523266E+02  0.42863523266E+02  0.00000000000E+00 0.  1.
         25    2    1    2    0    0  0.36773430657E+02  0.19267924879E+02  0.47177004577E+03  0.48983425754E+03  0.12508831134E+03 0.  0.
          5    1    3    3  502    0  0.47243648100E+02  0.35257486148E+02  0.90650778963E+02  0.10821316344E+03  0.41800000000E+01 0.  1.
         -5    1    3    3    0  502 -0.10470217443E+02 -0.15989561269E+02  0.38111926681E+03  0.38162109409E+03  0.41800000000E+01 0.  1.
        -11    1    1    2    0    0  0.87208967557E+01 -0.39296910236E+02  0.40688107570E+02  0.57234808394E+02  0.00000000000E+00 0. -1.
         11    1    1    2    0    0 -0.45494327412E+02  0.20028985357E+02 -0.13886522472E+01  0.49727481700E+02  0.00000000000E+00 0.  1.
</event>
<event>
 6    1  0.3151015E-009  0.1063319E+03  0.7561462E-02  0.1267517E+00
         -1   -1    0    0    0  501 -0.00000000000E+00  0.00000000000E+00  0.16199406982E+03  0.16199406982E+03  0.00000000000E+00 0.  1.
          1   -1    0    0  501    0  0.00000000000E+00 -0.00000000000E+00 -0.12046400548E+03  0.12046400548E+03  0.00000000000E+00 0. -1.
          5    1    1    2  502    0  0.53422876883E+02  0.18056173746E+02 -0.48582600406E+02  0.74550457055E+02  0.41800000000E+01 0. -1.
         -5    1    1    2    0  502  0.25109451385E+02  0.21424407118E+02  0.73152190913E+02  0.80362959158E+02  0.41800000000E+01 0. -1.
        -11    1    1    2    0    0 -0.50382528667E+02 -0.66766147084E+02  0.25457071151E+02  0.87431001726E+02  0.00000000000E+00 0.  1.
         11    1    1    2    0    0 -0.28149799602E+02  0.27285566219E+02 -0.84965973183E+01  0.40113657369E+02  0.00000000000E+00 0. -1.
</event>
<event>
 7    1  0.3151015E-009  0.7209965E+02  0.7561462E-02  0.1353095E+00
         -2   -1    0    0    0  501 -0.00000000000E+00  0.00000000000E+00  0.33346811649E+02  0.33346811649E+02  0.00000000000E+00 0.  1.
          2   -1    0    0  501    0  0.00000000000E+00 -0.00000000000E+00 -0.36137651285E+03  0.36137651285E+03  0.00000000000E+00 0. -1.
         25    2    1    2    0    0 -0.22377085675E+01 -0.14810925969E+02 -0.18507815821E+03  0.22388976059E+03  0.12509328272E+03 0.  0.
          5    1    3    3  502    0 -0.30815535581E+02 -0.33255218159E+02 -0.18405797926E+03  0.18960569321E+03  0.41800000000E+01 0.  1.
         -5    1    3    3    0  502  0.28577827014E+02  0.18444292191E+02 -0.10201789576E+01  0.34284067384E+02  0.41800000000E+01 0.  1.
        -11    1    1    2    0    0 -0.14311100146E+02  0.35283723125E+02 -0.13911387910E+03  0.14423044084E+03  0.00000000000E+00 0. -1.
         11    1    1    2    0    0  0.16548808713E+02 -0.20472797156E+02 -0.38376638853E+01  0.26603123074E+02  0.00000000000E+00 0.  1.
</event>
<event>
 7    1  0.3151015E-009  0.1170039E+03  0.7561462E-02  0.1248123E+00
         -2   -1    0    0    0  501 -0.00000000000E+00  0.00000000000E+00  0.28583090646E+02  0.28583090646E+02  0.00000000000E+00 0.  1.
          2   -1    0    0  501    0  0.00000000000E+00 -0.00000000000E+00 -0.53787807939E+03  0.53787807939E+03  0.00000000000E+00 0. -1.
         25    2    1    2    0    0  0.58076960880E+02 -0.15987202790E+02 -0.28923014197E+03  0.32082863207E+03  0.12509361333E+03 0.  0.
          5    1    3    3  502    0  0.41353959900E+02  0.51699033500E+02 -0.17226292319E+03  0.18459395215E+03  0.41800000000E+01 0.  1.
         -5    1    3    3    0  502  0.16723000980E+02 -0.67686236290E+02 -0.11696721878E+03  0.13623467993E+03  0.41800000000E+01 0.  1.
        -11    1    1    2    0    0 -0.26110619989E+02 -0.31291487821E+02 -0.41482852165E+02  0.58152804834E+02  0.00000000000E+00 0.  1.
         11    1    1    2    0    0 -0.31966340891E+02  0.47278690611E+02 -0.17858199461E+03  0.18747973313E+03  0.00000000000E+00 0. -1.
</event>
<event>
 7    1  0.3151015E-009  0.7664979E+02  0.7561462E-02  0.1338837E+00
          2   -1    0    0  501    0  0.00000000000E+00  0.00000000000E+00  0.38334852836E+02  0.38334852836E+02  0.00000000000E+00 0. -1.
         -2   -1    0    0    0  501 -0.00000000000E+00 -0.00000000000E+00 -0.31229355641E+03  0.31229355641E+03  0.00000000000E+00 0.  1.
         25    2    1    2    0    0 -0.15016958037E+02 -0.20495649995E+01 -0.17520996479E+03  0.21581908964E+03  0.12509851296E+03 0.  0.
          5    1    3    3  502    0  0.20270806275E+02  0.37106341236E+02 -0.11842781525E+02  0.44107936035E+02  0.41800000000E+01 0. -1.
         -5    1    3    3    0  502 -0.35287764312E+02 -0.39155906236E+02 -0.16336718327E+03  0.17171115360E+03  0.41800000000E+01 0. -1.
        -11    1    1    2    0    0  0.10224608062E+02 -0.26803145948E+02  0.30906789142E+01  0.28853137418E+02  0.00000000000E+00 0. -1.
         11    1    1    2    0    0  0.47923499755E+01  0.28852710947E+02 -0.10183941770E+03  0.10595618219E+03  0.00000000000E+00 0.  1.
</event>
<event>
 7    1  0.3151015E-009  0.6444810E+02  0.7561462E-02  0.1380060E+00
         -1   -1    0    0    0  501 -0.00000000000E+00  0.00000000000E+00  0.13603249139E+03  0.13603249139E+03  0.00000000000E+00 0.  1.
          1   -1    0    0  501    0  0.00000000000E+00 -0.00000000000E+00 -0.10332485079E+03  0.10332485079E+03  0.00000000000E+00 0. -1.
         25    2    1    2    0    0 -0.35762295363E+02  0.23447566899E+02  0.13169130707E+01  0.13219944360E+03  0.12508488504E+03 0.  0.
          5    1    3    3  502    0 -0.34127255686E+02 -0.28839931546E+01  0.59160234167E+02  0.68486441752E+02  0.41800000000E+01 0.  1.
         -5    1    3    3    0  502 -0.16350396774E+01  0.26331560054E+02 -0.57843321096E+02  0.63713001852E+02  0.41800000000E+01 0.  1.
        -11    1    1    2    0    0 -0.11790314409E+02 -0.15492042633E+02  0.51395306934E+02  0.54959007211E+02  0.00000000000E+00 0.  1.
         11    1    1    2    0    0  0.47552609772E+02 -0.79555242661E+01 -0.20004579401E+02  0.52198891363E+02  0.00000000000E+00 0. -1.
</event>
<event>
 7    1  0.3151015E-009  0.1484218E+03  0.7561462E-02  0.1202426E+00
         -1   -1    0    0    0  501 -0.00000000000E+00  0.00000000000E+00  0.42903282625E+03  0.42903282625E+03  0.00000000000E+00 0.  1.
          1   -1    0    0  501    0  0.00000000000E+00 -0.00000000000E+00 -0.95131713886E+02  0.95131713886E+02  0.00000000000E+00 0. -1.
         25    2    1    2    0    0  0.19149366646E+02  0.12280915031E+03  0.32577014635E+03  0.37044462565E+03  0.12511693241E+03 0.  0.
          5    1    3    3  502    0  0.19367633362E+02  0.14561398322E+03  0.23843662935E+03  0.28008576534E+03  0.41800000000E+01 0. -1.
         -5    1    3    3    0  502 -0.21826671675E+00 -0.22804832910E+02  0.87333516999E+02  0.90358860306E+02  0.41800000000E+01 0. -1.
        -11    1    1    2    0    0 -0.12056262460E+02 -0.18068385357E+02 -0.34209124886E+02  0.40522638603E+02  0.00000000000E+00 0. -1.
         11    1    1    2    0    0 -0.70931041861E+01 -0.10474076495E+03  0.42340090900E+02  0.11319727588E+03  0.00000000000E+00 0.  1.
</event>
<event>
 7    1  0.3151015E-009  0.1055334E+03  0.7561462E-02  0.1269072E+00
          1   -1    0    0  501    0  0.00000000000E+00  0.00000000000E+00  0.16249083279E+03  0.16249083279E+03  0.00000000000E+00 0. -1.
         -1   -1    0    0    0  501 -0.00000000000E+00 -0.00000000000E+00 -0.84212083412E+02  0.84212083412E+02  0.00000000000E+00 0.  1.
         25    2    1    2    0    0 -0.30073560045E+02 -0.23558379815E+02  0.58360928728E+02  0.14322820367E+03  0.12509557966E+03 0.  0.
          5    1    3    3  502    0  0.20497977309E+02 -0.55639499425E+02  0.58204393082E+02  0.83193417673E+02  0.41800000000E+01 0.  1.
         -5    1    3    3    0  502 -0.50571537354E+02  0.32081119611E+02  0.15653564552E+00  0.60034785993E+02  0.41800000000E+01 0.  1.
        -11    1    1    2    0    0 -0.42660063398E+01  0.48790618968E+02  0.32813738925E+02  0.58953072623E+02  0.00000000000E+00 0. -1.
         11    1    1    2    0    0  0.34339566385E+02 -0.25232239154E+02 -0.12895918277E+02  0.44521639912E+02  0.00000000000E+00 0.  1.
</event>
<event>
 7    1  0.3151015E-009  0.1316524E+03  0.7561462E-02  0.1225024E+00
         -2   -1    0    0    0  501 -0.00000000000E+00  0.00000000000E+00  0.68367584383E+02  0.68367584383E+02  0.00000000000E+00 0.  1.
          2   -1    0    0  501    0  0.00000000000E+00 -0.00000000000E+00 -0.45306517834E+03  0.45306517834E+03  0.00000000000E+00 0. -1.
         25    2    1    2    0    0 -0.29993151001E+01 -0.30892579031E+02 -0.18497667918E+02  0.13018027320E+03  0.12506555274E+03 0.  0.
          5    1    3    3  502    0 -0.63575843856E+02 -0.13344753039E+02 -0.15436322695E+02  0.66900843149E+02  0.41800000000E+01 0.  1.
         -5    1    3    3    0  502  0.60576528756E+02 -0.17547825992E+02 -0.30613452227E+01  0.63279430052E+02  0.41800000000E+01 0.  1.
        -11    1    1    2    0    0  0.32305784523E+02  0.75220238911E+02 -0.18247864257E+03  0.20000050763E+03  0.00000000000E+00 0.  1.
         11    1    1    2    0    0 -0.29306469423E+02 -0.44327659880E+02 -0.18372128347E+03  0.19125198190E+03  0.00000000000E+00 0. -1.
</event>
<event>
 7    1  0.3151015E-009  0.1705723E+03  0.7561462E-02  0.1177252E+00
         -2   -1    0    0    0  501 -0.00000000000E+00  0.00000000000E+00  0.22946982590E+03  0.22946982590E+03  0.00000000000E+00 0.  1.
          2   -1    0    0  501    0  0.00000000000E+00 -0.00000000000E+00 -0.16296566338E+03  0.16296566338E+03  0.00000000000E+00 0. -1.
         25    2    1    2    0    0  0.62926794254E+02 -0.12807755723E+03 -0.53902373183E+02  0.19727206996E+03  0.12508861519E+03 0.  0.
          5    1    3    3  502    0  0.10057790357E+03 -0.82625040772E+02 -0.31361206187E+02  0.13395450609E+03  0.41800000000E+01 0.  1.
         -5    1    3    3    0  502 -0.37651109312E+02 -0.45452516454E+02 -0.22541166996E+02  0.63317563866E+02  0.41800000000E+01 0.  1.
        -11    1    1    2    0    0 -0.51583195609E+02  0.13034036044E+03  0.10175102806E+03  0.17321289600E+03  0.00000000000E+00 0.  1.
         11    1    1    2    0    0 -0.11343598645E+02 -0.22628032138E+01  0.18655507641E+02  0.21950523319E+02  0.00000000000E+00 0. -1.
</event>
<event>
 7    1  0.3151015E-009  0.6804397E+02  0.7561462E-02  0.1366874E+00
         -2   -1    0    0    0  501 -0.00000000000E+00  0.00000000000E+00  0.17279282311E+02  0.17279282311E+02  0.00000000000E+00 0.  1.
          2   -1    0    0  501    0  0.00000000000E+00 -0.00000000000E+00 -0.91679158644E+03  0.91679158644E+03  0.00000000000E+00 0. -1.
         25    2    1    2    0    0  0.61921859422E+01 -0.44453314490E+02 -0.68999825202E+03  0.70268123529E+03  0.12509552472E+03 0.  0.
          5    1    3    3  502    0  0.18416565416E+02 -0.25901618247E+02 -0.35648684792E+02  0.47941264449E+02  0.41800000000E+01 0.  1.
         -5    1    3    3    0  502 -0.12224379474E+02 -0.18551696242E+02 -0.65434956723E+03  0.65473997084E+03  0.41800000000E+01 0.  1.
        -11    1    1    2    0    0  0.28610437832E+02  0.54004230863E+01 -0.14709816210E+03  0.14995196236E+03  0.00000000000E+00 0. -1.
         11    1    1    2    0    0 -0.34802623774E+02  0.39052891404E+02 -0.62415890008E+02  0.81437671099E+02  0.00000000000E+00 0.  1.
</event>
<event>
 7    1  0.3151015E-009  0.1569035E+03  0.7561462E-02  0.1192238E+00
          1   -1    0    0  501    0  0.00000000000E+00  0.00000000000E+00  0.10687460049E+04  0.10687460049E+04  0.00000000000E+00 0. -1.
         -1   -1    0    0    0  501 -0.00000000000E+00 -0.00000000000E+00 -0.27641175244E+02  0.27641175244E+02  0.00000000000E+00 0.  1.
         25    2    1    2    0    0 -0.10834879419E+03 -0.76139231183E+02  0.59217442833E+03  0.61956024497E+03  0.12509076646E+03 0.  0.
          5    1    3    3  502    0 -0.82245621615E+02 -0.10242830907E+03  0.53783757618E+03  0.55366292229E+03  0.41800000000E+01 0.  1.
         -5    1    3    3    0  502 -0.26103172578E+02  0.26289077882E+02  0.54336852151E+02  0.65897322679E+02  0.41800000000E+01 0.  1.
        -11    1    1    2    0    0  0.20701053460E+02  0.49239056317E+02  0.76662483569E+02  0.93435296694E+02  0.00000000000E+00 0.  1.
         11    1    1    2    0    0  0.87647740733E+02  0.26900174866E+02  0.37226791778E+03  0.38339163850E+03  0.00000000000E+00 0. -1.
</event>
<event>
 7    1  0.3151015E-009  0.1515319E+03  0.7561462E-02  0.1198603E+00
         -1   -1    0    0    0  501 -0.00000000000E+00  0.00000000000E+00  0.48766175614E+03  0.48766175614E+03  0.00000000000E+00 0.  1.
          1   -1    0    0  501    0  0.00000000000E+00 -0.00000000000E+00 -0.55835339810E+02  0.55835339810E+02  0.00000000000E+00 0. -1.
         25    2    1    2    0    0 -0.21541158545E+02 -0.12165021776E+03  0.21007141163E+03  0.27393429544E+03  0.12508878145E+03 0.  0.
          5    1    3    3  502    0 -0.14019424940E+02  0.10161901412E+02  0.10120556997E+03  0.10276112255E+03  0.41800000000E+01 0.  1.
         -5    1    3    3    0  502 -0.75217336050E+01 -0.13181211918E+03  0.10886584166E+03  0.17117317289E+03  0.41800000000E+01 0.  1.
        -11    1    1    2    0    0  0.57036250148E+02  0.66952161883E+02  0.12246140325E+03  0.15077307816E+03  0.00000000000E+00 0.  1.
         11    1    1    2    0    0 -0.35495091604E+02  0.54698055881E+02  0.99293601451E+02  0.11878972234E+03  0.00000000000E+00 0. -1.
</event>
<event>
 7    1  0.3151015E-009  0.1257715E+03  0.7561462E-02  0.1233868E+00
         -2   -1    0    0    0  501 -0.00000000000E+00  0.00000000000E+00  0.20974173824E+02  0.20974173824E+02  0.00000000000E+00 0.  1.
          2   -1    0    0  501    0  0.00000000000E+00 -0.00000000000E+00 -0.76200989997E+03  0.76200989997E+03  0.00000000000E+00 0. -1.
         25    2    1    2    0    0 -0.49107987643E+02  0.50360303519E+02 -0.42249106900E+03  0.44619991845E+03  0.12509160334E+03 0.  0.
          5    1    3    3  502    0 -0.16414166864E+02 -0.41971027677E+02 -0.14499965310E+03  0.15189918972E+03  0.41800000000E+01 0. -1.
         -5    1    3    3    0  502 -0.32693820780E+02  0.92331331196E+02 -0.27749141589E+03  0.29430072873E+03  0.41800000000E+01 0. -1.
        -11    1    1    2    0    0  0.12246817893E+02 -0.66779044852E+02 -0.22188649391E+03  0.23204103421E+03  0.00000000000E+00 0. -1.
         11    1    1    2    0    0  0.36861169751E+02  0.16418741333E+02 -0.96658163240E+02  0.10474312113E+03  0.00000000000E+00 0.  1.
</event>
<event>
 7    1  0.3151015E-009  0.1215030E+03  0.7561462E-02  0.1240638E+00
         -1   -1    0    0    0  501 -0.00000000000E+00  0.00000000000E+00  0.13501586447E+02  0.13501586447E+02  0.00000000000E+00 0.  1.
          1   -1    0    0  501    0  0.00000000000E+00 -0.00000000000E+00 -0.11307543452E+04  0.11307543452E+04  0.00000000000E+00 0. -1.
         25    2    1    2    0    0  0.23858935506E+02  0.53456740131E+02 -0.63325749889E+03  0.64814293828E+03  0.12508931477E+03 0.  0.
          5    1    3    3  502    0 -0.46238048097E+02  0.10814287325E+01 -0.15051466819E+03  0.15751591767E+03  0.41800000000E+01 0. -1.
         -5    1    3    3    0  502  0.70096983604E+02  0.52375311399E+02 -0.48274283070E+03  0.49062702060E+03  0.41800000000E+01 0. -1.
        -11    1    1    2    0    0 -0.83758431593E+01 -0.78811647369E+02 -0.35581421722E+03  0.36453420647E+03  0.00000000000E+00 0. -1.
         11    1    1    2    0    0 -0.15483092347E+02  0.25354907237E+02 -0.12818104262E+03  0.13157878688E+03  0.00000000000E+00 0.  1.
</event>
<event>
 7    1  0.3151015E-009  0.1155229E+03  0.7561462E-02  0.1250671E+00
         -1   -1    0    0    0  501 -0.00000000000E+00  0.00000000000E+00  0.20994004117E+03  0.20994004117E+03  0.00000000000E+00 0.  1.
          1   -1    0    0  501    0  0.00000000000E+00 -0.00000000000E+00 -0.96477898704E+02  0.96477898704E+02  0.00000000000E+00 0. -1.
         25    2    1    2    0    0  0.58017293260E+02  0.11324561036E+02  0.13765485449E+03  0.19516874770E+03  0.12509088342E+03 0.  0.
          5    1    3    3  502    0  0.68380745540E+02  0.50149680997E+02  0.49701477848E+02  0.98380008970E+02  0.41800000000E+01 0. -1.
         -5    1    3    3    0  502 -0.10363452280E+02 -0.38825119961E+02  0.87953376638E+02  0.96788738732E+02  0.41800000000E+01 0. -1.
        -11    1    1    2    0    0 -0.26692774027E+02 -0.49573650391E+02 -0.21779237976E+00  0.56303627164E+02  0.00000000000E+00 0.  1.
         11    1    1    2    0    0 -0.31324519234E+02  0.38249089355E+02 -0.23974919644E+02  0.54945565005E+02  0.00000000000E+00 0. -1.
</event>
<event>
 7    1  0.3151015E-009  0.3037748E+03  0.7561462E-02  0.1083369E+00
         -2   -1    0    0    0  501 -0.00000000000E+00  0.00000000000E+00  0.23622384291E+03  0.23622384291E+03  0.00000000000E+00 0.  1.
          2   -1    0    0  501    0  0.00000000000E+00 -0.00000000000E+00 -0.45282679916E+03  0.45282679916E+03  0.00000000000E+00 0. -1.
         25    2    1    2    0    0 -0.29709813990E+03  0.34589478713E+02 -0.18713711145E+03  0.37434818620E+03  0.12511006860E+03 0.  0.
          5    1    3    3  502    0 -0.95960675326E+02  0.19839226379E+02  0.16112644098E+01  0.98092378325E+02  0.41800000000E+01 0. -1.
         -5    1    3    3    0  502 -0.20113746457E+03  0.14750252334E+02 -0.18874837586E+03  0.27625580788E+03  0.41800000000E+01 0. -1.
        -11    1    1    2    0    0  0.23795752493E+03 -0.56685348165E+02  0.96436904378E+00  0.24461795187E+03  0.00000000000E+00 0. -1.
         11    1    1    2    0    0  0.59140614968E+02  0.22095869452E+02 -0.30430213847E+02  0.70084503996E+02  0.00000000000E+00 0.  1.
</event>
<event>
 7    1  0.3151015E-009  0.1134479E+03  0.7561462E-02  0.1254315E+00
          2   -1    0    0  501    0  0.00000000000E+00  0.00000000000E+00  0.47526634119E+03  0.47526634119E+03  0.00000000000E+00 0.  1.
         -2   -1    0    0    0  501 -0.00000000000E+00 -0.00000000000E+00 -0.28418170891E+02  0.28418170891E+02  0.00000000000E+00 0. -1.
         25    2    1    2    0    0  0.32633531377E+02 -0.21908862344E+02  0.27160740073E+03  0.30160190283E+03  0.12509269378E+03 0.  0.
          5    1    3    3  502    0  0.42083818685E+02 -0.69472738653E+02  0.15032136040E+03  0.17091370046E+03  0.41800000000E+01 0. -1.
         -5    1    3    3    0  502 -0.94502873084E+01  0.47563876309E+02  0.12128604033E+03  0.13068820237E+03  0.41800000000E+01 0. -1.
        -11    1    1    2    0    0  0.23019753742E+02  0.32907753695E+02  0.46784514015E+02  0.61657279110E+02  0.00000000000E+00 0.  1.
         11    1    1    2    0    0 -0.55653285119E+02 -0.10998891351E+02  0.12845625555E+03  0.14042533014E+03  0.00000000000E+00 0. -1.
</event>
<event>
 7    1  0.3151015E-009  0.1104477E+03  0.7561462E-02  0.1259743E+00
          1   -1    0    0  501    0  0.00000000000E+00  0.00000000000E+00  0.69420593514E+03  0.69420593514E+03  0.00000000000E+00 0. -1.
         -1   -1    0    0    0  501 -0.00000000000E+00 -0.00000000000E+00 -0.30226700484E+02  0.30226700484E+02  0.00000000000E+00 0.  1.
         25    2    1    2    0    0 -0.94889034761E+02 -0.57060163373E+00  0.38745264950E+03  0.41805623356E+03  0.12508878570E+03 0.  0.
          5    1    3    3  502    0 -0.50523513917E+02 -0.17346855495E+02  0.35817346407E+03  0.36215913853E+03  0.41800000000E+01 0. -1.
         -5    1    3    3    0  502 -0.44365520844E+02  0.16776253862E+02  0.29279185428E+02  0.55897095029E+02  0.41800000000E+01 0. -1.
        -11    1    1    2    0    0  0.22774467543E+02  0.33429825222E+02  0.39841291315E+02  0.56776386640E+02  0.00000000000E+00 0.  1.
         11    1    1    2    0    0  0.72114567218E+02 -0.32859223588E+02  0.23668529384E+03  0.24960001542E+03  0.00000000000E+00 0. -1.
</event>
<event>
 7    1  0.3151015E-009  0.1127018E+03  0.7561462E-02  0.1255647E+00
          1   -1    0    0  501    0  0.00000000000E+00  0.00000000000E+00  0.56761519994E+02  0.56761519994E+02  0.00000000000E+00 0. -1.
         -1   -1    0    0    0  501 -0.00000000000E+00 -0.00000000000E+00 -0.26859287235E+03  0.26859287235E+03  0.00000000000E+00 0.  1.
         25    2    1    2    0    0 -0.46554954692E+02 -0.15511510439E+02 -0.16438778994E+03  0.21231777248E+03  0.12509004862E+03 0.  0.
          5    1    3    3  502    0 -0.87922101460E+02 -0.24990633135E+02 -0.10629783009E+03  0.14025522718E+03  0.41800000000E+01 0. -1.
         -5    1    3    3    0  502  0.41367146768E+02  0.94791226957E+01 -0.58089959853E+02  0.72062545296E+02  0.41800000000E+01 0. -1.
        -11    1    1    2    0    0  0.25503613982E+02  0.46946055308E+02 -0.52456493863E+02  0.74873561312E+02  0.00000000000E+00 0.  1.
         11    1    1    2    0    0  0.21051340709E+02 -0.31434544869E+02  0.50129314480E+01  0.38163058557E+02  0.00000000000E+00 0. -1.
</event>
<event>
 7    1  0.3151015E-009  0.1412203E+03  0.7561462E-02  0.1211696E+00
         -1   -1    0    0    0  501 -0.00000000000E+00  0.00000000000E+00  0.68274213589E+03  0.68274213589E+03  0.00000000000E+00 0.  1.
          1   -1    0    0  501    0  0.00000000000E+00 -0.00000000000E+00 -0.44936879816E+02  0.44936879816E+02  0.00000000000E+00 0. -1.
         25    2    1    2    0    0  0.38353955513E+02 -0.97365635409E+02  0.15344136568E+03  0.22392636049E+03  0.12509064457E+03 0.  0.
          5    1    3    3  502    0  0.61284140975E+02 -0.21985402958E+02  0.12323633838E+03  0.13944092432E+03  0.41800000000E+01 0.  1.
         -5    1    3    3    0  502 -0.22930185462E+02 -0.75380232451E+02  0.30205027294E+02  0.84485436162E+02  0.41800000000E+01 0.  1.
        -11    1    1    2    0    0 -0.66052067543E+02  0.47858271913E+02  0.29579842634E+03  0.30683871797E+03  0.00000000000E+00 0.  1.
         11    1    1    2    0    0  0.27698112030E+02  0.49507363496E+02  0.18856546406E+03  0.19691393725E+03  0.00000000000E+00 0. -1.
</event>
<event>
 7    1  0.3151015E-009  0.1370067E+03  0.7561462E-02  0.1217414E+00
          2   -1    0    0  501    0  0.00000000000E+00  0.00000000000E+00  0.64266302082E+03  0.64266302082E+03  0.00000000000E+00 0. -1.
         -2   -1    0    0    0  501 -0.00000000000E+00 -0.00000000000E+00 -0.41877330590E+02  0.41877330590E+02  0.00000000000E+00 0.  1.
         25    2    1    2    0    0  0.22914398332E+02 -0.11397728418E+03  0.23778993365E+03  0.29275597638E+03  0.12508444428E+03 0.  0.
          5    1    3    3  502    0 -0.20349527491E+02 -0.27850527374E+02 -0.14723162408E+01  0.34776360638E+02  0.41800000000E+01 0. -1.
         -5    1    3    3    0  502  0.43263925823E+02 -0.86126756807E+02  0.23926224989E+03  0.25797961574E+03  0.41800000000E+01 0. -1.
        -11    1    1    2    0    0  0.95565597692E+01 -0.10473426588E+02  0.14356315544E+02  0.20177321307E+02  0.00000000000E+00 0.  1.
         11    1    1    2    0    0 -0.32470958101E+02  0.12445071077E+03  0.34863944104E+03  0.37160705372E+03  0.00000000000E+00 0. -1.
</event>
<event>
 7    1  0.3151015E-009  0.1147933E+03  0.7561462E-02  0.1251942E+00
         -2   -1    0    0    0  501 -0.00000000000E+00  0.00000000000E+00  0.10876770795E+03  0.10876770795E+03  0.00000000000E+00 0.  1.
          2   -1    0    0  501    0  0.00000000000E+00 -0.00000000000E+00 -0.23038122206E+03  0.23038122206E+03  0.00000000000E+00 0. -1.
         25    2    1    2    0    0  0.90718118002E+02 -0.58147529627E+02 -0.80932822868E+02  0.18386841903E+03  0.12508621652E+03 0.  0.
          5    1    3    3  502    0 -0.67578166584E+01 -0.39291374241E+01  0.27110882334E+02  0.28523298333E+02  0.41800000000E+01 0.  1.
         -5    1    3    3    0  502  0.97475934660E+02 -0.54218392203E+02 -0.10804370520E+03  0.15534512070E+03  0.41800000000E+01 0.  1.
        -11    1    1    2    0    0 -0.42860090297E+02  0.37622207310E+02 -0.74025050287E+02  0.93445844708E+02  0.00000000000E+00 0. -1.
         11    1    1    2    0    0 -0.47858027705E+02  0.20525322318E+02  0.33344359051E+02  0.61834666269E+02  0.00000000000E+00 0.  1.
</event>
<event>
 7    1  0.3151015E-009  0.2424492E+03  0.7561462E-02  0.1118172E+00
          2   -1    0    0  501    0  0.00000000000E+00  0.00000000000E+00  0.46432342423E+03  0.46432342423E+03  0.00000000000E+00 0. -1.
         -2   -1    0    0    0  501 -0.00000000000E+00 -0.00000000000E+00 -0.13924411856E+03  0.13924411856E+03  0.00000000000E+00 0.  1.
         25    2    1    2    0    0 -0.90570583416E+02 -0.21089109949E+03  0.15086485822E+03  0.30180680097E+03  0.12509617597E+03 0.  0.
          5    1    3    3  502    0  0.12170379332E+01 -0.12586795554E+03  0.11751788363E+03  0.17225605588E+03  0.41800000000E+01 0. -1.
         -5    1    3    3    0  502 -0.91787621350E+02 -0.85023143956E+02  0.33346974582E+02  0.12955074510E+03  0.41800000000E+01 0. -1.
        -11    1    1    2    0    0  0.38230128285E+02  0.41266760916E+02  0.87932139390E+02  0.10438653842E+03  0.00000000000E+00 0. -1.
         11    1    1    2    0    0  0.52340455131E+02  0.16962433858E+03  0.86282308070E+02  0.19737420340E+03  0.00000000000E+00 0.  1.
</event>
<event>
 7    1  0.3151015E-009  0.1540294E+03  0.7561462E-02  0.1195607E+00
          1   -1    0    0  501    0  0.00000000000E+00  0.00000000000E+00  0.34407315346E+03  0.34407315346E+03  0.00000000000E+00 0. -1.
         -1   -1    0    0    0  501 -0.00000000000E+00 -0.00000000000E+00 -0.74952507861E+02  0.74952507861E+02  0.00000000000E+00 0.  1.
         25    2    1    2    0    0 -0.95490859218E+02  0.68368286909E+02  0.11252671668E+03  0.20519322450E+03  0.12509704460E+03 0.  0.
          5    1    3    3  502    0  0.19465334535E+02  0.48820135705E+02  0.20424531617E+02  0.56541478497E+02  0.41800000000E+01 0. -1.
         -5    1    3    3    0  502 -0.11495619375E+03  0.19548151204E+02  0.92102185063E+02  0.14865174601E+03  0.41800000000E+01 0. -1.
        -11    1    1    2    0    0  0.93311551906E+02 -0.26876745293E+02  0.13692666730E+03  0.16786398475E+03  0.00000000000E+00 0. -1.
         11    1    1    2    0    0  0.21793073111E+01 -0.41491541616E+02  0.19667261614E+02  0.45968452067E+02  0.00000000000E+00 0.  1.
</event>
<event>
 7    1  0.3151015E-009  0.5768211E+02  0.7561462E-02  0.1407825E+00
         -2   -1    0    0    0  501 -0.00000000000E+00  0.00000000000E+00  0.42046070706E+02  0.42046070706E+02  0.00000000000E+00 0.  1.
          2   -1    0    0  501    0  0.00000000000E+00 -0.00000000000E+00 -0.37282773526E+03  0.37282773526E+03  0.00000000000E+00 0. -1.
         25    2    1    2    0    0 -0.39224323763E+02  0.17586272269E+02 -0.25676847680E+03  0.28883467046E+03  0.12509033390E+03 0.  0.
          5    1    3    3  502    0 -0.13865378043E+02 -0.41752994718E+01 -0.25464557795E+03  0.25509120840E+03  0.41800000000E+01 0.  1.
         -5    1    3    3    0  502 -0.25358945720E+02  0.21761571741E+02 -0.21228988541E+01  0.33743462066E+02  0.41800000000E+01 0.  1.
        -11    1    1    2    0    0  0.51661375294E+02 -0.12321063672E+02 -0.24010385579E+01  0.53164568026E+02  0.00000000000E+00 0.  1.
         11    1    1    2    0    0 -0.12437051531E+02 -0.52652085972E+01 -0.71612149199E+02  0.72874567479E+02  0.00000000000E+00 0. -1.
</event>
<event>
 7    1  0.3151015E-009  0.1205013E+03  0.7561462E-02  0.1242272E+00
          2   -1    0    0  501    0  0.00000000000E+00  0.00000000000E+00  0.80089216013E+03  0.80089216013E+03  0.00000000000E+00 0. -1.
         -2   -1    0    0    0  501 -0.00000000000E+00 -0.00000000000E+00 -0.47176925351E+02  0.47176925351E+02  0.00000000000E+00 0.  1.
         25    2    1    2    0    0 -0.88565612777E+02 -0.79513379396E+02  0.62902064559E+03  0.65228838164E+03  0.12508762919E+03 0.  0.
          5    1    3    3  502    0 -0.12362826299E+02 -0.74775344548E+01  0.40094081640E+03  0.40122283541E+03  0.41800000000E+01 0.  1.
         -5    1    3    3    0  502 -0.76202786478E+02 -0.72035844941E+02  0.22807982919E+03  0.25106554624E+03  0.41800000000E+01 0.  1.
        -11    1    1    2    0    0  0.76233700771E+02  0.56434515925E+02  0.33001125266E+02  0.10042661993E+03  0.00000000000E+00 0.  1.
         11    1    1    2    0    0  0.12331912006E+02  0.23078863471E+02  0.91693463922E+02  0.95354083913E+02  0.00000000000E+00 0. -1.
</event>
<event>
 7    1  0.3151015E-009  0.1094790E+03  0.7561462E-02  0.1261538E+00
         -2   -1    0    0    0  501 -0.00000000000E+00  0.00000000000E+00  0.11429068979E+03  0.11429068979E+03  0.00000000000E+00 0.  1.
          2   -1    0    0  501    0  0.00000000000E+00 -0.00000000000E+00 -0.12611363876E+03  0.12611363876E+03  0.00000000000E+00 0. -1.
         25    2    1    2    0    0  0.40594504330E+02  0.28963633646E+02 -0.21865106337E+02  0.13642726576E+03  0.12509000804E+03 0.  0.
          5    1    3    3  502    0  0.47962179442E+01  0.66585974927E+02 -0.43740229482E+02  0.79921060045E+02  0.41800000000E+01 0.  1.
         -5    1    3    3    0  502  0.35798286386E+02 -0.37622341282E+02  0.21875123146E+02  0.56506205715E+02  0.41800000000E+01 0.  1.
        -11    1    1    2    0    0 -0.66225398359E+02 -0.77113654507E+01  0.19315025168E+02  0.69414254604E+02  0.00000000000E+00 0.  1.
         11    1    1    2    0    0  0.25630894030E+02 -0.21252268195E+02 -0.92728678006E+01  0.34562808182E+02  0.00000000000E+00 0. -1.
</event>
<event>
 7    1  0.3151015E-009  0.1431271E+03  0.7561462E-02  0.1209182E+00
          1   -1    0    0  501    0  0.00000000000E+00  0.00000000000E+00  0.51311306768E+02  0.51311306768E+02  0.00000000000E+00 0. -1.
         -1   -1    0    0    0  501 -0.00000000000E+00 -0.00000000000E+00 -0.59670418307E+03  0.59670418307E+03  0.00000000000E+00 0.  1.
         25    2    1    2    0    0  0.71031249229E+02  0.59638800306E+02 -0.10305962698E+03  0.18674676731E+03  0.12510333137E+03 0.  0.
          5    1    3    3  502    0 -0.35810797959E+02  0.90812688583E+01 -0.29522044058E+02  0.47475321799E+02  0.41800000000E+01 0. -1.
         -5    1    3    3    0  502  0.10684204719E+03  0.50557531448E+02 -0.73537582922E+02  0.13927144551E+03  0.41800000000E+01 0. -1.
        -11    1    1    2    0    0 -0.72742822075E+02 -0.16248788417E+01 -0.24817161792E+03  0.25861807813E+03  0.00000000000E+00 0.  1.
         11    1    1    2    0    0  0.17115728461E+01 -0.58013921465E+02 -0.19416163140E+03  0.20265064439E+03  0.00000000000E+00 0. -1.
</event>
<event>
 7    1  0.3151015E-009  0.1063239E+03  0.7561462E-02  0.1267533E+00
          1   -1    0    0  501    0  0.00000000000E+00  0.00000000000E+00  0.28312567899E+03  0.28312567899E+03  0.00000000000E+00 0. -1.
         -1   -1    0    0    0  501 -0.00000000000E+00 -0.00000000000E+00 -0.10359848064E+03  0.10359848064E+03  0.00000000000E+00 0.  1.
         25    2    1    2    0    0 -0.22683054566E+01 -0.84687430199E+02  0.20919991248E+03  0.25805266042E+03  0.12509782621E+03 0.  0.
          5    1    3    3  502    0 -0.45490119013E+02 -0.52138038583E+02  0.39275562540E+02  0.79672882513E+02  0.41800000000E+01 0. -1.
         -5    1    3    3    0  502  0.43221813556E+02 -0.32549391616E+02  0.16992434994E+03  0.17837977790E+03  0.41800000000E+01 0. -1.
        -11    1    1    2    0    0 -0.12230646101E+02  0.28137289820E+02 -0.56600652438E+02  0.64381127971E+02  0.00000000000E+00 0.  1.
         11    1    1    2    0    0  0.14498951558E+02  0.56550140379E+02  0.26927938306E+02  0.64290371243E+02  0.00000000000E+00 0. -1.
</event>
<event>
 7    1  0.3151015E-009  0.1679332E+03  0.7561462E-02  0.1180020E+00
         -1   -1    0    0    0  501 -0.00000000000E+00  0.00000000000E+00  0.14550576878E+04  0.14550576878E+04  0.00000000000E+00 0.  1.
          1   -1    0    0  501    0  0.00000000000E+00 -0.00000000000E+00 -0.20927157502E+02  0.20927157502E+02  0.00000000000E+00 0. -1.
         25    2    1    2    0    0  0.11867776970E+03  0.59530064488E+02  0.63519911681E+03  0.66087339941E+03  0.12508992947E+03 0.  0.
          5    1    3    3  502    0  0.14273668327E+03  0.56027193677E+02  0.58720710455E+03  0.60691223683E+03  0.41800000000E+01 0. -1.
         -5    1    3    3    0  502 -0.24058913572E+02  0.35028708110E+01  0.47992012264E+02  0.53961162583E+02  0.41800000000E+01 0. -1.
        -11    1    1    2    0    0 -0.22863466300E+02 -0.57595424036E+02  0.23179952990E+03  0.23993956118E+03  0.00000000000E+00 0.  1.
         11    1    1    2    0    0 -0.95814303399E+02 -0.19346404522E+01  0.56713188355E+03  0.57517188467E+03  0.00000000000E+00 0. -1.
</event>
<event>
 7    1  0.3151015E-009  0.5958974E+02  0.7561462E-02  0.1399562E+00
          2   -1    0    0  501    0  0.00000000000E+00  0.00000000000E+00  0.13401594730E+03  0.13401594730E+03  0.00000000000E+00 0. -1.
         -2   -1    0    0    0  501 -0.00000000000E+00 -0.00000000000E+00 -0.79120368590E+02  0.79120368590E+02  0.00000000000E+00 0.  1.
         25    2    1    2    0    0  0.70418638271E+00  0.46282340240E+01  0.46896780152E+02  0.13367844010E+03  0.12509476779E+03 0.  0.
          5    1    3    3  502    0  0.21454794364E+02  0.22032811470E+02  0.82849882671E+02  0.88472190213E+02  0.41800000000E+01 0.  1.
         -5    1    3    3    0  502 -0.20750607981E+02 -0.17404577446E+02 -0.35953102519E+02  0.45206249882E+02  0.41800000000E+01 0.  1.
        -11    1    1    2    0    0  0.29339518522E+02  0.36771413838E+01 -0.21486380578E+02  0.36551241650E+02  0.00000000000E+00 0.  1.
         11    1    1    2    0    0 -0.30043704904E+02 -0.83053754077E+01  0.29485179140E+02  0.42906634149E+02  0.00000000000E+00 0. -1.
</event>
<event>
 7    1  0.3151015E-009  0.9814933E+02  0.7561462E-02  0.1284236E+00
          1   -1    0    0  501    0  0.00000000000E+00  0.00000000000E+00  0.43631832807E+03  0.43631832807E+03  0.00000000000E+00 0. -1.
         -1   -1    0    0    0  501 -0.00000000000E+00 -0.00000000000E+00 -0.28651463347E+02  0.28651463347E+02  0.00000000000E+00 0.  1.
         25    2    1    2    0    0  0.18164039298E+02  0.25436214576E+02  0.25828101355E+03  0.28867549349E+03  0.12509006853E+03 0.  0.
          5    1    3    3  502    0 -0.44818532679E+02 -0.13336442385E+02  0.15229750015E+03  0.15936926466E+03  0.41800000000E+01 0. -1.
         -5    1    3    3    0  502  0.62982571977E+02  0.38772656961E+02  0.10598351340E+03  0.12930622883E+03  0.41800000000E+01 0. -1.
        -11    1    1    2    0    0 -0.43073228465E+02 -0.56101212386E+01  0.30134498542E+02  0.52866477783E+02  0.00000000000E+00 0.  1.
         11    1    1    2    0    0  0.24909189168E+02 -0.19826093338E+02  0.11925135263E+03  0.12342782015E+03  0.00000000000E+00 0. -1.
</event>
<event>
 7    1  0.3151015E-009  0.1149477E+03  0.7561462E-02  0.1251672E+00
          2   -1    0    0  501    0  0.00000000000E+00  0.00000000000E+00  0.27649453332E+03  0.27649453332E+03  0.00000000000E+00 0. -1.
         -2   -1    0    0    0  501 -0.00000000000E+00 -0.00000000000E+00 -0.86674640212E+02  0.86674640212E+02  0.00000000000E+00 0.  1.
         25    2    1    2    0    0 -0.22108211353E+01 -0.75193115738E+02  0.19571773553E+03  0.24415815313E+03  0.12509548096E+03 0.  0.
          5    1    3    3  502    0  0.14500836541E+02  0.31827852883E+02  0.30719010230E+02  0.46737741377E+02  0.41800000000E+01 0. -1.
         -5    1    3    3    0  502 -0.16711657677E+02 -0.10702096862E+03  0.16499872530E+03  0.19742041175E+03  0.41800000000E+01 0. -1.
        -11    1    1    2    0    0  0.16305919718E+02  0.90597590233E+01 -0.39366741428E+02  0.43562628273E+02  0.00000000000E+00 0.  1.
         11    1    1    2    0    0 -0.14095098583E+02  0.66133356714E+02  0.33468899011E+02  0.75448392133E+02  0.00000000000E+00 0. -1.
</event>
<event>
 7    1  0.3151015E-009  0.1297295E+03  0.7561462E-02  0.1227858E+00
         -1   -1    0    0    0  501 -0.00000000000E+00  0.00000000000E+00  0.47678262363E+02  0.47678262363E+02  0.00000000000E+00 0.  1.
          1   -1    0    0  501    0  0.00000000000E+00 -0.00000000000E+00 -0.50032546560E+03  0.50032546560E+03  0.00000000000E+00 0. -1.
         25    2    1    2    0    0  0.12028890843E+01 -0.94792600531E+02 -0.14786890500E+03  0.21563956232E+03  0.12509246065E+03 0.  0.
          5    1    3    3  502    0 -0.26286718560E+02  0.11723217542E+02 -0.82805090501E+02  0.87764348200E+02  0.41800000000E+01 0.  1.
         -5    1    3    3    0  502  0.27489607644E+02 -0.10651581807E+03 -0.65063814502E+02  0.12787521412E+03  0.41800000000E+01 0.  1.
        -11    1    1    2    0    0 -0.36001452287E+02  0.65761619132E+02 -0.11522001364E+03  0.13746398314E+03  0.00000000000E+00 0.  1.
         11    1    1    2    0    0  0.34798563203E+02  0.29030981399E+02 -0.18955828460E+03  0.19490018251E+03  0.00000000000E+00 0. -1.
</event>
<event>
 7    1  0.3151015E-009  0.1634097E+03  0.7561462E-02  0.1184900E+00
         -2   -1    0    0    0  501 -0.00000000000E+00  0.00000000000E+00  0.20229311944E+02  0.20229311944E+02  0.00000000000E+00 0.  1.
          2   -1    0    0  501    0  0.00000000000E+00 -0.00000000000E+00 -0.14220410567E+04  0.14220410567E+04  0.00000000000E+00 0. -1.
         25    2    1    2    0    0  0.11077318459E+03 -0.48412712659E+02 -0.91537177393E+03  0.93175509425E+03  0.12509029529E+03 0.  0.
          5    1    3    3  502    0 -0.23120556729E+02 -0.29992200317E+02 -0.23625685128E+03  0.23930913981E+03  0.41800000000E+01 0. -1.
         -5    1    3    3    0  502  0.13389374132E+03 -0.18420512343E+02 -0.67911492265E+03  0.69244595443E+03  0.41800000000E+01 0. -1.
        -11    1    1    2    0    0 -0.11320046411E+03  0.85056217992E+01 -0.32720108818E+03  0.34633400466E+03  0.00000000000E+00 0. -1.
         11    1    1    2    0    0  0.24272795210E+01  0.39907090860E+02 -0.15923888264E+03  0.16418126973E+03  0.00000000000E+00 0.  1.
</event>
<event>
 7    1  0.3151015E-009  0.5245458E+02  0.7561462E-02  0.1432535E+00
          1   -1    0    0  501    0  0.00000000000E+00  0.00000000000E+00  0.37653090391E+02  0.37653090391E+02  0.00000000000E+00 0. -1.
         -1   -1    0    0    0  501 -0.00000000000E+00 -0.00000000000E+00 -0.47455443883E+03  0.47455443883E+03  0.00000000000E+00 0.  1.
         25    2    1    2    0    0  0.45498116781E+02  0.22578000873E+02 -0.35709668904E+03  0.38176604825E+03  0.12508966992E+03 0.  0.
          5    1    3    3  502    0  0.44292671353E+02  0.22138014572E+02 -0.37791140139E+02  0.62430562209E+02  0.41800000000E+01 0.  1.
         -5    1    3    3    0  502  0.12054454276E+01  0.43998630108E+00 -0.31930554890E+03  0.31933548604E+03  0.41800000000E+01 0.  1.
        -11    1    1    2    0    0 -0.14678896055E+02 -0.61022879974E+01 -0.92049153957E+02  0.93411747936E+02  0.00000000000E+00 0.  1.
         11    1    1    2    0    0 -0.30819220725E+02 -0.16475712876E+02  0.12244494565E+02  0.37029733027E+02  0.00000000000E+00 0. -1.
</event>
<event>
 7    1  0.3151015E-009  0.9563562E+02  0.7561462E-02  0.1289751E+00
         -3   -1    0    0    0  501 -0.00000000000E+00  0.00000000000E+00  0.17867511352E+02  0.17867511352E+02  0.00000000000E+00 0.  1.
          3   -1    0    0  501    0  0.00000000000E+00 -0.00000000000E+00 -0.67457218740E+03  0.67457218740E+03  0.00000000000E+00 0. -1.
         25    2    1    2    0    0 -0.86112691757E+01  0.13999233204E+02 -0.42750078859E+03  0.44572896272E+03  0.12508897423E+03 0.  0.
          5    1    3    3  502    0 -0.36489974325E+02  0.58315750955E+02 -0.18059173816E+03  0.19329535258E+03  0.41800000000E+01 0.  1.
         -5    1    3    3    0  502  0.27878705149E+02 -0.44316517750E+02 -0.24690905042E+03  0.25243361014E+03  0.41800000000E+01 0.  1.
        -11    1    1    2    0    0 -0.26178269939E+02  0.94989160014E+01 -0.22543647151E+02  0.35829418766E+02  0.00000000000E+00 0.  1.
         11    1    1    2    0    0  0.34789539115E+02 -0.23498149206E+02 -0.20666024031E+03  0.21088131727E+03  0.00000000000E+00 0. -1.
</event>
<event>
 7    1  0.3151015E-009  0.1123612E+03  0.7561462E-02  0.1256259E+00
         -2   -1    0    0    0  501 -0.00000000000E+00  0.00000000000E+00  0.24180704547E+02  0.24180704547E+02  0.00000000000E+00 0.  1.
          2   -1    0    0  501    0  0.00000000000E+00 -0.00000000000E+00 -0.20090920494E+04  0.20090920494E+04  0.00000000000E+00 0. -1.
         25    2    1    2    0    0  0.94073916554E+01  0.67324676869E+02 -0.17213365325E+04  0.17272140659E+04  0.12509140696E+03 0.  0.
          5    1    3    3  502    0 -0.30334349934E+02  0.90666065358E+02 -0.12187562632E+04  0.12225075908E+04  0.41800000000E+01 0.  1.
         -5    1    3    3    0  502  0.39741741590E+02 -0.23341388489E+02 -0.50258026937E+03  0.50470647510E+03  0.41800000000E+01 0.  1.
        -11    1    1    2    0    0 -0.28590215825E+02 -0.44978318445E+02 -0.27058618504E+03  0.27578493995E+03  0.00000000000E+00 0. -1.
         11    1    1    2    0    0  0.19182824169E+02 -0.22346358424E+02  0.70113726924E+01  0.30273748115E+02  0.00000000000E+00 0.  1.
</event>
<event>
 7    1  0.6488781E-009  0.1850470E+03  0.7561462E-02  0.1163006E+00
          1   -1    0    0  501    0  0.00000000000E+00  0.00000000000E+00  0.73256537450E+03  0.73256537450E+03  0.00000000000E+00 0. -1.
         -1   -1    0    0    0  501 -0.00000000000E+00 -0.00000000000E+00 -0.65446424370E+02  0.65446424370E+02  0.00000000000E+00 0.  1.
         25    2    1    2    0    0  0.61168525642E+02 -0.15090994011E+03  0.16857487236E+03  0.26566931412E+03  0.12508916149E+03 0.  0.
          5    1    3    3  502    0  0.99709950664E+02 -0.11418217214E+03  0.11841716545E+03  0.19240514590E+03  0.41800000000E+01 0. -1.
         -5    1    3    3    0  502 -0.38541425022E+02 -0.36727767972E+02  0.50157706911E+02  0.73264168223E+02  0.41800000000E+01 0. -1.
        -11    1    1    2    0    0 -0.36848433818E+02  0.55767642882E+02  0.89673835880E+02  0.11184468655E+03  0.00000000000E+00 0.  1.
         11    1    1    2    0    0 -0.24320091825E+02  0.95142297225E+02  0.40887024189E+03  0.42049779820E+03  0.00000000000E+00 0. -1.
</event>
<event>
 7    1  0.3151015E-009  0.2398697E+03  0.7561462E-02  0.1119880E+00
         -1   -1    0    0    0  501 -0.00000000000E+00  0.00000000000E+00  0.23442050411E+03  0.23442050411E+03  0.00000000000E+00 0. -1.
          1   -1    0    0  501    0  0.00000000000E+00 -0.00000000000E+00 -0.27654590523E+03  0.27654590523E+03  0.00000000000E+00 0.  1.
         25    2    1    2    0    0  0.18739211718E+03 -0.11781149933E+03  0.38159757406E+02  0.25709439199E+03  0.12508398919E+03 0.  0.
          5    1    3    3  502    0  0.32564201505E+02 -0.91407933621E+02  0.14005859619E+02  0.98129883584E+02  0.41800000000E+01 0.  1.
         -5    1    3    3    0  502  0.15482791567E+03 -0.26403565710E+02  0.24153897786E+02  0.15896450840E+03  0.41800000000E+01 0.  1.
        -11    1    1    2    0    0 -0.77276395393E+02  0.24230165595E+02  0.12779886709E+02  0.81988216922E+02  0.00000000000E+00 0. -1.
         11    1    1    2    0    0 -0.11011572178E+03  0.93581333737E+02 -0.93065045237E+02  0.17188380044E+03  0.00000000000E+00 0.  1.
</event>
<event>
 7    1  0.3151015E-009  0.1110412E+03  0.7561462E-02  0.1258654E+00
         -1   -1    0    0    0  501 -0.00000000000E+00  0.00000000000E+00  0.31053893515E+02  0.31053893515E+02  0.00000000000E+00 0.  1.
          1   -1    0    0  501    0  0.00000000000E+00 -0.00000000000E+00 -0.70104263615E+03  0.70104263615E+03  0.00000000000E+00 0. -1.
         25    2    1    2    0    0  0.51954746215E+02  0.10478219887E+02 -0.15314801131E+03  0.20471998896E+03  0.12508745646E+03 0.  0.
          5    1    3    3  502    0 -0.17864493304E+02 -0.32854277479E+02 -0.99801595651E+02  0.10666008890E+03  0.41800000000E+01 0.  1.
         -5    1    3    3    0  502  0.69819239519E+02  0.43332497366E+02 -0.53346415661E+02  0.98059900055E+02  0.41800000000E+01 0.  1.
        -11    1    1    2    0    0  0.10854898596E+02 -0.33548069868E+02 -0.12561874421E+03  0.13047363991E+03  0.00000000000E+00 0.  1.
         11    1    1    2    0    0 -0.62809644811E+02  0.23069849981E+02 -0.39122198711E+03  0.39690290080E+03  0.00000000000E+00 0. -1.
</event>
<event>
 7    1  0.3151015E-009  0.9755044E+02  0.7561462E-02  0.1285533E+00
          1   -1    0    0  501    0  0.00000000000E+00  0.00000000000E+00  0.18125566744E+03  0.18125566744E+03  0.00000000000E+00 0. -1.
         -1   -1    0    0    0  501 -0.00000000000E+00 -0.00000000000E+00 -0.90070288763E+02  0.90070288763E+02  0.00000000000E+00 0.  1.
         25    2    1    2    0    0 -0.37311983844E+02 -0.43646667923E+02  0.10810131667E+02  0.13806344515E+03  0.12508972852E+03 0.  0.
          5    1    3    3  502    0 -0.48206236793E+02  0.33979655730E+02  0.36434409334E+01  0.59238545991E+02  0.41800000000E+01 0.  1.
         -5    1    3    3    0  502  0.10894252949E+02 -0.77626323653E+02  0.71666907334E+01  0.78824899158E+02  0.41800000000E+01 0.  1.
        -11    1    1    2    0    0  0.10135674934E+02  0.10186942004E+02 -0.19650256916E+02  0.24344163379E+02  0.00000000000E+00 0.  1.
         11    1    1    2    0    0  0.27176308910E+02  0.33459725919E+02  0.10002550392E+03  0.10891834767E+03  0.00000000000E+00 0. -1.
</event>
<event>
 7    1  0.3151015E-009  0.1517043E+03  0.7561462E-02  0.1198394E+00
          2   -1    0    0  501    0  0.00000000000E+00  0.00000000000E+00  0.10472507579E+04  0.10472507579E+04  0.00000000000E+00 0. -1.
         -2   -1    0    0    0  501 -0.00000000000E+00 -0.00000000000E+00 -0.36968079367E+02  0.36968079367E+02  0.00000000000E+00 0.  1.
         25    2    1    2    0    0  0.13361305694E+03 -0.25945399305E+02  0.78938770442E+03  0.81074432138E+03  0.12509114291E+03 0.  0.
          5    1    3    3  502    0  0.13855390030E+02  0.95294865965E+01  0.74138998698E+01  0.18847314370E+02  0.41800000000E+01 0.  1.
         -5    1    3    3    0  502  0.11975766691E+03 -0.35474885901E+02  0.78197380455E+03  0.79189700701E+03  0.41800000000E+01 0.  1.
        -11    1    1    2    0    0 -0.13817349198E+03  0.35130480262E+01  0.18576606180E+03  0.23154542774E+03  0.00000000000E+00 0. -1.
         11    1    1    2    0    0  0.45604350449E+01  0.22432351279E+02  0.35128912294E+02  0.41929088121E+02  0.00000000000E+00 0.  1.
</event>
<event>
 7    1  0.3151015E-009  0.1160381E+03  0.7561462E-02  0.1249780E+00
          1   -1    0    0  501    0  0.00000000000E+00  0.00000000000E+00  0.35356677692E+02  0.35356677692E+02  0.00000000000E+00 0. -1.
         -1   -1    0    0    0  501 -0.00000000000E+00 -0.00000000000E+00 -0.52050416751E+03  0.52050416751E+03  0.00000000000E+00 0.  1.
         25    2    1    2    0    0  0.54988363264E+02  0.22404647665E+02 -0.15344069754E+03  0.20668146139E+03  0.12508992961E+03 0.  0.
          5    1    3    3  502    0  0.41287690817E+02 -0.41770154686E+02 -0.11826077557E+03  0.13210792056E+03  0.41800000000E+01 0.  1.
         -5    1    3    3    0  502  0.13700672447E+02  0.64174802351E+02 -0.35179921966E+02  0.74573540830E+02  0.41800000000E+01 0.  1.
        -11    1    1    2    0    0 -0.54968115954E+02  0.24752932443E+02 -0.15565652753E+03  0.16692260482E+03  0.00000000000E+00 0. -1.
         11    1    1    2    0    0 -0.20247309741E-01 -0.47157580109E+02 -0.17605026475E+03  0.18225677899E+03  0.00000000000E+00 0.  1.
</event>
<event>
 7    1  0.3151015E-009  0.2295787E+03  0.7561462E-02  0.1126937E+00
         -2   -1    0    0    0  501 -0.00000000000E+00  0.00000000000E+00  0.31015849646E+02  0.31015849646E+02  0.00000000000E+00 0.  1.
          2   -1    0    0  501    0  0.00000000000E+00 -0.00000000000E+00 -0.20198710385E+04  0.20198710385E+04  0.00000000000E+00 0. -1.
         25    2    1    2    0    0 -0.21973813385E+03  0.17872893911E+02 -0.84175587715E+03  0.87909266393E+03  0.12508663897E+03 0.  0.
          5    1    3    3  502    0 -0.12578180861E+03  0.17732954608E+02 -0.25576402008E+03  0.28560151860E+03  0.41800000000E+01 0.  1.
         -5    1    3    3    0  502 -0.93956325240E+02  0.13993930338E+00 -0.58599185707E+03  0.59349114533E+03  0.41800000000E+01 0.  1.
        -11    1    1    2    0    0  0.89992294300E+02 -0.51892532348E+02 -0.44123690820E+03  0.45330062553E+03  0.00000000000E+00 0.  1.
         11    1    1    2    0    0  0.12974583955E+03  0.34019638437E+02 -0.70586240356E+03  0.71849359874E+03  0.00000000000E+00 0. -1.
</event>
<event>
 7    1  0.3151015E-009  0.1841759E+03  0.7561462E-02  0.1163822E+00
         -2   -1    0    0    0  501 -0.00000000000E+00  0.00000000000E+00  0.34872280539E+02  0.34872280539E+02  0.00000000000E+00 0.  1.
          2   -1    0    0  501    0  0.00000000000E+00 -0.00000000000E+00 -0.12703008743E+04  0.12703008743E+04  0.00000000000E+00 0. -1.
         25    2    1    2    0    0  0.15755421098E+03 -0.87998533147E+02 -0.70183888925E+03  0.73538613089E+03  0.12509142178E+03 0.  0.
          5    1    3    3  502    0  0.22741508972E+01  0.49398881910E+01 -0.22868959804E+03  0.22879243630E+03  0.41800000000E+01 0. -1.
         -5    1    3    3    0  502  0.15528006008E+03 -0.92938421338E+02 -0.47314929121E+03  0.50659369459E+03  0.41800000000E+01 0. -1.
        -11    1    1    2    0    0 -0.41153481246E+02  0.24074699833E+02 -0.53467794601E+02  0.71638015399E+02  0.00000000000E+00 0.  1.
         11    1    1    2    0    0 -0.11640072973E+03  0.63923833315E+02 -0.48012190992E+03  0.49814900856E+03  0.00000000000E+00 0. -1.
</event>
<event>
 7    1  0.3151015E-009  0.1085080E+03  0.7561462E-02  0.1263358E+00
          1   -1    0    0  501    0  0.00000000000E+00  0.00000000000E+00  0.60045559393E+02  0.60045559393E+02  0.00000000000E+00 0. -1.
         -1   -1    0    0    0  501 -0.00000000000E+00 -0.00000000000E+00 -0.35234502740E+03  0.35234502740E+03  0.00000000000E+00 0.  1.
         25    2    1    2    0    0 -0.88138667281E+01 -0.86606934325E+02 -0.22719407573E+03  0.27357625720E+03  0.12509346560E+03 0.  0.
          5    1    3    3  502    0  0.17757732951E+01 -0.87026957816E+02 -0.24065143245E+03  0.25594419137E+03  0.41800000000E+01 0.  1.
         -5    1    3    3    0  502 -0.10589640023E+02  0.42002349160E+00  0.13457356717E+02  0.17632065828E+02  0.41800000000E+01 0.  1.
        -11    1    1    2    0    0 -0.36016801549E+02  0.38592080476E+02 -0.11495673036E+02  0.54025079063E+02  0.00000000000E+00 0.  1.
         11    1    1    2    0    0  0.44830668277E+02  0.48014853849E+02 -0.53609719233E+02  0.84789250525E+02  0.00000000000E+00 0. -1.
</event>
<event>
 7    1  0.3151015E-009  0.1004484E+03  0.7561462E-02  0.1279356E+00
         -1   -1    0    0    0  501 -0.00000000000E+00  0.00000000000E+00  0.21486729943E+03  0.21486729943E+03  0.00000000000E+00 0.  1.
          1   -1    0    0  501    0  0.00000000000E+00 -0.00000000000E+00 -0.95372174541E+02  0.95372174541E+02  0.00000000000E+00 0. -1.
         25    2    1    2    0    0 -0.29720939476E+02  0.19543375671E+02  0.15845265618E+03  0.20498873465E+03  0.12509140381E+03 0.  0.
          5    1    3    3  502    0  0.23317161939E+01  0.61872709856E+02  0.13125536516E+03  0.14518647460E+03  0.41800000000E+01 0. -1.
         -5    1    3    3    0  502 -0.32052655669E+02 -0.42329334185E+02  0.27197291021E+02  0.59802260048E+02  0.41800000000E+01 0. -1.
        -11    1    1    2    0    0 -0.17681541809E+02 -0.32006580834E+02  0.79366094525E+01  0.37417214047E+02  0.00000000000E+00 0.  1.
         11    1    1    2    0    0  0.47402481285E+02  0.12463205163E+02 -0.46894140742E+02  0.67833525272E+02  0.00000000000E+00 0. -1.
</event>
<event>
 7    1  0.3151015E-009  0.9328645E+02  0.7561462E-02  0.1295083E+00
         -2   -1    0    0    0  501 -0.00000000000E+00  0.00000000000E+00  0.51241629216E+02  0.51241629216E+02  0.00000000000E+00 0.  1.
          2   -1    0    0  501    0  0.00000000000E+00 -0.00000000000E+00 -0.33130709296E+03  0.33130709296E+03  0.00000000000E+00 0. -1.
         25    2    1    2    0    0 -0.53165234269E+02 -0.34607387102E+01 -0.84419904723E+02  0.16004047135E+03  0.12509082024E+03 0.  0.
          5    1    3    3  502    0  0.18001362554E+02  0.22285739711E+02  0.16887677469E+02  0.33516701785E+02  0.41800000000E+01 0.  1.
         -5    1    3    3    0  502 -0.71166596823E+02 -0.25746478421E+02 -0.10130758219E+03  0.12652376956E+03  0.41800000000E+01 0.  1.
        -11    1    1    2    0    0  0.52583105425E+02 -0.21535798912E+02 -0.18794364583E+03  0.19634558212E+03  0.00000000000E+00 0. -1.
         11    1    1    2    0    0  0.58212884402E+00  0.24996537622E+02 -0.77019131908E+01  0.26162668707E+02  0.00000000000E+00 0.  1.
</event>
<event>
 7    1  0.3151015E-009  0.2287700E+03  0.7561462E-02  0.1127509E+00
         -1   -1    0    0    0  501 -0.00000000000E+00  0.00000000000E+00  0.54096883475E+03  0.54096883475E+03  0.00000000000E+00 0.  1.
          1   -1    0    0  501    0  0.00000000000E+00 -0.00000000000E+00 -0.11622149186E+03  0.11622149186E+03  0.00000000000E+00 0. -1.
         25    2    1    2    0    0 -0.20974194929E+03 -0.47618338579E+02  0.12595704511E+03  0.27887594824E+03  0.12508967117E+03 0.  0.
          5    1    3    3  502    0 -0.19147899219E+03 -0.69967737736E+02  0.69663350405E+02  0.21547654991E+03  0.41800000000E+01 0.  1.
         -5    1    3    3    0  502 -0.18262957106E+02  0.22349399157E+02  0.56293694704E+02  0.63399398328E+02  0.41800000000E+01 0.  1.
        -11    1    1    2    0    0  0.27660344754E+02  0.31132633395E+02  0.99514324617E+02  0.10787694998E+03  0.00000000000E+00 0.  1.
         11    1    1    2    0    0  0.18208160454E+03  0.16485705184E+02  0.19927597316E+03  0.27043742838E+03  0.00000000000E+00 0. -1.
</event>
<event>
 6    1  0.3447451E-009  0.1235295E+03  0.7561462E-02  0.1237385E+00
         -1   -1    0    0    0  501 -0.00000000000E+00  0.00000000000E+00  0.15514186155E+03  0.15514186155E+03  0.00000000000E+00 0.  1.
          1   -1    0    0  501    0  0.00000000000E+00 -0.00000000000E+00 -0.11279382087E+03  0.11279382087E+03  0.00000000000E+00 0. -1.
          5    1    1    2  502    0 -0.37315493298E+02 -0.69225523007E+02  0.12131751852E+02  0.79682312206E+02  0.41800000000E+01 0.  1.
         -5    1    1    2    0  502 -0.32290552279E+02  0.52762481940E+02  0.36703719980E+02  0.72049946061E+02  0.41800000000E+01 0.  1.
        -11    1    1    2    0    0  0.83009962951E+02 -0.25422354317E+01  0.15171542155E+02  0.84423294188E+02  0.00000000000E+00 0.  1.
         11    1    1    2    0    0 -0.13403917374E+02  0.19005276498E+02 -0.21658973310E+02  0.31780129965E+02  0.00000000000E+00 0. -1.
</event>
<event>
 7    1  0.3151015E-009  0.1107007E+03  0.7561462E-02  0.1259278E+00
         -2   -1    0    0    0  501 -0.00000000000E+00  0.00000000000E+00  0.20449373163E+02  0.20449373163E+02  0.00000000000E+00 0. -1.
          2   -1    0    0  501    0  0.00000000000E+00 -0.00000000000E+00 -0.88195388121E+03  0.88195388121E+03  0.00000000000E+00 0.  1.
         25    2    1    2    0    0  0.26570322910E+02  0.73734866037E+02 -0.48317129506E+03  0.50521871684E+03  0.12509452004E+03 0.  0.
          5    1    3    3  502    0 -0.25492234450E+02  0.41574986048E+02 -0.59112725475E+02  0.76747118481E+02  0.41800000000E+01 0.  1.
         -5    1    3    3    0  502  0.52062557360E+02  0.32159879989E+02 -0.42405856959E+03  0.42847159836E+03  0.41800000000E+01 0.  1.
        -11    1    1    2    0    0 -0.48318414663E+02 -0.18471681186E+02 -0.25629317787E+03  0.26146140293E+03  0.00000000000E+00 0.  1.
         11    1    1    2    0    0  0.21748091753E+02 -0.55263184850E+02 -0.12204003512E+03  0.13572313460E+03  0.00000000000E+00 0. -1.
</event>
<event>
 7    1  0.3151015E-009  0.7817035E+02  0.7561462E-02  0.1334325E+00
          1   -1    0    0  501    0  0.00000000000E+00  0.00000000000E+00  0.14819045211E+03  0.14819045211E+03  0.00000000000E+00 0. -1.
         -1   -1    0    0    0  501 -0.00000000000E+00 -0.00000000000E+00 -0.88310012973E+02  0.88310012973E+02  0.00000000000E+00 0.  1.
         25    2    1    2    0    0 -0.65725312712E+01 -0.29271489236E+02  0.96917383978E+01  0.12900318212E+03  0.12509145836E+03 0.  0.
          5    1    3    3  502    0 -0.34077664782E+02 -0.16894072467E+02  0.59430695429E+02  0.70683639413E+02  0.41800000000E+01 0. -1.
         -5    1    3    3    0  502  0.27505133511E+02 -0.12377416769E+02 -0.49738957031E+02  0.58319542710E+02  0.41800000000E+01 0. -1.
        -11    1    1    2    0    0 -0.37999364675E+02  0.14463074594E+02  0.27661977738E+01  0.40752718837E+02  0.00000000000E+00 0.  1.
         11    1    1    2    0    0  0.44571895947E+02  0.14808414641E+02  0.47422502962E+02  0.66744564121E+02  0.00000000000E+00 0. -1.
</event>
<event>
 7    1  0.3151015E-009  0.2784142E+03  0.7561462E-02  0.1096558E+00
         -2   -1    0    0    0  501 -0.00000000000E+00  0.00000000000E+00  0.99975934237E+02  0.99975934237E+02  0.00000000000E+00 0.  1.
          2   -1    0    0  501    0  0.00000000000E+00 -0.00000000000E+00 -0.10713278333E+04  0.10713278333E+04  0.00000000000E+00 0. -1.
         25    2    1    2    0    0 -0.26822806584E+03 -0.71523078936E+02 -0.25266748204E+03  0.39566498213E+03  0.12509226786E+03 0.  0.
          5    1    3    3  502    0 -0.94870681582E+02 -0.16590421964E+02 -0.17093742755E+03  0.19624669389E+03  0.41800000000E+01 0. -1.
         -5    1    3    3    0  502 -0.17335738426E+03 -0.54932656972E+02 -0.81730054495E+02  0.19941828825E+03  0.41800000000E+01 0. -1.
        -11    1    1    2    0    0  0.22733458141E+03  0.68912812209E+02 -0.50526684472E+03  0.55832299968E+03  0.00000000000E+00 0.  1.
         11    1    1    2    0    0  0.40893484431E+02  0.26102667267E+01 -0.21341757231E+03  0.21731578574E+03  0.00000000000E+00 0. -1.
</event>
<event>
 7    1  0.3151015E-009  0.1265288E+03  0.7561462E-02  0.1232699E+00
          2   -1    0    0  501    0  0.00000000000E+00  0.00000000000E+00  0.56098484506E+03  0.56098484506E+03  0.00000000000E+00 0.  1.
         -2   -1    0    0    0  501 -0.00000000000E+00 -0.00000000000E+00 -0.34984133304E+02  0.34984133304E+02  0.00000000000E+00 0. -1.
         25    2    1    2    0    0 -0.53093918502E+02 -0.70115445675E+02  0.26612820699E+03  0.30693144913E+03  0.12509017549E+03 0.  0.
          5    1    3    3  502    0 -0.40183576200E+02  0.19036954494E+02  0.29040331914E+02  0.53272307161E+02  0.41800000000E+01 0.  1.
         -5    1    3    3    0  502 -0.12910342302E+02 -0.89152400169E+02  0.23708787508E+03  0.25365914197E+03  0.41800000000E+01 0.  1.
        -11    1    1    2    0    0  0.34506310433E+01  0.68459626458E+02  0.97115720116E+02  0.11887005680E+03  0.00000000000E+00 0. -1.
         11    1    1    2    0    0  0.49643287459E+02  0.16558192166E+01  0.16275678464E+03  0.17016747243E+03  0.00000000000E+00 0.  1.
</event>
<event>
 7    1  0.3508610E-009  0.8689244E+02  0.7561462E-02  0.1310556E+00
          1   -1    0    0  501    0  0.00000000000E+00  0.00000000000E+00  0.13898354563E+03  0.13898354563E+03  0.00000000000E+00 0. -1.
         -1   -1    0    0    0  501 -0.00000000000E+00 -0.00000000000E+00 -0.13200815531E+03  0.13200815531E+03  0.00000000000E+00 0.  1.
         25    2    1    2    0    0 -0.69605148674E+02 -0.86741134391E+01 -0.36429478809E+02  0.14797140984E+03  0.12509322218E+03 0.  0.
          5    1    3    3  502    0 -0.27639494258E+02 -0.41123916633E+02  0.33604148928E+02  0.60015242957E+02  0.41800000000E+01 0. -1.
         -5    1    3    3    0  502 -0.41965654416E+02  0.32449803193E+02 -0.70033627737E+02  0.87956166878E+02  0.41800000000E+01 0. -1.
        -11    1    1    2    0    0  0.53629390282E+02  0.23984978374E+01 -0.20034765904E+02  0.57299704525E+02  0.00000000000E+00 0.  1.
         11    1    1    2    0    0  0.15975758393E+02  0.62756156018E+01  0.63439635031E+02  0.65720586579E+02  0.00000000000E+00 0. -1.
</event>
<event>
 7    1  0.3151015E-009  0.1584663E+03  0.7561462E-02  0.1190439E+00
          2   -1    0    0  501    0  0.00000000000E+00  0.00000000000E+00  0.19749170744E+03  0.19749170744E+03  0.00000000000E+00 0.  1.
         -2   -1    0    0    0  501 -0.00000000000E+00 -0.00000000000E+00 -0.16207484644E+03  0.16207484644E+03  0.00000000000E+00 0. -1.
         25    2    1    2    0    0 -0.97480271244E+02  0.82692203617E+02 -0.40571295497E+02  0.18339389448E+03  0.12508751614E+03 0.  0.
          5    1    3    3  502    0 -0.18415958212E+01 -0.28219355277E+02  0.68560209323E+01  0.29397294271E+02  0.41800000000E+01 0. -1.
         -5    1    3    3    0  502 -0.95638675423E+02  0.11091155889E+03 -0.47427316429E+02  0.15399660021E+03  0.41800000000E+01 0. -1.
        -11    1    1    2    0    0 -0.62164869388E+01 -0.19345619181E+02 -0.14248124449E+02  0.24817468479E+02  0.00000000000E+00 0. -1.
         11    1    1    2    0    0  0.10369675818E+03 -0.63346584436E+02  0.90236280951E+02  0.15135519092E+03  0.00000000000E+00 0.  1.
</event>
<event>
 7    1  0.3151015E-009  0.2044396E+03  0.7561462E-02  0.1146046E+00
         -2   -1    0    0    0  501 -0.00000000000E+00  0.00000000000E+00  0.19885340666E+02  0.19885340666E+02  0.00000000000E+00 0.  1.
          2   -1    0    0  501    0  0.00000000000E+00 -0.00000000000E+00 -0.21742399121E+04  0.21742399121E+04  0.00000000000E+00 0. -1.
         25    2    1    2    0    0 -0.10895187197E+03 -0.13782969745E+03 -0.12194944105E+04  0.12384190628E+04  0.12509045481E+03 0.  0.
          5    1    3    3  502    0 -0.13128247911E+03 -0.13481498975E+03 -0.98614861961E+03  0.10039505681E+04  0.41800000000E+01 0. -1.
         -5    1    3    3    0  502  0.22330607140E+02 -0.30147077081E+01 -0.23334579092E+03  0.23446849473E+03  0.41800000000E+01 0. -1.
        -11    1    1    2    0    0 -0.12014527274E+02  0.41200366490E+02 -0.23998445926E+03  0.24379163183E+03  0.00000000000E+00 0. -1.
         11    1    1    2    0    0  0.12096639925E+03  0.96629330964E+02 -0.69487570162E+03  0.71191455811E+03  0.00000000000E+00 0.  1.
</event>
<event>
 7    1  0.3151015E-009  0.2558496E+03  0.7561462E-02  0.1109663E+00
         -2   -1    0    0    0  501 -0.00000000000E+00  0.00000000000E+00  0.29267253090E+03  0.29267253090E+03  0.00000000000E+00 0. -1.
          2   -1    0    0  501    0  0.00000000000E+00 -0.00000000000E+00 -0.23320630992E+03  0.23320630992E+03  0.00000000000E+00 0.  1.
         25    2    1    2    0    0 -0.59083492785E+02 -0.22899076475E+03  0.46546037415E+02  0.27155367684E+03  0.12508891376E+03 0.  0.
          5    1    3    3  502    0 -0.76341964041E+02 -0.91982643481E+02 -0.14554153171E+02  0.12049148497E+03  0.41800000000E+01 0.  1.
         -5    1    3    3    0  502  0.17258471256E+02 -0.13700812127E+03  0.61100190586E+02  0.15106219187E+03  0.41800000000E+01 0.  1.
        -11    1    1    2    0    0 -0.23558428585E+02  0.81878340843E+02  0.17066309739E+01  0.85217221534E+02  0.00000000000E+00 0. -1.
         11    1    1    2    0    0  0.82641921370E+02  0.14711242391E+03  0.11213552584E+02  0.16910794244E+03  0.00000000000E+00 0.  1.
</event>
<event>
 7    1  0.3151015E-009  0.1703599E+03  0.7561462E-02  0.1177473E+00
          2   -1    0    0  501    0  0.00000000000E+00  0.00000000000E+00  0.20719017710E+03  0.20719017710E+03  0.00000000000E+00 0.  1.
         -2   -1    0    0    0  501 -0.00000000000E+00 -0.00000000000E+00 -0.16891154821E+03  0.16891154821E+03  0.00000000000E+00 0. -1.
         25    2    1    2    0    0  0.14504782987E+03  0.23212242185E+02 -0.14311366337E+02  0.19346555361E+03  0.12508566700E+03 0.  0.
          5    1    3    3  502    0  0.53920993575E+01 -0.24810115089E+02 -0.35886199074E+02  0.44157765231E+02  0.41800000000E+01 0. -1.
         -5    1    3    3    0  502  0.13965573051E+03  0.48022357274E+02  0.21574832737E+02  0.14930778838E+03  0.41800000000E+01 0. -1.
        -11    1    1    2    0    0 -0.11524616247E+02 -0.31425754032E+02 -0.10011771062E+02  0.34937520747E+02  0.00000000000E+00 0. -1.
         11    1    1    2    0    0 -0.13352321362E+03  0.82135118478E+01  0.62601766291E+02  0.14769865096E+03  0.00000000000E+00 0.  1.
</event>
<event>
 7    1  0.3151015E-009  0.1004743E+03  0.7561462E-02  0.1279302E+00
          3   -1    0    0  501    0  0.00000000000E+00  0.00000000000E+00  0.24874791218E+03  0.24874791218E+03  0.00000000000E+00 0. -1.
         -3   -1    0    0    0  501 -0.00000000000E+00 -0.00000000000E+00 -0.50052742334E+02  0.50052742334E+02  0.00000000000E+00 0.  1.
         25    2    1    2    0    0 -0.17047146437E+02 -0.16780256985E+02  0.13635514878E+03  0.18658109610E+03  0.12509035374E+03 0.  0.
          5    1    3    3  502    0 -0.37589934559E+02  0.42279000890E+02  0.32766582398E+02  0.65510597757E+02  0.41800000000E+01 0. -1.
         -5    1    3    3    0  502  0.20542788123E+02 -0.59059257875E+02  0.10358856638E+03  0.12107049834E+03  0.41800000000E+01 0. -1.
        -11    1    1    2    0    0  0.47642728519E+02  0.22889185453E+01  0.82457889722E+01  0.48405183241E+02  0.00000000000E+00 0.  1.
         11    1    1    2    0    0 -0.30595582082E+02  0.14491338440E+02  0.54094232100E+02  0.63814375177E+02  0.00000000000E+00 0. -1.
</event>
<event>
 7    1  0.3151015E-009  0.1159730E+03  0.7561462E-02  0.1249892E+00
          1   -1    0    0  501    0  0.00000000000E+00  0.00000000000E+00  0.90869730880E+03  0.90869730880E+03  0.00000000000E+00 0. -1.
         -1   -1    0    0    0  501 -0.00000000000E+00 -0.00000000000E+00 -0.22228428036E+02  0.22228428036E+02  0.00000000000E+00 0.  1.
         25    2    1    2    0    0 -0.57540567758E+02 -0.24933644950E+02  0.70003409646E+03  0.71388234653E+03  0.12509062672E+03 0.  0.
          5    1    3    3  502    0 -0.83298178224E+02  0.13061559901E+02  0.56324187212E+03  0.56953320338E+03  0.41800000000E+01 0.  1.
         -5    1    3    3    0  502  0.25757610466E+02 -0.37995204851E+02  0.13679222434E+03  0.14434914315E+03  0.41800000000E+01 0.  1.
        -11    1    1    2    0    0  0.61996605647E+01 -0.27416864767E+02  0.18100691646E+02  0.33432847662E+02  0.00000000000E+00 0.  1.
         11    1    1    2    0    0  0.51340907193E+02  0.52350509716E+02  0.16833409266E+03  0.18361054264E+03  0.00000000000E+00 0. -1.
</event>
<event>
 7    1  0.3151015E-009  0.1109429E+03  0.7561462E-02  0.1258834E+00
          2   -1    0    0  501    0  0.00000000000E+00  0.00000000000E+00  0.53650846112E+03  0.53650846112E+03  0.00000000000E+00 0. -1.
         -2   -1    0    0    0  501 -0.00000000000E+00 -0.00000000000E+00 -0.25270678563E+02  0.25270678563E+02  0.00000000000E+00 0.  1.
         25    2    1    2    0    0  0.25396097242E+02  0.19883903665E+02  0.35636759350E+03  0.37905846034E+03  0.12508846182E+03 0.  0.
          5    1    3    3  502    0  0.63733756669E+02 -0.24193344769E+02  0.22697955351E+03  0.23703269771E+03  0.41800000000E+01 0. -1.
         -5    1    3    3    0  502 -0.38337659427E+02  0.44077248434E+02  0.12938803999E+03  0.14202576263E+03  0.41800000000E+01 0. -1.
        -11    1    1    2    0    0 -0.58000358760E+02 -0.22722076614E+02  0.11790921707E+03  0.13335260722E+03  0.00000000000E+00 0. -1.
         11    1    1    2    0    0  0.32604261518E+02  0.28381729492E+01  0.36960971988E+02  0.49368072122E+02  0.00000000000E+00 0.  1.
</event>
<event>
 7    1  0.3151015E-009  0.7776461E+02  0.7561462E-02  0.1335518E+00
          1   -1    0    0  501    0  0.00000000000E+00  0.00000000000E+00  0.73552246388E+03  0.73552246388E+03  0.00000000000E+00 0. -1.
         -1   -1    0    0    0  501 -0.00000000000E+00 -0.00000000000E+00 -0.25143563551E+02  0.25143563551E+02  0.00000000000E+00 0.  1.
         25    2    1    2    0    0 -0.19500187695E+02  0.23873266110E+02  0.60809359153E+03  0.62159115602E+03  0.12509020352E+03 0.  0.
          5    1    3    3  502    0 -0.38639593075E+02  0.13219677746E+02  0.58067461542E+02  0.71113152951E+02  0.41800000000E+01 0. -1.
         -5    1    3    3    0  502  0.19139405381E+02  0.10653588365E+02  0.55002612999E+03  0.55047800306E+03  0.41800000000E+01 0. -1.
        -11    1    1    2    0    0 -0.34017718143E+02 -0.17577115002E+02  0.28622468439E+02  0.47805918243E+02  0.00000000000E+00 0.  1.
         11    1    1    2    0    0  0.53517905838E+02 -0.62961511087E+01  0.73662840357E+02  0.91268953174E+02  0.00000000000E+00 0. -1.
</event>
<event>
 7    1  0.3151015E-009  0.1253446E+03  0.7561462E-02  0.1234532E+00
         -2   -1    0    0    0  501 -0.00000000000E+00  0.00000000000E+00  0.40304096986E+02  0.40304096986E+02  0.00000000000E+00 0. -1.
          2   -1    0    0  501    0  0.00000000000E+00 -0.00000000000E+00 -0.50738216926E+03  0.50738216926E+03  0.00000000000E+00 0.  1.
         25    2    1    2    0    0 -0.37474989659E+02  0.60415083280E+02 -0.36798864681E+03  0.39511855131E+03  0.12509463728E+03 0.  0.
          5    1    3    3  502    0 -0.49723412194E+02  0.90924326119E+02 -0.21668646575E+03  0.24022936464E+03  0.41800000000E+01 0. -1.
         -5    1    3    3    0  502  0.12248422535E+02 -0.30509242839E+02 -0.15130218106E+03  0.15488918667E+03  0.41800000000E+01 0. -1.
        -11    1    1    2    0    0  0.42455280255E+02  0.96924839604E+01 -0.24025544403E+02  0.49735519005E+02  0.00000000000E+00 0.  1.
         11    1    1    2    0    0 -0.49802905962E+01 -0.70107567240E+02 -0.75063881069E+02  0.10283219593E+03  0.00000000000E+00 0. -1.
</event>
<event>
 7    1  0.3151015E-009  0.1505525E+03  0.7561462E-02  0.1199796E+00
         -1   -1    0    0    0  501 -0.00000000000E+00  0.00000000000E+00  0.15702527792E+02  0.15702527792E+02  0.00000000000E+00 0.  1.
          1   -1    0    0  501    0  0.00000000000E+00 -0.00000000000E+00 -0.16193117698E+04  0.16193117698E+04  0.00000000000E+00 0. -1.
         25    2    1    2    0    0  0.80146023684E+02  0.77357875525E+02 -0.10253409348E+04  0.10389319159E+04  0.12509143569E+03 0.  0.
          5    1    3    3  502    0  0.80965526139E+01  0.83553219610E+02 -0.73068322315E+03  0.73550128461E+03  0.41800000000E+01 0.  1.
         -5    1    3    3    0  502  0.72049471070E+02 -0.61953440857E+01 -0.29465771163E+03  0.30343063127E+03  0.41800000000E+01 0.  1.
        -11    1    1    2    0    0 -0.56137332027E+02 -0.98011874469E+02 -0.45537676664E+03  0.46917558246E+03  0.00000000000E+00 0.  1.
         11    1    1    2    0    0 -0.24008691657E+02  0.20653998944E+02 -0.12289154058E+03  0.12690679924E+03  0.00000000000E+00 0. -1.
</event>
<event>
 7    1  0.3151015E-009  0.1273499E+03  0.7561462E-02  0.1231442E+00
          3   -1    0    0  501    0  0.00000000000E+00  0.00000000000E+00  0.41250685094E+02  0.41250685094E+02  0.00000000000E+00 0. -1.
         -3   -1    0    0    0  501 -0.00000000000E+00 -0.00000000000E+00 -0.55312453192E+03  0.55312453192E+03  0.00000000000E+00 0.  1.
         25    2    1    2    0    0 -0.38204932219E+02 -0.75247567188E+02 -0.39962057077E+03  0.42716122954E+03  0.12509317419E+03 0.  0.
          5    1    3    3  502    0 -0.21335423053E+02  0.30264732508E+02 -0.55829587849E+02  0.67123539761E+02  0.41800000000E+01 0. -1.
         -5    1    3    3    0  502 -0.16869509166E+02 -0.10551229970E+03 -0.34379098292E+03  0.36003768978E+03  0.41800000000E+01 0. -1.
        -11    1    1    2    0    0 -0.21183158640E+02  0.24467092032E+02 -0.72823443680E+02  0.79690769553E+02  0.00000000000E+00 0.  1.
         11    1    1    2    0    0  0.59388090860E+02  0.50780475157E+02 -0.39429832375E+02  0.87523217915E+02  0.00000000000E+00 0. -1.
</event>
<event>
 7    1  0.3151015E-009  0.1813406E+03  0.7561462E-02  0.1166512E+00
         -2   -1    0    0    0  501 -0.00000000000E+00  0.00000000000E+00  0.27133584374E+02  0.27133584374E+02  0.00000000000E+00 0. -1.
          2   -1    0    0  501    0  0.00000000000E+00 -0.00000000000E+00 -0.15526757937E+04  0.15526757937E+04  0.00000000000E+00 0.  1.
         25    2    1    2    0    0  0.47583953291E+02  0.16284491894E+03 -0.66023314386E+03  0.69306440773E+03  0.12509104194E+03 0.  0.
          5    1    3    3  502    0 -0.90540021917E+00  0.45311596610E+02 -0.40836728092E+03  0.41089569122E+03  0.41800000000E+01 0.  1.
         -5    1    3    3    0  502  0.48489353510E+02  0.11753332233E+03 -0.25186586294E+03  0.28216871651E+03  0.41800000000E+01 0.  1.
        -11    1    1    2    0    0  0.23087097686E+02 -0.67056600123E+02 -0.24229323483E+03  0.25245913203E+03  0.00000000000E+00 0. -1.
         11    1    1    2    0    0 -0.70671050976E+02 -0.95788318818E+02 -0.62301583065E+03  0.63428583833E+03  0.00000000000E+00 0.  1.
</event>
<event>
 7    1  0.3151015E-009  0.7273189E+02  0.7561462E-02  0.1351042E+00
          2   -1    0    0  501    0  0.00000000000E+00  0.00000000000E+00  0.76491046705E+03  0.76491046705E+03  0.00000000000E+00 0. -1.
         -2   -1    0    0    0  501 -0.00000000000E+00 -0.00000000000E+00 -0.17631057169E+02  0.17631057169E+02  0.00000000000E+00 0.  1.
         25    2    1    2    0    0 -0.28572574818E+02  0.10378223577E+02  0.51354140750E+03  0.52943064028E+03  0.12509167077E+03 0.  0.
          5    1    3    3  502    0 -0.25479376092E+02  0.45142330211E+02  0.86388647846E+02  0.10083401936E+03  0.41800000000E+01 0. -1.
         -5    1    3    3    0  502 -0.30931987254E+01 -0.34764106634E+02  0.42715275965E+03  0.42859662092E+03  0.41800000000E+01 0. -1.
        -11    1    1    2    0    0 -0.13001362446E+02  0.50725834135E+01 -0.12146814276E+01  0.14008639438E+02  0.00000000000E+00 0.  1.
         11    1    1    2    0    0  0.41573937264E+02 -0.15450806990E+02  0.23495268381E+03  0.23910224450E+03  0.00000000000E+00 0. -1.
</event>
<event>
 7    1  0.3151015E-009  0.1159873E+03  0.7561462E-02  0.1249867E+00
         -2   -1    0    0    0  501 -0.00000000000E+00  0.00000000000E+00  0.33830852289E+02  0.33830852289E+02  0.00000000000E+00 0.  1.
          2   -1    0    0  501    0  0.00000000000E+00 -0.00000000000E+00 -0.70967730956E+03  0.70967730956E+03  0.00000000000E+00 0. -1.
         25    2    1    2    0    0 -0.32504809179E+02 -0.43298444867E+02 -0.59453112906E+03  0.60995564844E+03  0.12508921497E+03 0.  0.
          5    1    3    3  502    0  0.20330722917E+02  0.34152109384E+02 -0.23519223679E+03  0.23856354608E+03  0.41800000000E+01 0. -1.
         -5    1    3    3    0  502 -0.52835532096E+02 -0.77450554251E+02 -0.35933889227E+03  0.37139210237E+03  0.41800000000E+01 0. -1.
        -11    1    1    2    0    0 -0.20194489039E+01  0.59842985711E+02 -0.72929884901E+02  0.94361163751E+02  0.00000000000E+00 0. -1.
         11    1    1    2    0    0  0.34524258083E+02 -0.16544540844E+02 -0.83854433080E+01  0.39191349650E+02  0.00000000000E+00 0.  1.
</event>
<event>
 7    1  0.3151015E-009  0.9426403E+02  0.7561462E-02  0.1292842E+00
          2   -1    0    0  501    0  0.00000000000E+00  0.00000000000E+00  0.11286615065E+03  0.11286615065E+03  0.00000000000E+00 0. -1.
         -2   -1    0    0    0  501 -0.00000000000E+00 -0.00000000000E+00 -0.14153502431E+03  0.14153502431E+03  0.00000000000E+00 0.  1.
         25    2    1    2    0    0 -0.34934037541E+02 -0.52068422167E+02 -0.66516913011E+01  0.14008571164E+03  0.12509298159E+03 0.  0.
          5    1    3    3  502    0 -0.41716145026E+02 -0.21305283867E+02 -0.61063558518E+02  0.77073876608E+02  0.41800000000E+01 0.  1.
         -5    1    3    3    0  502  0.67821074843E+01 -0.30763138300E+02  0.54411867217E+02  0.63011835031E+02  0.41800000000E+01 0.  1.
        -11    1    1    2    0    0 -0.34325306123E+01 -0.24149609850E+02 -0.15139901025E+02  0.28708927624E+02  0.00000000000E+00 0. -1.
         11    1    1    2    0    0  0.38366568154E+02  0.76218032017E+02 -0.68772813340E+01  0.85606535703E+02  0.00000000000E+00 0.  1.
</event>
<event>
 7    1  0.3151015E-009  0.7513990E+02  0.7561462E-02  0.1343438E+00
          3   -1    0    0  501    0  0.00000000000E+00  0.00000000000E+00  0.59285382013E+02  0.59285382013E+02  0.00000000000E+00 0. -1.
         -3   -1    0    0    0  501 -0.00000000000E+00 -0.00000000000E+00 -0.20564585849E+03  0.20564585849E+03  0.00000000000E+00 0.  1.
         25    2    1    2    0    0 -0.22426528684E+02  0.34272092581E-01 -0.82195451161E+02  0.15135807430E+03  0.12510085571E+03 0.  0.
          5    1    3    3  502    0  0.42957544170E+02  0.14545957902E+02 -0.38603439234E+00  0.45547304146E+02  0.41800000000E+01 0.  1.
         -5    1    3    3    0  502 -0.65384072854E+02 -0.14511685810E+02 -0.81809416769E+02  0.10581077015E+03  0.41800000000E+01 0.  1.
        -11    1    1    2    0    0  0.59078968967E+01  0.14480347804E+02 -0.83097468244E+02  0.84556330023E+02  0.00000000000E+00 0.  1.
         11    1    1    2    0    0  0.16518631787E+02 -0.14514619897E+02  0.18932442928E+02  0.29016836183E+02  0.00000000000E+00 0. -1.
</event>
<event>
 7    1  0.3151015E-009  0.1853287E+03  0.7561462E-02  0.1162743E+00
         -1   -1    0    0    0  501 -0.00000000000E+00  0.00000000000E+00  0.20587310360E+03  0.20587310360E+03  0.00000000000E+00 0.  1.
          1   -1    0    0  501    0  0.00000000000E+00 -0.00000000000E+00 -0.19493310504E+03  0.19493310504E+03  0.00000000000E+00 0. -1.
         25    2    1    2    0    0 -0.82517306849E+02  0.14447718204E+03 -0.11868326994E+02  0.20852673342E+03  0.12513903989E+03 0.  0.
          5    1    3    3  502    0 -0.23628230537E+02  0.10761514684E+03 -0.58434560411E+02  0.12478534913E+03  0.41800000000E+01 0.  1.
         -5    1    3    3    0  502 -0.58889076313E+02  0.36862035203E+02  0.46566233417E+02  0.83741384291E+02  0.41800000000E+01 0.  1.
        -11    1    1    2    0    0 -0.17541096872E+02 -0.50761639796E+02  0.33260842032E+01  0.53809822434E+02  0.00000000000E+00 0.  1.
         11    1    1    2    0    0  0.10005840372E+03 -0.93715542243E+02  0.19482241348E+02  0.13846965278E+03  0.00000000000E+00 0. -1.
</event>
<event>
 7    1  0.3151015E-009  0.1605299E+03  0.7561462E-02  0.1188100E+00
          2   -1    0    0  501    0  0.00000000000E+00  0.00000000000E+00  0.14361452003E+03  0.14361452003E+03  0.00000000000E+00 0. -1.
         -2   -1    0    0    0  501 -0.00000000000E+00 -0.00000000000E+00 -0.24578623329E+03  0.24578623329E+03  0.00000000000E+00 0.  1.
         25    2    1    2    0    0 -0.73677666742E+02  0.13240433009E+03 -0.68116852501E+02  0.20795621091E+03  0.12508626966E+03 0.  0.
          5    1    3    3  502    0 -0.37105463761E+02  0.11906085336E+03  0.51482073680E+01  0.12488506189E+03  0.41800000000E+01 0. -1.
         -5    1    3    3    0  502 -0.36572202982E+02  0.13343476728E+02 -0.73265059869E+02  0.83071149021E+02  0.41800000000E+01 0. -1.
        -11    1    1    2    0    0  0.10097133420E+02 -0.59679765062E+02  0.27937963880E+02  0.66664505450E+02  0.00000000000E+00 0. -1.
         11    1    1    2    0    0  0.63580533322E+02 -0.72724565026E+02 -0.61992824638E+02  0.11478003695E+03  0.00000000000E+00 0.  1.
</event>
<event>
 7    1  0.3151015E-009  0.1091158E+03  0.7561462E-02  0.1262216E+00
         -1   -1    0    0    0  501 -0.00000000000E+00  0.00000000000E+00  0.53061534634E+02  0.53061534634E+02  0.00000000000E+00 0.  1.
          1   -1    0    0  501    0  0.00000000000E+00 -0.00000000000E+00 -0.23580768773E+03  0.23580768773E+03  0.00000000000E+00 0. -1.
         25    2    1    2    0    0 -0.21730079376E+02  0.15251904296E+02 -0.12079661617E+03  0.17590983393E+03  0.12509048829E+03 0.  0.
          5    1    3    3  502    0 -0.26994882227E+02 -0.52729922849E+02 -0.51562557411E+02  0.78646920835E+02  0.41800000000E+01 0. -1.
         -5    1    3    3    0  502  0.52648028510E+01  0.67981827144E+02 -0.69234058757E+02  0.97262913091E+02  0.41800000000E+01 0. -1.
        -11    1    1    2    0    0  0.17875713215E+02 -0.51276160606E+02 -0.52467857532E+02  0.75509349377E+02  0.00000000000E+00 0.  1.
         11    1    1    2    0    0  0.38543661609E+01  0.36024256310E+02 -0.94816793917E+01  0.37450039056E+02  0.00000000000E+00 0. -1.
</event>
<event>
 7    1  0.3151015E-009  0.7484537E+02  0.7561462E-02  0.1344351E+00
          2   -1    0    0  501    0  0.00000000000E+00  0.00000000000E+00  0.13422611540E+03  0.13422611540E+03  0.00000000000E+00 0. -1.
         -2   -1    0    0    0  501 -0.00000000000E+00 -0.00000000000E+00 -0.15378789006E+03  0.15378789006E+03  0.00000000000E+00 0.  1.
         25    2    1    2    0    0  0.42669225659E+02  0.33548213024E+02 -0.82366118635E+02  0.15930405483E+03  0.12508980362E+03 0.  0.
          5    1    3    3  502    0  0.49531722993E+02  0.20267074888E+02 -0.11292166042E+03  0.12503167478E+03  0.41800000000E+01 0.  1.
         -5    1    3    3    0  502 -0.68624973336E+01  0.13281138137E+02  0.30555541786E+02  0.34272380041E+02  0.41800000000E+01 0.  1.
        -11    1    1    2    0    0 -0.29169646952E+02  0.13062639603E+02  0.72492959790E+02  0.79225816978E+02  0.00000000000E+00 0. -1.
         11    1    1    2    0    0 -0.13499578708E+02 -0.46610852627E+02 -0.96886158185E+01  0.49484133663E+02  0.00000000000E+00 0.  1.
</event>
<event>
 7    1  0.3151015E-009  0.6164287E+02  0.7561462E-02  0.1391064E+00
          1   -1    0    0  501    0  0.00000000000E+00  0.00000000000E+00  0.54496907992E+02  0.54496907992E+02  0.00000000000E+00 0. -1.
         -1   -1    0    0    0  501 -0.00000000000E+00 -0.00000000000E+00 -0.24022659476E+03  0.24022659476E+03  0.00000000000E+00 0.  1.
         25    2    1    2    0    0  0.43199481945E+02  0.14913481290E+01 -0.10819148211E+03  0.17094477459E+03  0.12509316447E+03 0.  0.
          5    1    3    3  502    0  0.16339211789E+02 -0.22055838530E+02 -0.12724932259E+03  0.13024320464E+03  0.41800000000E+01 0.  1.
         -5    1    3    3    0  502  0.26860270156E+02  0.23547186659E+02  0.19057840479E+02  0.40701569947E+02  0.41800000000E+01 0.  1.
        -11    1    1    2    0    0  0.50159641599E+01  0.89164995098E+01  0.15442821044E+02  0.18524162107E+02  0.00000000000E+00 0. -1.
         11    1    1    2    0    0 -0.48215446105E+02 -0.10407847639E+02 -0.92981025697E+02  0.10525456605E+03  0.00000000000E+00 0.  1.
</event>
<event>
 7    1  0.3151015E-009  0.1006791E+03  0.7561462E-02  0.1278874E+00
          2   -1    0    0  501    0  0.00000000000E+00  0.00000000000E+00  0.25334691255E+03  0.25334691255E+03  0.00000000000E+00 0. -1.
         -2   -1    0    0    0  501 -0.00000000000E+00 -0.00000000000E+00 -0.51545066922E+02  0.51545066922E+02  0.00000000000E+00 0.  1.
         25    2    1    2    0    0  0.17462898554E+01  0.81473387042E+01  0.15873820513E+03  0.20227290348E+03  0.12508829304E+03 0.  0.
          5    1    3    3  502    0  0.19253257427E+02  0.59554533961E+02  0.12009276635E+03  0.13548865401E+03  0.41800000000E+01 0.  1.
         -5    1    3    3    0  502 -0.17506967572E+02 -0.51407195257E+02  0.38645438781E+02  0.66784249463E+02  0.41800000000E+01 0.  1.
        -11    1    1    2    0    0 -0.36592161183E+02  0.17824230637E+02  0.42931371432E+02  0.59159040821E+02  0.00000000000E+00 0. -1.
         11    1    1    2    0    0  0.34845871327E+02 -0.25971569341E+02  0.13226906842E+00  0.43460035178E+02  0.00000000000E+00 0.  1.
</event>
<event>
 7    1  0.3151015E-009  0.1047931E+03  0.7561462E-02  0.1270528E+00
         -1   -1    0    0    0  501 -0.00000000000E+00  0.00000000000E+00  0.45133210486E+03  0.45133210486E+03  0.00000000000E+00 0.  1.
          1   -1    0    0  501    0  0.00000000000E+00 -0.00000000000E+00 -0.30515122939E+02  0.30515122939E+02  0.00000000000E+00 0. -1.
         25    2    1    2    0    0  0.79496567567E+01 -0.44087919592E+02  0.22289524104E+03  0.25949530289E+03  0.12509429263E+03 0.  0.
          5    1    3    3  502    0 -0.22521402374E+02  0.30236837334E+02  0.23841645467E+02  0.44803753810E+02  0.41800000000E+01 0. -1.
         -5    1    3    3    0  502  0.30471059131E+02 -0.74324756926E+02  0.19905359558E+03  0.21469154909E+03  0.41800000000E+01 0. -1.
        -11    1    1    2    0    0  0.25914360118E+02 -0.96875251356E+01  0.11268939655E+03  0.11603578025E+03  0.00000000000E+00 0.  1.
         11    1    1    2    0    0 -0.33864016875E+02  0.53775444728E+02  0.85232344329E+02  0.10631614466E+03  0.00000000000E+00 0. -1.
</event>
<event>
 7    1  0.3151015E-009  0.1036994E+03  0.7561462E-02  0.1272703E+00
         -1   -1    0    0    0  501 -0.00000000000E+00  0.00000000000E+00  0.58788067826E+03  0.58788067826E+03  0.00000000000E+00 0.  1.
          1   -1    0    0  501    0  0.00000000000E+00 -0.00000000000E+00 -0.21543328188E+02  0.21543328188E+02  0.00000000000E+00 0. -1.
         25    2    1    2    0    0  0.22250426535E+02 -0.18358608461E+02  0.29044688894E+03  0.31755226135E+03  0.12509166001E+03 0.  0.
          5    1    3    3  502    0 -0.43130353826E+02  0.37781366687E+01  0.19436137002E+03  0.19916906460E+03  0.41800000000E+01 0. -1.
         -5    1    3    3    0  502  0.65380780361E+02 -0.22136745130E+02  0.96085518924E+02  0.11838319675E+03  0.41800000000E+01 0. -1.
        -11    1    1    2    0    0  0.34353436575E+02 -0.24516329761E+01  0.11514772798E+03  0.12018805418E+03  0.00000000000E+00 0. -1.
         11    1    1    2    0    0 -0.56603863110E+02  0.20810241437E+02  0.16074273316E+03  0.17168369093E+03  0.00000000000E+00 0.  1.
</event>
<event>
 7    1  0.3151015E-009  0.1232111E+03  0.7561462E-02  0.1237892E+00
         -2   -1    0    0    0  501 -0.00000000000E+00  0.00000000000E+00  0.23745507904E+03  0.23745507904E+03  0.00000000000E+00 0.  1.
          2   -1    0    0  501    0  0.00000000000E+00 -0.00000000000E+00 -0.88104151370E+02  0.88104151370E+02  0.00000000000E+00 0. -1.
         25    2    1    2    0    0 -0.77289496438E+01 -0.71868967984E+02  0.15470355378E+03  0.21167298059E+03  0.12508947173E+03 0.  0.
          5    1    3    3  502    0 -0.60312228515E+02 -0.42102853385E+02  0.12282986184E+03  0.14323010344E+03  0.41800000000E+01 0. -1.
         -5    1    3    3    0  502  0.52583278871E+02 -0.29766114599E+02  0.31873691945E+02  0.68442877155E+02  0.41800000000E+01 0. -1.
        -11    1    1    2    0    0  0.46695819146E+02  0.33289393842E+02 -0.12186975879E+02  0.58627686712E+02  0.00000000000E+00 0.  1.
         11    1    1    2    0    0 -0.38966869502E+02  0.38579574141E+02  0.68343497651E+01  0.55258563105E+02  0.00000000000E+00 0. -1.
</event>
<event>
 7    1  0.3605042E-009  0.1041589E+03  0.7561462E-02  0.1271786E+00
         -2   -1    0    0    0  501 -0.00000000000E+00  0.00000000000E+00  0.41065436098E+02  0.41065436098E+02  0.00000000000E+00 0. -1.
          2   -1    0    0  501    0  0.00000000000E+00 -0.00000000000E+00 -0.39666805749E+03  0.39666805749E+03  0.00000000000E+00 0.  1.
         25    2    1    2    0    0  0.61391460419E+02 -0.18935191354E+01 -0.24089002506E+03  0.27829756356E+03  0.12509609458E+03 0.  0.
          5    1    3    3  502    0 -0.30048586522E+02  0.29270354565E+02 -0.84424924006E+02  0.94364778396E+02  0.41800000000E+01 0. -1.
         -5    1    3    3    0  502  0.91440046941E+02 -0.31163873700E+02 -0.15646510106E+03  0.18393278516E+03  0.41800000000E+01 0. -1.
        -11    1    1    2    0    0 -0.38369032585E+02 -0.14698789849E+02  0.18197202691E+00  0.41088565300E+02  0.00000000000E+00 0. -1.
         11    1    1    2    0    0 -0.23022427833E+02  0.16592308985E+02 -0.11489456836E+03  0.11834736473E+03  0.00000000000E+00 0.  1.
</event>
<event>
 7    1  0.3151015E-009  0.1250961E+03  0.7561462E-02  0.1234919E+00
         -1   -1    0    0    0  501 -0.00000000000E+00  0.00000000000E+00  0.93334607828E+02  0.93334607828E+02  0.00000000000E+00 0.  1.
          1   -1    0    0  501    0  0.00000000000E+00 -0.00000000000E+00 -0.18153742624E+03  0.18153742624E+03  0.00000000000E+00 0. -1.
         25    2    1    2    0    0 -0.17129941987E+02 -0.69621808063E+02 -0.42356667710E+02  0.15027694038E+03  0.12509372663E+03 0.  0.
          5    1    3    3  502    0 -0.21694302840E+02  0.30172999229E+02  0.81249959239E+01  0.38269316913E+02  0.41800000000E+01 0. -1.
         -5    1    3    3    0  502  0.45643608529E+01 -0.99794807292E+02 -0.50481663634E+02  0.11200762347E+03  0.41800000000E+01 0. -1.
        -11    1    1    2    0    0 -0.34746919506E+02  0.40328270101E+02 -0.35868194647E+02  0.64189135933E+02  0.00000000000E+00 0.  1.
         11    1    1    2    0    0  0.51876861493E+02  0.29293537962E+02 -0.99779560534E+01  0.60405957750E+02  0.00000000000E+00 0. -1.
</event>
<event>
 7    1  0.3151015E-009  0.1028787E+03  0.7561462E-02  0.1274356E+00
         -2   -1    0    0    0  501 -0.00000000000E+00  0.00000000000E+00  0.31315850800E+03  0.31315850800E+03  0.00000000000E+00 0.  1.
          2   -1    0    0  501    0  0.00000000000E+00 -0.00000000000E+00 -0.43393985426E+02  0.43393985426E+02  0.00000000000E+00 0. -1.
         25    2    1    2    0    0 -0.37005725273E+02  0.51085174134E+01  0.12355661031E+03  0.17974273458E+03  0.12508274872E+03 0.  0.
          5    1    3    3  502    0 -0.52903718500E+02  0.45406142793E+02  0.28948472156E+02  0.75604283441E+02  0.41800000000E+01 0.  1.
         -5    1    3    3    0  502  0.15897993227E+02 -0.40297625379E+02  0.94608138153E+02  0.10413845113E+03  0.41800000000E+01 0.  1.
        -11    1    1    2    0    0  0.63180331708E+02  0.69748000190E+01  0.12743216220E+03  0.14240561124E+03  0.00000000000E+00 0.  1.
         11    1    1    2    0    0 -0.26174606434E+02 -0.12083317432E+02  0.18775750063E+02  0.34404147607E+02  0.00000000000E+00 0. -1.
</event>
<event>
 7    1  0.3151015E-009  0.8419428E+02  0.7561462E-02  0.1317553E+00
          2   -1    0    0  501    0  0.00000000000E+00  0.00000000000E+00  0.13497276773E+03  0.13497276773E+03  0.00000000000E+00 0. -1.
         -2   -1    0    0    0  501 -0.00000000000E+00 -0.00000000000E+00 -0.13294685735E+03  0.13294685735E+03  0.00000000000E+00 0.  1.
         25    2    1    2    0    0 -0.12974924720E+01  0.46732111840E+02  0.53633806433E+02  0.14389793832E+03  0.12507780657E+03 0.  0.
          5    1    3    3  502    0  0.11315212650E+02  0.48243718128E+02  0.91279967700E+02  0.10394707923E+03  0.41800000000E+01 0.  1.
         -5    1    3    3    0  502 -0.12612705122E+02 -0.15116062886E+01 -0.37646161268E+02  0.39950859093E+02  0.41800000000E+01 0.  1.
        -11    1    1    2    0    0  0.40986725004E+02  0.36504845208E+01 -0.42645096858E+02  0.59260796061E+02  0.00000000000E+00 0.  1.
         11    1    1    2    0    0 -0.39689232532E+02 -0.50382596360E+02 -0.89627992028E+01  0.64760890702E+02  0.00000000000E+00 0. -1.
</event>
<event>
 7    1  0.3151015E-009  0.8893644E+02  0.7561462E-02  0.1305448E+00
         -3   -1    0    0    0  501 -0.00000000000E+00  0.00000000000E+00  0.25523394660E+03  0.25523394660E+03  0.00000000000E+00 0.  1.
          3   -1    0    0  501    0  0.00000000000E+00 -0.00000000000E+00 -0.82645254416E+02  0.82645254416E+02  0.00000000000E+00 0. -1.
         25    2    1    2    0    0  0.28183849381E+02 -0.67220601212E+02  0.21213519255E+02  0.14632356904E+03  0.12509050669E+03 0.  0.
          5    1    3    3  502    0 -0.81272710651E+01 -0.40280979287E+02 -0.48138067641E+02  0.63429928137E+02  0.41800000000E+01 0.  1.
         -5    1    3    3    0  502  0.36311120446E+02 -0.26939621925E+02  0.69351586896E+02  0.82893640905E+02  0.41800000000E+01 0.  1.
        -11    1    1    2    0    0 -0.34334785467E+02  0.13187965889E+02  0.72178366006E+01  0.37481957027E+02  0.00000000000E+00 0. -1.
         11    1    1    2    0    0  0.61509360861E+01  0.54032635323E+02  0.14415733633E+03  0.15407367495E+03  0.00000000000E+00 0.  1.
</event>
<event>
 7    1  0.3151015E-009  0.1665526E+03  0.7561462E-02  0.1181491E+00
          2   -1    0    0  501    0  0.00000000000E+00  0.00000000000E+00  0.32234173502E+03  0.32234173502E+03  0.00000000000E+00 0. -1.
         -2   -1    0    0    0  501 -0.00000000000E+00 -0.00000000000E+00 -0.18209120758E+03  0.18209120758E+03  0.00000000000E+00 0.  1.
         25    2    1    2    0    0  0.14991939916E+03  0.28927751444E+02 -0.87661494857E+02  0.21597521032E+03  0.12509241681E+03 0.  0.
          5    1    3    3  502    0  0.67104278004E+01  0.27290721264E+02 -0.64968753803E+02  0.70909975879E+02  0.41800000000E+01 0. -1.
         -5    1    3    3    0  502  0.14320897136E+03  0.16370301792E+01 -0.22692741055E+02  0.14506523444E+03  0.41800000000E+01 0. -1.
        -11    1    1    2    0    0 -0.12561818334E+00 -0.10487933346E+02 -0.44414801605E+01  0.11390314825E+02  0.00000000000E+00 0.  1.
         11    1    1    2    0    0 -0.14979378098E+03 -0.18439818097E+02  0.23235350246E+03  0.27706741746E+03  0.00000000000E+00 0. -1.
</event>
<event>
 7    1  0.3151015E-009  0.1939597E+03  0.7561462E-02  0.1154938E+00
          1   -1    0    0  501    0  0.00000000000E+00  0.00000000000E+00  0.16705761992E+03  0.16705761992E+03  0.00000000000E+00 0. -1.
         -1   -1    0    0    0  501 -0.00000000000E+00 -0.00000000000E+00 -0.25053693201E+03  0.25053693201E+03  0.00000000000E+00 0.  1.
         25    2    1    2    0    0  0.11696785320E+03  0.12224179313E+03 -0.92539442544E+01  0.21061291025E+03  0.12509047849E+03 0.  0.
          5    1    3    3  502    0  0.12434823322E+03  0.14050841659E+03 -0.18236561995E+02  0.18856071391E+03  0.41800000000E+01 0. -1.
         -5    1    3    3    0  502 -0.73803800135E+01 -0.18266623463E+02  0.89826177402E+01  0.22052196339E+02  0.41800000000E+01 0. -1.
        -11    1    1    2    0    0 -0.84625176348E+02 -0.12110216477E+03 -0.87829874905E+02  0.17187565770E+03  0.00000000000E+00 0.  1.
         11    1    1    2    0    0 -0.32342676857E+02 -0.11396283614E+01  0.13604507068E+02  0.35105983986E+02  0.00000000000E+00 0. -1.
</event>
<event>
 7    1  0.3151015E-009  0.8269411E+02  0.7561462E-02  0.1321575E+00
         -2   -1    0    0    0  501 -0.00000000000E+00  0.00000000000E+00  0.32497276179E+02  0.32497276179E+02  0.00000000000E+00 0. -1.
          2   -1    0    0  501    0  0.00000000000E+00 -0.00000000000E+00 -0.52665213756E+03  0.52665213756E+03  0.00000000000E+00 0.  1.
         25    2    1    2    0    0 -0.47839749884E+02  0.51086506871E+02 -0.32610716897E+03  0.35621934928E+03  0.12509143173E+03 0.  0.
          5    1    3    3  502    0 -0.21713629919E+02  0.11600290802E+02 -0.30180421772E+03  0.30283544493E+03  0.41800000000E+01 0.  1.
         -5    1    3    3    0  502 -0.26126119965E+02  0.39486216070E+02 -0.24302951248E+02  0.53383904346E+02  0.41800000000E+01 0.  1.
        -11    1    1    2    0    0  0.11268421514E+02 -0.54966930607E+02 -0.15340691961E+03  0.16334633074E+03  0.00000000000E+00 0.  1.
         11    1    1    2    0    0  0.36571328370E+02  0.38804237361E+01 -0.14640772808E+02  0.39583733724E+02  0.00000000000E+00 0. -1.
</event>
<event>
 7    1  0.3151015E-009  0.2172092E+03  0.7561462E-02  0.1135981E+00
         -2   -1    0    0    0  501 -0.00000000000E+00  0.00000000000E+00  0.41835004037E+03  0.41835004037E+03  0.00000000000E+00 0.  1.
          2   -1    0    0  501    0  0.00000000000E+00 -0.00000000000E+00 -0.12725440037E+03  0.12725440037E+03  0.00000000000E+00 0. -1.
         25    2    1    2    0    0  0.17312887156E+03  0.10596564714E+03  0.16156819671E+03  0.28801413449E+03  0.12508211277E+03 0.  0.
          5    1    3    3  502    0  0.10234494207E+03  0.18974296136E+02  0.17887912625E+02  0.10569749713E+03  0.41800000000E+01 0.  1.
         -5    1    3    3    0  502  0.70783929492E+02  0.86991351002E+02  0.14368028409E+03  0.18231663736E+03  0.41800000000E+01 0.  1.
        -11    1    1    2    0    0 -0.19942863824E+02 -0.51849650950E+02  0.57255567957E+02  0.79776589193E+02  0.00000000000E+00 0.  1.
         11    1    1    2    0    0 -0.15318600774E+03 -0.54115996187E+02  0.72271875331E+02  0.17781371706E+03  0.00000000000E+00 0. -1.
</event>
<event>
 7    1  0.3193845E-009  0.1125745E+03  0.7561462E-02  0.1255875E+00
         -3   -1    0    0    0  501 -0.00000000000E+00  0.00000000000E+00  0.37869912787E+02  0.37869912787E+02  0.00000000000E+00 0.  1.
          3   -1    0    0  501    0  0.00000000000E+00 -0.00000000000E+00 -0.41480438558E+03  0.41480438558E+03  0.00000000000E+00 0. -1.
         25    2    1    2    0    0 -0.22634763683E+02 -0.53043321944E+02 -0.16423084520E+03  0.21434869558E+03  0.12509063215E+03 0.  0.
          5    1    3    3  502    0  0.44188317469E+02 -0.53490421703E+02 -0.69037841378E+02  0.97966976869E+02  0.41800000000E+01 0. -1.
         -5    1    3    3    0  502 -0.66823081152E+02  0.44709975900E+00 -0.95193003822E+02  0.11638171871E+03  0.41800000000E+01 0. -1.
        -11    1    1    2    0    0 -0.22526267816E+01  0.62145748086E+02 -0.71952898371E+02  0.95101986922E+02  0.00000000000E+00 0.  1.
         11    1    1    2    0    0  0.24887390464E+02 -0.91024261421E+01 -0.14075072922E+03  0.14322361587E+03  0.00000000000E+00 0. -1.
</event>
<event>
 7    1  0.3151015E-009  0.1282752E+03  0.7561462E-02  0.1230038E+00
          3   -1    0    0  501    0  0.00000000000E+00  0.00000000000E+00  0.26039415301E+02  0.26039415301E+02  0.00000000000E+00 0. -1.
         -3   -1    0    0    0  501 -0.00000000000E+00 -0.00000000000E+00 -0.73441869072E+03  0.73441869072E+03  0.00000000000E+00 0.  1.
         25    2    1    2    0    0 -0.73042492692E+02 -0.37748995481E+02 -0.32356394333E+03  0.35651193308E+03  0.12508773163E+03 0.  0.
          5    1    3    3  502    0 -0.93082672860E+02  0.13340638693E+02 -0.18948076360E+03  0.21157218343E+03  0.41800000000E+01 0.  1.
         -5    1    3    3    0  502  0.20040180168E+02 -0.51089634174E+02 -0.13408317973E+03  0.14493974965E+03  0.41800000000E+01 0.  1.
        -11    1    1    2    0    0  0.50152685304E+01  0.39025224923E+02 -0.57756946750E+02  0.69885520651E+02  0.00000000000E+00 0. -1.
         11    1    1    2    0    0  0.68027224161E+02 -0.12762294425E+01 -0.32705838534E+03  0.33406065229E+03  0.00000000000E+00 0.  1.
</event>
<event>
 7    1  0.3151015E-009  0.1033073E+03  0.7561462E-02  0.1273491E+00
          2   -1    0    0  501    0  0.00000000000E+00  0.00000000000E+00  0.57375050679E+03  0.57375050679E+03  0.00000000000E+00 0. -1.
         -2   -1    0    0    0  501 -0.00000000000E+00 -0.00000000000E+00 -0.32392488148E+02  0.32392488148E+02  0.00000000000E+00 0.  1.
         25    2    1    2    0    0  0.52737343494E+02  0.18266233696E+00  0.43657892512E+03  0.45719790673E+03  0.12508999680E+03 0.  0.
          5    1    3    3  502    0  0.43516689164E+01 -0.55661564748E+02  0.12526029861E+03  0.13720335863E+03  0.41800000000E+01 0. -1.
         -5    1    3    3    0  502  0.48385674578E+02  0.55844227085E+02  0.31131862651E+03  0.31999454810E+03  0.41800000000E+01 0. -1.
        -11    1    1    2    0    0 -0.55477737286E+02  0.17927476110E+02  0.19131903323E+02  0.61361253726E+02  0.00000000000E+00 0.  1.
         11    1    1    2    0    0  0.27403937918E+01 -0.18110138447E+02  0.85647190199E+02  0.87583834477E+02  0.00000000000E+00 0. -1.
</event>
<event>
 7    1  0.3151015E-009  0.1210040E+03  0.7561462E-02  0.1241450E+00
          1   -1    0    0  501    0  0.00000000000E+00  0.00000000000E+00  0.60085050175E+02  0.60085050175E+02  0.00000000000E+00 0. -1.
         -1   -1    0    0    0  501 -0.00000000000E+00 -0.00000000000E+00 -0.35966661256E+03  0.35966661256E+03  0.00000000000E+00 0.  1.
         25    2    1    2    0    0  0.86783790739E+02  0.46793408542E+02 -0.23348864605E+03  0.28264164341E+03  0.12509317062E+03 0.  0.
          5    1    3    3  502    0  0.22383638448E+02  0.58839134170E+02 -0.32030803731E+02  0.70756736553E+02  0.41800000000E+01 0.  1.
         -5    1    3    3    0  502  0.64400152292E+02 -0.12045725628E+02 -0.20145784232E+03  0.21188490685E+03  0.41800000000E+01 0.  1.
        -11    1    1    2    0    0 -0.43499904727E+02  0.71717762278E+01 -0.48873472397E+02  0.65820151851E+02  0.00000000000E+00 0.  1.
         11    1    1    2    0    0 -0.43283886012E+02 -0.53965184770E+02 -0.17219443941E+02  0.71289867479E+02  0.00000000000E+00 0. -1.
</event>
<event>
 7    1  0.3151015E-009  0.1242419E+03  0.7561462E-02  0.1236259E+00
          2   -1    0    0  501    0  0.00000000000E+00  0.00000000000E+00  0.85656868508E+03  0.85656868508E+03  0.00000000000E+00 0.  1.
         -2   -1    0    0    0  501 -0.00000000000E+00 -0.00000000000E+00 -0.27404858509E+02  0.27404858509E+02  0.00000000000E+00 0. -1.
         25    2    1    2    0    0  0.28060009103E+02  0.65168767011E+02  0.68097376924E+03  0.69599368877E+03  0.12509039976E+03 0.  0.
          5    1    3    3  502    0 -0.37271112830E+02  0.66968681909E+02  0.31579208953E+03  0.32498624035E+03  0.41800000000E+01 0.  1.
         -5    1    3    3    0  502  0.65331121933E+02 -0.17999148978E+01  0.36518167971E+03  0.37100744842E+03  0.41800000000E+01 0.  1.
        -11    1    1    2    0    0 -0.80492366741E+01  0.18518578537E+02  0.65877890216E+02  0.68903007056E+02  0.00000000000E+00 0.  1.
         11    1    1    2    0    0 -0.20010772429E+02 -0.83687345549E+02  0.82312167124E+02  0.11907684777E+03  0.00000000000E+00 0. -1.
</event>
<event>
 7    1  0.3151015E-009  0.1179228E+03  0.7561462E-02  0.1246564E+00
         -1   -1    0    0    0  501 -0.00000000000E+00  0.00000000000E+00  0.21771676097E+02  0.21771676097E+02  0.00000000000E+00 0.  1.
          1   -1    0    0  501    0  0.00000000000E+00 -0.00000000000E+00 -0.70866782975E+03  0.70866782975E+03  0.00000000000E+00 0. -1.
         25    2    1    2    0    0  0.47370283066E+02 -0.30388196202E+02 -0.44832250944E+03  0.46883698421E+03  0.12509060359E+03 0.  0.
          5    1    3    3  502    0  0.11763194129E+02  0.44281418571E+02 -0.24513264485E+03  0.24941271567E+03  0.41800000000E+01 0. -1.
         -5    1    3    3    0  502  0.35607088937E+02 -0.74669614773E+02 -0.20318986459E+03  0.21942426855E+03  0.41800000000E+01 0. -1.
        -11    1    1    2    0    0 -0.37286322281E+02 -0.28707788651E+02 -0.95032423050E+02  0.10604512431E+03  0.00000000000E+00 0.  1.
         11    1    1    2    0    0 -0.10083960785E+02  0.59095984853E+02 -0.14354122117E+03  0.15555739733E+03  0.00000000000E+00 0. -1.
</event>
<event>
 7    1  0.3151015E-009  0.1359139E+03  0.7561462E-02  0.1218935E+00
         -1   -1    0    0    0  501 -0.00000000000E+00  0.00000000000E+00  0.36324053346E+02  0.36324053346E+02  0.00000000000E+00 0.  1.
          1   -1    0    0  501    0  0.00000000000E+00 -0.00000000000E+00 -0.10976025338E+04  0.10976025338E+04  0.00000000000E+00 0. -1.
         25    2    1    2    0    0  0.11750636986E+03 -0.32544396172E+02 -0.87912676955E+03  0.89631318322E+03  0.12508621349E+03 0.  0.
          5    1    3    3  502    0  0.94356305715E+02 -0.42273990503E+01 -0.26998600951E+03  0.28606100933E+03  0.41800000000E+01 0. -1.
         -5    1    3    3    0  502  0.23150064147E+02 -0.28316997122E+02 -0.60914076004E+03  0.61025217389E+03  0.41800000000E+01 0. -1.
        -11    1    1    2    0    0 -0.55766018934E+02 -0.20155931678E+02 -0.33147105259E+02  0.67932621299E+02  0.00000000000E+00 0.  1.
         11    1    1    2    0    0 -0.61740350928E+02  0.52700327850E+02 -0.14900460567E+03  0.16968078264E+03  0.00000000000E+00 0. -1.
</event>
<event>
 7    1  0.3151015E-009  0.1159449E+03  0.7561462E-02  0.1249941E+00
         -1   -1    0    0    0  501 -0.00000000000E+00  0.00000000000E+00  0.15663195539E+03  0.15663195539E+03  0.00000000000E+00 0.  1.
          1   -1    0    0  501    0  0.00000000000E+00 -0.00000000000E+00 -0.14864530158E+03  0.14864530158E+03  0.00000000000E+00 0. -1.
         25    2    1    2    0    0 -0.59015585967E+02 -0.18373269488E+02  0.92463701935E+02  0.16738401217E+03  0.12508978749E+03 0.  0.
          5    1    3    3  502    0  0.29700508278E+02 -0.16861904214E+02  0.66443260567E+02  0.74823948576E+02  0.41800000000E+01 0.  1.
         -5    1    3    3    0  502 -0.88716094245E+02 -0.15113652741E+01  0.26020441368E+02  0.92560063591E+02  0.41800000000E+01 0.  1.
        -11    1    1    2    0    0  0.62489380343E+02  0.48017397352E+02 -0.56345655845E+02  0.96878408517E+02  0.00000000000E+00 0. -1.
         11    1    1    2    0    0 -0.34737943759E+01 -0.29644127864E+02 -0.28131392276E+02  0.41014836286E+02  0.00000000000E+00 0.  1.
</event>
<event>
 7    1  0.3151015E-009  0.1163035E+03  0.7561462E-02  0.1249323E+00
         -1   -1    0    0    0  501 -0.00000000000E+00  0.00000000000E+00  0.23792437579E+02  0.23792437579E+02  0.00000000000E+00 0.  1.
          1   -1    0    0  501    0  0.00000000000E+00 -0.00000000000E+00 -0.76995103008E+03  0.76995103008E+03  0.00000000000E+00 0. -1.
         25    2    1    2    0    0  0.22010325094E+02  0.67559960740E+02 -0.29777491917E+03  0.33070590464E+03  0.12509072774E+03 0.  0.
          5    1    3    3  502    0 -0.25099063513E+02 -0.94076848388E+01 -0.97186545617E+01  0.28816525984E+02  0.41800000000E+01 0. -1.
         -5    1    3    3    0  502  0.47109388608E+02  0.76967645579E+02 -0.28805626461E+03  0.30188937865E+03  0.41800000000E+01 0. -1.
        -11    1    1    2    0    0  0.35613047156E+02 -0.26103285053E+02 -0.19164622178E+03  0.19666709166E+03  0.00000000000E+00 0.  1.
         11    1    1    2    0    0 -0.57623372250E+02 -0.41456675687E+02 -0.25673745154E+03  0.26637047136E+03  0.00000000000E+00 0. -1.
</event>
<event>
 7    1  0.3151015E-009  0.1816358E+03  0.7561462E-02  0.1166229E+00
         -1   -1    0    0    0  501 -0.00000000000E+00  0.00000000000E+00  0.29235176356E+03  0.29235176356E+03  0.00000000000E+00 0.  1.
          1   -1    0    0  501    0  0.00000000000E+00 -0.00000000000E+00 -0.17682922098E+03  0.17682922098E+03  0.00000000000E+00 0. -1.
         25    2    1    2    0    0  0.10588734026E+03 -0.10828504132E+03  0.19128036964E+03  0.27418030951E+03  0.12509549677E+03 0.  0.
          5    1    3    3  502    0 -0.21383221569E+02  0.58869562663E+01  0.91985835623E+01  0.24371802525E+02  0.41800000000E+01 0. -1.
         -5    1    3    3    0  502  0.12727056183E+03 -0.11417199758E+03  0.18208178608E+03  0.24980850699E+03  0.41800000000E+01 0. -1.
        -11    1    1    2    0    0 -0.69883075552E+02  0.11350579101E+03 -0.30151841163E+02  0.13666141506E+03  0.00000000000E+00 0.  1.
         11    1    1    2    0    0 -0.36004264711E+02 -0.52207496919E+01 -0.45605985892E+02  0.58339259971E+02  0.00000000000E+00 0. -1.
</event>
<event>
 7    1  0.3151015E-009  0.2993014E+03  0.7561462E-02  0.1085590E+00
          1   -1    0    0  501    0  0.00000000000E+00  0.00000000000E+00  0.55636223432E+03  0.55636223432E+03  0.00000000000E+00 0. -1.
         -1   -1    0    0    0  501 -0.00000000000E+00 -0.00000000000E+00 -0.17495082843E+03  0.17495082843E+03  0.00000000000E+00 0.  1.
         25    2    1    2    0    0 -0.39233116090E+01 -0.28639876110E+03  0.25974439205E+03  0.40639125261E+03  0.12508820192E+03 0.  0.
          5    1    3    3  502    0 -0.49047144077E+02 -0.56711761254E+02  0.39001653635E+02  0.84619427987E+02  0.41800000000E+01 0. -1.
         -5    1    3    3    0  502  0.45123832467E+02 -0.22968699985E+03  0.22074273841E+03  0.32177182462E+03  0.41800000000E+01 0. -1.
        -11    1    1    2    0    0 -0.16226329464E+02  0.20078292996E+03  0.12470502715E+03  0.23691437805E+03  0.00000000000E+00 0.  1.
         11    1    1    2    0    0  0.20149641073E+02  0.85615831147E+02 -0.30380133206E+01  0.88007432092E+02  0.00000000000E+00 0. -1.
</event>
<event>
 7    1  0.3151015E-009  0.1221616E+03  0.7561462E-02  0.1239573E+00
          2   -1    0    0  501    0  0.00000000000E+00  0.00000000000E+00  0.12810515658E+03  0.12810515658E+03  0.00000000000E+00 0. -1.
         -2   -1    0    0    0  501 -0.00000000000E+00 -0.00000000000E+00 -0.14218871470E+03  0.14218871470E+03  0.00000000000E+00 0.  1.
         25    2    1    2    0    0 -0.86657793957E+01 -0.78603900256E+02 -0.28221347072E+02  0.15065743705E+03  0.12509016764E+03 0.  0.
          5    1    3    3  502    0  0.57239577511E+01  0.33824561381E+02 -0.58973082510E+01  0.35058740559E+02  0.41800000000E+01 0.  1.
         -5    1    3    3    0  502 -0.14389737147E+02 -0.11242846164E+03 -0.22324038821E+02  0.11559869649E+03  0.41800000000E+01 0.  1.
        -11    1    1    2    0    0  0.32086853168E+02  0.41391261377E+02 -0.27437154201E+02  0.59123600154E+02  0.00000000000E+00 0.  1.
         11    1    1    2    0    0 -0.23421073772E+02  0.37212638879E+02  0.41574943152E+02  0.60512834069E+02  0.00000000000E+00 0. -1.
</event>
<event>
 7    1  0.3151015E-009  0.1209299E+03  0.7561462E-02  0.1241571E+00
          2   -1    0    0  501    0  0.00000000000E+00  0.00000000000E+00  0.68892878188E+03  0.68892878188E+03  0.00000000000E+00 0. -1.
         -2   -1    0    0    0  501 -0.00000000000E+00 -0.00000000000E+00 -0.26612270440E+02  0.26612270440E+02  0.00000000000E+00 0.  1.
         25    2    1    2    0    0  0.73276078405E+02 -0.48845185507E+01  0.46064692934E+03  0.48293768854E+03  0.12505988691E+03 0.  0.
          5    1    3    3  502    0  0.48227028128E+01  0.43408337887E+02  0.28422208510E+03  0.28758860950E+03  0.41800000000E+01 0.  1.
         -5    1    3    3    0  502  0.68453375593E+02 -0.48292856437E+02  0.17642484424E+03  0.19534907903E+03  0.41800000000E+01 0.  1.
        -11    1    1    2    0    0 -0.93625653052E+02  0.30642005654E+01  0.14775725458E+03  0.17494958849E+03  0.00000000000E+00 0. -1.
         11    1    1    2    0    0  0.20349574646E+02  0.18203179853E+01  0.53912327529E+02  0.57653775293E+02  0.00000000000E+00 0.  1.
</event>
<event>
 7    1  0.3151015E-009  0.1010582E+03  0.7561462E-02  0.1278086E+00
          2   -1    0    0  501    0  0.00000000000E+00  0.00000000000E+00  0.11041096165E+03  0.11041096165E+03  0.00000000000E+00 0. -1.
         -2   -1    0    0    0  501 -0.00000000000E+00 -0.00000000000E+00 -0.11023189802E+03  0.11023189802E+03  0.00000000000E+00 0.  1.
         25    2    1    2    0    0  0.14304560058E+02  0.15296449383E+02  0.16141617945E+02  0.12784797412E+03  0.12508377534E+03 0.  0.
          5    1    3    3  502    0  0.47951642019E+02  0.47842846566E+02 -0.17456722684E+02  0.70075013426E+02  0.41800000000E+01 0. -1.
         -5    1    3    3    0  502 -0.33647081961E+02 -0.32546397183E+02  0.33598340629E+02  0.57772960692E+02  0.41800000000E+01 0. -1.
        -11    1    1    2    0    0 -0.31861632051E+02  0.26804336997E+02 -0.21473628638E+02  0.46848188926E+02  0.00000000000E+00 0. -1.
         11    1    1    2    0    0  0.17557071993E+02 -0.42100786380E+02  0.55110743228E+01  0.45946696627E+02  0.00000000000E+00 0.  1.
</event>
<event>
 7    1  0.3151015E-009  0.1012140E+03  0.7561462E-02  0.1277764E+00
          1   -1    0    0  501    0  0.00000000000E+00  0.00000000000E+00  0.14123670408E+04  0.14123670408E+04  0.00000000000E+00 0. -1.
         -1   -1    0    0    0  501 -0.00000000000E+00 -0.00000000000E+00 -0.80925960232E+01  0.80925960232E+01  0.00000000000E+00 0.  1.
         25    2    1    2    0    0  0.24557919395E+01 -0.63221433649E+01  0.10315530243E+04  0.10391308993E+04  0.12508150784E+03 0.  0.
          5    1    3    3  502    0 -0.31361259426E+02 -0.54410567855E+02  0.41186003173E+03  0.41664156853E+03  0.41800000000E+01 0. -1.
         -5    1    3    3    0  502  0.33817051365E+02  0.48088424490E+02  0.61969299257E+03  0.62248933081E+03  0.41800000000E+01 0. -1.
        -11    1    1    2    0    0 -0.10896884403E+02 -0.35887382791E+02  0.17684887389E+03  0.18078210788E+03  0.00000000000E+00 0. -1.
         11    1    1    2    0    0  0.84410924634E+01  0.42209526156E+02  0.19587254659E+03  0.20054662961E+03  0.00000000000E+00 0.  1.
</event>
<event>
 7    1  0.3151015E-009  0.1840591E+03  0.7561462E-02  0.1163931E+00
         -1   -1    0    0    0  501 -0.00000000000E+00  0.00000000000E+00  0.89430718006E+03  0.89430718006E+03  0.00000000000E+00 0.  1.
          1   -1    0    0  501    0  0.00000000000E+00 -0.00000000000E+00 -0.43859309341E+02  0.43859309341E+02  0.00000000000E+00 0. -1.
         25    2    1    2    0    0 -0.14141826321E+03  0.82561370196E+02  0.58411149751E+03  0.61939434019E+03  0.12509037583E+03 0.  0.
          5    1    3    3  502    0 -0.31292112250E+02  0.84857033867E+02  0.19541795401E+03  0.21537307547E+03  0.41800000000E+01 0.  1.
         -5    1    3    3    0  502 -0.11012615096E+03 -0.22956636710E+01  0.38869354349E+03  0.40402126473E+03  0.41800000000E+01 0.  1.
        -11    1    1    2    0    0  0.32257055792E+02 -0.32547631145E+01  0.96869878238E+02  0.10215128213E+03  0.00000000000E+00 0.  1.
         11    1    1    2    0    0  0.10916120742E+03 -0.79306607081E+02  0.16946649497E+03  0.21662086707E+03  0.00000000000E+00 0. -1.
</event>
<event>
 7    1  0.3151015E-009  0.1697504E+03  0.7561462E-02  0.1178108E+00
         -2   -1    0    0    0  501 -0.00000000000E+00  0.00000000000E+00  0.12273473342E+03  0.12273473342E+03  0.00000000000E+00 0.  1.
          2   -1    0    0  501    0  0.00000000000E+00 -0.00000000000E+00 -0.31961786384E+03  0.31961786384E+03  0.00000000000E+00 0. -1.
         25    2    1    2    0    0 -0.27656205491E+02  0.14693088829E+03 -0.25067710308E+02  0.19654830797E+03  0.12509714477E+03 0.  0.
          5    1    3    3  502    0 -0.32389895068E+02 -0.64244304196E+01 -0.27297937562E+02  0.43046816419E+02  0.41800000000E+01 0.  1.
         -5    1    3    3    0  502  0.47336895772E+01  0.15335531871E+03  0.22302272534E+01  0.15350149155E+03  0.41800000000E+01 0.  1.
        -11    1    1    2    0    0  0.11581836819E+01 -0.89220801056E+02 -0.36644691589E+02  0.96459971761E+02  0.00000000000E+00 0.  1.
         11    1    1    2    0    0  0.26498021809E+02 -0.57710087235E+02 -0.13517072852E+03  0.14934431753E+03  0.00000000000E+00 0. -1.
</event>
<event>
 7    1  0.3151015E-009  0.8853410E+02  0.7561462E-02  0.1306441E+00
         -1   -1    0    0    0  501 -0.00000000000E+00  0.00000000000E+00  0.15014061769E+03  0.15014061769E+03  0.00000000000E+00 0.  1.
          1   -1    0    0  501    0  0.00000000000E+00 -0.00000000000E+00 -0.81172603252E+02  0.81172603252E+02  0.00000000000E+00 0. -1.
         25    2    1    2    0    0 -0.63721789741E+01 -0.20429136830E+01  0.65067745338E+02  0.14116157113E+03  0.12509196425E+03 0.  0.
          5    1    3    3  502    0 -0.32698576608E+02  0.30556474370E+02 -0.17691542618E+02  0.48304845703E+02  0.41800000000E+01 0.  1.
         -5    1    3    3    0  502  0.26326397634E+02 -0.32599388053E+02  0.82759287956E+02  0.92856725426E+02  0.41800000000E+01 0.  1.
        -11    1    1    2    0    0 -0.17369873408E+02 -0.38944337175E+02  0.34598815743E+01  0.42782527750E+02  0.00000000000E+00 0.  1.
         11    1    1    2    0    0  0.23742052383E+02  0.40987250858E+02  0.44038753070E+00  0.47369122067E+02  0.00000000000E+00 0. -1.
</event>
<event>
 7    1  0.3151015E-009  0.1995205E+03  0.7561462E-02  0.1150144E+00
          1   -1    0    0  501    0  0.00000000000E+00  0.00000000000E+00  0.11009176793E+04  0.11009176793E+04  0.00000000000E+00 0. -1.
         -1   -1    0    0    0  501 -0.00000000000E+00 -0.00000000000E+00 -0.42441012984E+02  0.42441012984E+02  0.00000000000E+00 0.  1.
         25    2    1    2    0    0 -0.10177997100E+03 -0.15391539437E+03  0.60922189641E+03  0.64872286167E+03  0.12506366805E+03 0.  0.
          5    1    3    3  502    0 -0.72997874689E+02 -0.18314701811E+02  0.13476457827E+03  0.15441205254E+03  0.41800000000E+01 0.  1.
         -5    1    3    3    0  502 -0.28782096306E+02 -0.13560069256E+03  0.47445731814E+03  0.49431080913E+03  0.41800000000E+01 0.  1.
        -11    1    1    2    0    0  0.57137064676E+02  0.74638673932E+02  0.11663689509E+03  0.14979900234E+03  0.00000000000E+00 0.  1.
         11    1    1    2    0    0  0.44642906319E+02  0.79276720437E+02  0.33261787481E+03  0.34483682827E+03  0.00000000000E+00 0. -1.
</event>
<event>
 7    1  0.3151015E-009  0.1538785E+03  0.7561462E-02  0.1195786E+00
         -2   -1    0    0    0  501 -0.00000000000E+00  0.00000000000E+00  0.93921066062E+02  0.93921066062E+02  0.00000000000E+00 0.  1.
          2   -1    0    0  501    0  0.00000000000E+00 -0.00000000000E+00 -0.27985506544E+03  0.27985506544E+03  0.00000000000E+00 0. -1.
         25    2    1    2    0    0  0.51807205369E+02 -0.10680543555E+03 -0.76074260157E+02  0.18848262095E+03  0.12508804000E+03 0.  0.
          5    1    3    3  502    0  0.91590222228E+02 -0.76606312043E+02 -0.68703764960E+02  0.13782226080E+03  0.41800000000E+01 0. -1.
         -5    1    3    3    0  502 -0.39783016858E+02 -0.30199123504E+02 -0.73704951968E+01  0.50660360147E+02  0.41800000000E+01 0. -1.
        -11    1    1    2    0    0 -0.66637962663E+02  0.62214543246E+02 -0.10341354057E+03  0.13786090030E+03  0.00000000000E+00 0. -1.
         11    1    1    2    0    0  0.14830757294E+02  0.44590892301E+02 -0.64461986495E+01  0.47432610250E+02  0.00000000000E+00 0.  1.
</event>
<event>
 7    1  0.3151015E-009  0.2595039E+03  0.7561462E-02  0.1107442E+00
         -1   -1    0    0    0  501 -0.00000000000E+00  0.00000000000E+00  0.14600981298E+03  0.14600981298E+03  0.00000000000E+00 0.  1.
          1   -1    0    0  501    0  0.00000000000E+00 -0.00000000000E+00 -0.53058301462E+03  0.53058301462E+03  0.00000000000E+00 0. -1.
         25    2    1    2    0    0 -0.17853716685E+02  0.23745628947E+03 -0.13787052053E+03  0.30225479632E+03  0.12508172073E+03 0.  0.
          5    1    3    3  502    0 -0.42888029523E+02  0.19182792838E+03 -0.54738194308E+02  0.20408596106E+03  0.41800000000E+01 0. -1.
         -5    1    3    3    0  502  0.25034312838E+02  0.45628361083E+02 -0.83132326219E+02  0.98168835264E+02  0.41800000000E+01 0. -1.
        -11    1    1    2    0    0  0.73231973515E+02 -0.14412192183E+03 -0.94014340443E+02  0.18701001713E+03  0.00000000000E+00 0.  1.
         11    1    1    2    0    0 -0.55378256830E+02 -0.93334367636E+02 -0.15268834067E+03  0.18732801416E+03  0.00000000000E+00 0. -1.
</event>
<event>
 7    1  0.3151015E-009  0.1039684E+03  0.7561462E-02  0.1272166E+00
         -2   -1    0    0    0  501 -0.00000000000E+00  0.00000000000E+00  0.43327570966E+03  0.43327570966E+03  0.00000000000E+00 0. -1.
          2   -1    0    0  501    0  0.00000000000E+00 -0.00000000000E+00 -0.31544712563E+02  0.31544712563E+02  0.00000000000E+00 0.  1.
         25    2    1    2    0    0 -0.12041933236E+02  0.10896607259E+02  0.30917011797E+03  0.33391341458E+03  0.12509301494E+03 0.  0.
          5    1    3    3  502    0 -0.72638499757E+01 -0.53119104841E+02  0.84040389706E+02  0.99773054065E+02  0.41800000000E+01 0.  1.
         -5    1    3    3    0  502 -0.47780832605E+01  0.64015712099E+02  0.22512972826E+03  0.23414036052E+03  0.41800000000E+01 0.  1.
        -11    1    1    2    0    0  0.40439828813E+02 -0.34303873160E+02  0.69712238625E+02  0.87589563775E+02  0.00000000000E+00 0.  1.
         11    1    1    2    0    0 -0.28397895576E+02  0.23407265902E+02  0.22848640500E+02  0.43317443864E+02  0.00000000000E+00 0. -1.
</event>
<event>
 7    1  0.3151015E-009  0.1093139E+03  0.7561462E-02  0.1261846E+00
         -1   -1    0    0    0  501 -0.00000000000E+00  0.00000000000E+00  0.16173874535E+03  0.16173874535E+03  0.00000000000E+00 0.  1.
          1   -1    0    0  501    0  0.00000000000E+00 -0.00000000000E+00 -0.98552498933E+02  0.98552498933E+02  0.00000000000E+00 0. -1.
         25    2    1    2    0    0  0.71851401834E+01 -0.22961733882E+02 -0.24870105637E+02  0.12978770679E+03  0.12508980461E+03 0.  0.
          5    1    3    3  502    0 -0.26538201813E+02 -0.66244148691E+02 -0.65230444251E+01  0.71781515029E+02  0.41800000000E+01 0. -1.
         -5    1    3    3    0  502  0.33723341996E+02  0.43282414809E+02 -0.18347061212E+02  0.58006191758E+02  0.41800000000E+01 0. -1.
        -11    1    1    2    0    0  0.40403971709E+02  0.18117162800E+02  0.61527339828E+02  0.75804525353E+02  0.00000000000E+00 0.  1.
         11    1    1    2    0    0 -0.47589111893E+02  0.48445710819E+01  0.26529012228E+02  0.54699012143E+02  0.00000000000E+00 0. -1.
</event>
<event>
 7    1  0.3151015E-009  0.8451447E+02  0.7561462E-02  0.1316707E+00
          3   -1    0    0  501    0  0.00000000000E+00  0.00000000000E+00  0.30635759949E+03  0.30635759949E+03  0.00000000000E+00 0. -1.
         -3   -1    0    0    0  501 -0.00000000000E+00 -0.00000000000E+00 -0.41027158956E+02  0.41027158956E+02  0.00000000000E+00 0.  1.
         25    2    1    2    0    0  0.13132289216E+02 -0.13108441851E+02  0.19671397804E+03  0.23385425401E+03  0.12508850745E+03 0.  0.
          5    1    3    3  502    0 -0.12120347789E+02  0.44621263289E+02  0.29233452148E+02  0.54863713806E+02  0.41800000000E+01 0.  1.
         -5    1    3    3    0  502  0.25252637005E+02 -0.57729705140E+02  0.16748052589E+03  0.17899054021E+03  0.41800000000E+01 0.  1.
        -11    1    1    2    0    0 -0.32301874877E+02 -0.54649849104E+01 -0.68617055810E+01  0.33471781908E+02  0.00000000000E+00 0.  1.
         11    1    1    2    0    0  0.19169585661E+02  0.18573426761E+02  0.75478168081E+02  0.80058722529E+02  0.00000000000E+00 0. -1.
</event>
<event>
 7    1  0.3151015E-009  0.2473212E+03  0.7561462E-02  0.1115010E+00
          1   -1    0    0  501    0  0.00000000000E+00  0.00000000000E+00  0.18701041281E+03  0.18701041281E+03  0.00000000000E+00 0. -1.
         -1   -1    0    0    0  501 -0.00000000000E+00 -0.00000000000E+00 -0.36241671573E+03  0.36241671573E+03  0.00000000000E+00 0.  1.
         25    2    1    2    0    0 -0.23244810502E+03 -0.34369914058E+02 -0.11902825148E+03  0.29159728114E+03  0.12509131544E+03 0.  0.
          5    1    3    3  502    0 -0.58945032472E+02 -0.49730407696E+02 -0.83570145949E+02  0.11379398928E+03  0.41800000000E+01 0. -1.
         -5    1    3    3    0  502 -0.17350307254E+03  0.15360493637E+02 -0.35458105531E+02  0.17780329186E+03  0.41800000000E+01 0. -1.
        -11    1    1    2    0    0  0.18395603613E+03  0.52667702613E+02 -0.70809664635E+02  0.20402872037E+03  0.00000000000E+00 0.  1.
         11    1    1    2    0    0  0.48492068882E+02 -0.18297788555E+02  0.14431613199E+02  0.53801127033E+02  0.00000000000E+00 0. -1.
</event>
<event>
 7    1  0.3151015E-009  0.7321021E+02  0.7561462E-02  0.1349505E+00
          2   -1    0    0  501    0  0.00000000000E+00  0.00000000000E+00  0.19973164704E+03  0.19973164704E+03  0.00000000000E+00 0. -1.
         -2   -1    0    0    0  501 -0.00000000000E+00 -0.00000000000E+00 -0.74353948834E+02  0.74353948834E+02  0.00000000000E+00 0.  1.
         25    2    1    2    0    0 -0.16354288149E+01 -0.55247442034E+02  0.66553512134E+02  0.15209155024E+03  0.12509002837E+03 0.  0.
          5    1    3    3  502    0  0.13764403329E+02 -0.37946741480E+02  0.10186733367E+03  0.10965327198E+03  0.41800000000E+01 0.  1.
         -5    1    3    3    0  502 -0.15399832144E+02 -0.17300700555E+02 -0.35313821534E+02  0.42438278253E+02  0.41800000000E+01 0.  1.
        -11    1    1    2    0    0 -0.28936673344E+02  0.17850540998E+02 -0.12181791459E+02  0.36116047975E+02  0.00000000000E+00 0.  1.
         11    1    1    2    0    0  0.30572102159E+02  0.37396901036E+02  0.71005977530E+02  0.85877997662E+02  0.00000000000E+00 0. -1.
</event>
<event>
 7    1  0.3151015E-009  0.1196856E+03  0.7561462E-02  0.1243617E+00
         -2   -1    0    0    0  501 -0.00000000000E+00  0.00000000000E+00  0.27006718052E+02  0.27006718052E+02  0.00000000000E+00 0. -1.
          2   -1    0    0  501    0  0.00000000000E+00 -0.00000000000E+00 -0.53950820143E+03  0.53950820143E+03  0.00000000000E+00 0.  1.
         25    2    1    2    0    0  0.36680676311E-01 -0.52993420562E+02 -0.25407743651E+03  0.28811542034E+03  0.12508736037E+03 0.  0.
          5    1    3    3  502    0  0.55965723603E+02 -0.56495820378E+02 -0.14637259362E+03  0.16663237531E+03  0.41800000000E+01 0. -1.
         -5    1    3    3    0  502 -0.55929042927E+02  0.35023998161E+01 -0.10770484288E+03  0.12148304502E+03  0.41800000000E+01 0. -1.
        -11    1    1    2    0    0 -0.28874671500E+02 -0.12893261525E+02 -0.77199981839E+02  0.83425535916E+02  0.00000000000E+00 0. -1.
         11    1    1    2    0    0  0.28837990824E+02  0.65886682087E+02 -0.18122406503E+03  0.19497396323E+03  0.00000000000E+00 0.  1.
</event>
<event>
 7    1  0.3151015E-009  0.1006687E+03  0.7561462E-02  0.1278896E+00
         -3   -1    0    0    0  501 -0.00000000000E+00  0.00000000000E+00  0.17401072489E+02  0.17401072489E+02  0.00000000000E+00 0.  1.
          3   -1    0    0  501    0  0.00000000000E+00 -0.00000000000E+00 -0.85389331862E+03  0.85389331862E+03  0.00000000000E+00 0. -1.
         25    2    1    2    0    0  0.29860902062E+01  0.47702927014E+02 -0.37450870503E+03  0.39773020836E+03  0.12509221608E+03 0.  0.
          5    1    3    3  502    0  0.44041662107E+02  0.20447818026E+02 -0.51300385228E+02  0.70760039483E+02  0.41800000000E+01 0. -1.
         -5    1    3    3    0  502 -0.41055571901E+02  0.27255108989E+02 -0.32320831980E+03  0.32697016888E+03  0.41800000000E+01 0. -1.
        -11    1    1    2    0    0  0.22067566069E+02 -0.67626015025E+02 -0.28757180501E+03  0.29623942752E+03  0.00000000000E+00 0.  1.
         11    1    1    2    0    0 -0.25053656275E+02  0.19923088010E+02 -0.17441173610E+03  0.17732475523E+03  0.00000000000E+00 0. -1.
</event>
<event>
 7    1  0.3151015E-009  0.1264570E+03  0.7561462E-02  0.1232810E+00
         -2   -1    0    0    0  501 -0.00000000000E+00  0.00000000000E+00  0.55564340508E+03  0.55564340508E+03  0.00000000000E+00 0. -1.
          2   -1    0    0  501    0  0.00000000000E+00 -0.00000000000E+00 -0.38912263082E+02  0.38912263082E+02  0.00000000000E+00 0.  1.
         25    2    1    2    0    0 -0.66565324352E+02  0.29962430173E+02  0.14363520446E+03  0.20397880141E+03  0.12509032672E+03 0.  0.
          5    1    3    3  502    0  0.26656688161E+02  0.36357720487E+02  0.76321126091E+02  0.88740349055E+02  0.41800000000E+01 0.  1.
         -5    1    3    3    0  502 -0.93222012514E+02 -0.63952903137E+01  0.67314078370E+02  0.11523845236E+03  0.41800000000E+01 0.  1.
        -11    1    1    2    0    0  0.87137773339E+02 -0.14427241714E+02  0.26045121014E+03  0.27501994420E+03  0.00000000000E+00 0.  1.
         11    1    1    2    0    0 -0.20572448987E+02 -0.15535188459E+02  0.11264472740E+03  0.11555692254E+03  0.00000000000E+00 0. -1.
</event>
<event>
 7    1  0.3151015E-009  0.1537870E+03  0.7561462E-02  0.1195895E+00
         -2   -1    0    0    0  501 -0.00000000000E+00  0.00000000000E+00  0.40199660784E+02  0.40199660784E+02  0.00000000000E+00 0. -1.
          2   -1    0    0  501    0  0.00000000000E+00 -0.00000000000E+00 -0.76695345542E+03  0.76695345542E+03  0.00000000000E+00 0.  1.
         25    2    1    2    0    0  0.42944099396E+02  0.10541323413E+03 -0.56705601174E+03  0.59174007495E+03  0.12509056818E+03 0.  0.
          5    1    3    3  502    0 -0.43962618149E+02  0.44367980701E+02 -0.22564039937E+03  0.23416295978E+03  0.41800000000E+01 0. -1.
         -5    1    3    3    0  502  0.86906717545E+02  0.61045253427E+02 -0.34141561237E+03  0.35757711517E+03  0.41800000000E+01 0. -1.
        -11    1    1    2    0    0  0.19883931496E+02 -0.53870544170E+02 -0.37231207397E+02  0.68436606178E+02  0.00000000000E+00 0. -1.
         11    1    1    2    0    0 -0.62828030892E+02 -0.51542689958E+02 -0.12246657550E+03  0.14697643508E+03  0.00000000000E+00 0.  1.
</event>
<event>
 7    1  0.3151015E-009  0.1077082E+03  0.7561462E-02  0.1264874E+00
          2   -1    0    0  501    0  0.00000000000E+00  0.00000000000E+00  0.67815442360E+02  0.67815442360E+02  0.00000000000E+00 0. -1.
         -2   -1    0    0    0  501 -0.00000000000E+00 -0.00000000000E+00 -0.23598207869E+03  0.23598207869E+03  0.00000000000E+00 0.  1.
         25    2    1    2    0    0 -0.59915623900E+02  0.10709934673E+02 -0.66753165176E+02  0.15429953607E+03  0.12509107515E+03 0.  0.
          5    1    3    3  502    0 -0.79842346543E+02  0.30311364454E+02 -0.85074573827E+02  0.12061813557E+03  0.41800000000E+01 0.  1.
         -5    1    3    3    0  502  0.19926722643E+02 -0.19601429782E+02  0.18321408651E+02  0.33681400502E+02  0.41800000000E+01 0.  1.
        -11    1    1    2    0    0 -0.20331215998E+02 -0.62852510644E+01 -0.15864598509E+01  0.21339624639E+02  0.00000000000E+00 0. -1.
         11    1    1    2    0    0  0.80246839898E+02 -0.44246836085E+01 -0.99827011301E+02  0.12815836034E+03  0.00000000000E+00 0.  1.
</event>
<event>
 7    1  0.3151015E-009  0.2077012E+03  0.7561462E-02  0.1143399E+00
          2   -1    0    0  501    0  0.00000000000E+00  0.00000000000E+00  0.12241977665E+04  0.12241977665E+04  0.00000000000E+00 0. -1.
         -2   -1    0    0    0  501 -0.00000000000E+00 -0.00000000000E+00 -0.40833517740E+02  0.40833517740E+02  0.00000000000E+00 0.  1.
         25    2    1    2    0    0 -0.17730456004E+03  0.10828711164E+02  0.38976638821E+03  0.44623644648E+03  0.12511978575E+03 0.  0.
          5    1    3    3  502    0 -0.73396329096E+02 -0.54071485550E+02  0.20633777961E+03  0.22561803644E+03  0.41800000000E+01 0. -1.
         -5    1    3    3    0  502 -0.10390823095E+03  0.64900196714E+02  0.18342860861E+03  0.22061841004E+03  0.41800000000E+01 0. -1.
        -11    1    1    2    0    0  0.26447545544E+01  0.23425191207E+02  0.91833742174E+02  0.94811236209E+02  0.00000000000E+00 0. -1.
         11    1    1    2    0    0  0.17465980549E+03 -0.34253902372E+02  0.70176411835E+03  0.72398360153E+03  0.00000000000E+00 0.  1.
</event>
<event>
 7    1  0.3151015E-009  0.1292651E+03  0.7561462E-02  0.1228550E+00
          1   -1    0    0  501    0  0.00000000000E+00  0.00000000000E+00  0.60283448531E+03  0.60283448531E+03  0.00000000000E+00 0. -1.
         -1   -1    0    0    0  501 -0.00000000000E+00 -0.00000000000E+00 -0.63051055329E+02  0.63051055329E+02  0.00000000000E+00 0.  1.
         25    2    1    2    0    0 -0.90180222054E+02 -0.35157434279E+02  0.50333804087E+03  0.52760224074E+03  0.12508566431E+03 0.  0.
          5    1    3    3  502    0  0.12837587360E+02  0.12940800951E+02  0.97855888498E+01  0.21106826564E+02  0.41800000000E+01 0. -1.
         -5    1    3    3    0  502 -0.10301780941E+03 -0.48098235229E+02  0.49355245202E+03  0.50649541418E+03  0.41800000000E+01 0. -1.
        -11    1    1    2    0    0  0.96589268352E+02  0.66257392810E+01  0.74501032186E+01  0.97102477928E+02  0.00000000000E+00 0.  1.
         11    1    1    2    0    0 -0.64090462980E+01  0.28531694998E+02  0.28995285891E+02  0.41180821966E+02  0.00000000000E+00 0. -1.
</event>
<event>
 7    1  0.3151015E-009  0.1131529E+03  0.7561462E-02  0.1254840E+00
          2   -1    0    0  501    0  0.00000000000E+00  0.00000000000E+00  0.24967858500E+03  0.24967858500E+03  0.00000000000E+00 0. -1.
         -2   -1    0    0    0  501 -0.00000000000E+00 -0.00000000000E+00 -0.66488066678E+02  0.66488066678E+02  0.00000000000E+00 0.  1.
         25    2    1    2    0    0  0.40960648947E+02 -0.32571729133E+02  0.15847726439E+03  0.20856706042E+03  0.12508590273E+03 0.  0.
          5    1    3    3  502    0  0.54277969212E+02 -0.68897440390E+02  0.14054148008E+03  0.16571763713E+03  0.41800000000E+01 0.  1.
         -5    1    3    3    0  502 -0.13317320265E+02  0.36325711257E+02  0.17935784317E+02  0.42849423292E+02  0.41800000000E+01 0.  1.
        -11    1    1    2    0    0  0.13032381417E+02  0.42702118211E+02  0.27771823345E+02  0.52579349910E+02  0.00000000000E+00 0. -1.
         11    1    1    2    0    0 -0.53993030363E+02 -0.10130389078E+02 -0.30585694176E+01  0.55020241344E+02  0.00000000000E+00 0.  1.
</event>
<event>
 7    1  0.3151015E-009  0.2989371E+03  0.7561462E-02  0.1085773E+00
          2   -1    0    0  501    0  0.00000000000E+00  0.00000000000E+00  0.29769065866E+03  0.29769065866E+03  0.00000000000E+00 0. -1.
         -2   -1    0    0    0  501 -0.00000000000E+00 -0.00000000000E+00 -0.32940430284E+03  0.32940430284E+03  0.00000000000E+00 0.  1.
         25    2    1    2    0    0  0.19657137383E+03 -0.22134879833E+03  0.31432856788E+01  0.32139399913E+03  0.12509447190E+03 0.  0.
          5    1    3    3  502    0  0.13566457147E+03 -0.18542623152E+03 -0.47072433023E+02  0.23456566168E+03  0.41800000000E+01 0.  1.
         -5    1    3    3    0  502  0.60906802360E+02 -0.35922566815E+02  0.50215718702E+02  0.86828337454E+02  0.41800000000E+01 0.  1.
        -11    1    1    2    0    0 -0.97528926742E+02  0.89744967784E+02  0.15563584154E+02  0.13344765245E+03  0.00000000000E+00 0.  1.
         11    1    1    2    0    0 -0.99042447092E+02  0.13160383055E+03 -0.50420514022E+02  0.17225330991E+03  0.00000000000E+00 0. -1.
</event>
<event>
 7    1  0.3151015E-009  0.8374151E+02  0.7561462E-02  0.1318757E+00
         -1   -1    0    0    0  501 -0.00000000000E+00  0.00000000000E+00  0.38840619922E+02  0.38840619922E+02  0.00000000000E+00 0.  1.
          1   -1    0    0  501    0  0.00000000000E+00 -0.00000000000E+00 -0.33773560158E+03  0.33773560158E+03  0.00000000000E+00 0. -1.
         25    2    1    2    0    0  0.16201605452E+02  0.75346068309E+01 -0.23474610655E+03  0.26659463653E+03  0.12509078050E+03 0.  0.
          5    1    3    3  502    0  0.59732765962E+02  0.21769264436E+02 -0.19716162852E+03  0.20720058968E+03  0.41800000000E+01 0. -1.
         -5    1    3    3    0  502 -0.43531160510E+02 -0.14234657605E+02 -0.37584478036E+02  0.59394046854E+02  0.41800000000E+01 0. -1.
        -11    1    1    2    0    0 -0.26395071056E+02  0.16874415239E+02 -0.75084678625E+02  0.81358187234E+02  0.00000000000E+00 0. -1.
         11    1    1    2    0    0  0.10193465604E+02 -0.24409022070E+02  0.10935803518E+02  0.28623397737E+02  0.00000000000E+00 0.  1.
</event>
<event>
 7    1  0.3151015E-009  0.1228892E+03  0.7561462E-02  0.1238405E+00
          2   -1    0    0  501    0  0.00000000000E+00  0.00000000000E+00  0.27128906941E+03  0.27128906941E+03  0.00000000000E+00 0. -1.
         -2   -1    0    0    0  501 -0.00000000000E+00 -0.00000000000E+00 -0.68801105624E+02  0.68801105624E+02  0.00000000000E+00 0.  1.
         25    2    1    2    0    0 -0.58515930998E+02 -0.41236726738E+02  0.57537884368E+02  0.15518504242E+03  0.12508879823E+03 0.  0.
          5    1    3    3  502    0 -0.77868953518E+02 -0.64077618143E+02  0.69640376599E+02  0.12262450620E+03  0.41800000000E+01 0.  1.
         -5    1    3    3    0  502  0.19353022520E+02  0.22840891405E+02 -0.12102492231E+02  0.32560536221E+02  0.41800000000E+01 0.  1.
        -11    1    1    2    0    0  0.36531271477E+02  0.69677187087E+02  0.94582347697E+02  0.12302546359E+03  0.00000000000E+00 0.  1.
         11    1    1    2    0    0  0.21984659521E+02 -0.28440460349E+02  0.50367731722E+02  0.61879669019E+02  0.00000000000E+00 0. -1.
</event>
<event>
 7    1  0.3151015E-009  0.1077147E+03  0.7561462E-02  0.1264861E+00
         -1   -1    0    0    0  501 -0.00000000000E+00  0.00000000000E+00  0.55247042245E+03  0.55247042245E+03  0.00000000000E+00 0.  1.
          1   -1    0    0  501    0  0.00000000000E+00 -0.00000000000E+00 -0.22068899607E+02  0.22068899607E+02  0.00000000000E+00 0. -1.
         25    2    1    2    0    0 -0.15591839140E+02 -0.17740973659E+02  0.30803003279E+03  0.33329624989E+03  0.12508413766E+03 0.  0.
          5    1    3    3  502    0  0.33103316321E+01  0.53192052417E+02  0.11834061146E+03  0.12985501707E+03  0.41800000000E+01 0.  1.
         -5    1    3    3    0  502 -0.18902170772E+02 -0.70933026076E+02  0.18968942133E+03  0.20344123282E+03  0.41800000000E+01 0.  1.
        -11    1    1    2    0    0  0.38433903806E+01 -0.34593589493E+02  0.51564222144E+02  0.62212194053E+02  0.00000000000E+00 0. -1.
         11    1    1    2    0    0  0.11748448759E+02  0.52334563151E+02  0.17080726790E+03  0.17903087811E+03  0.00000000000E+00 0.  1.
</event>
<event>
 7    1  0.3151015E-009  0.1019929E+03  0.7561462E-02  0.1276160E+00
         -3   -1    0    0    0  501 -0.00000000000E+00  0.00000000000E+00  0.24434102109E+03  0.24434102109E+03  0.00000000000E+00 0.  1.
          3   -1    0    0  501    0  0.00000000000E+00 -0.00000000000E+00 -0.57305616408E+02  0.57305616408E+02  0.00000000000E+00 0. -1.
         25    2    1    2    0    0  0.26958955559E+02 -0.90680912572E+01  0.60138060396E+02  0.14167863200E+03  0.12508889996E+03 0.  0.
          5    1    3    3  502    0  0.39687738998E+02  0.44014418441E+02  0.63332815904E+02  0.86838376469E+02  0.41800000000E+01 0.  1.
         -5    1    3    3    0  502 -0.12728783439E+02 -0.53082509699E+02 -0.31947555079E+01  0.54840255529E+02  0.41800000000E+01 0.  1.
        -11    1    1    2    0    0 -0.36616497238E+02 -0.31390997708E+02  0.98286759659E+02  0.10948264580E+03  0.00000000000E+00 0.  1.
         11    1    1    2    0    0  0.96575416786E+01  0.40459088965E+02  0.28610584622E+02  0.50485359696E+02  0.00000000000E+00 0. -1.
</event>
<event>
 7    1  0.3151015E-009  0.1244777E+03  0.7561462E-02  0.1235888E+00
         -2   -1    0    0    0  501 -0.00000000000E+00  0.00000000000E+00  0.22228857717E+02  0.22228857717E+02  0.00000000000E+00 0. -1.
          2   -1    0    0  501    0  0.00000000000E+00 -0.00000000000E+00 -0.98654430495E+03  0.98654430495E+03  0.00000000000E+00 0.  1.
         25    2    1    2    0    0 -0.59130084568E+02 -0.43119045691E+02 -0.73081842593E+03  0.74504904628E+03  0.12508753211E+03 0.  0.
          5    1    3    3  502    0 -0.86712175238E+02 -0.58993241529E+02 -0.64379664064E+03  0.65229655126E+03  0.41800000000E+01 0. -1.
         -5    1    3    3    0  502  0.27582090669E+02  0.15874195838E+02 -0.87021785289E+02  0.92752495029E+02  0.41800000000E+01 0. -1.
        -11    1    1    2    0    0  0.71028024866E+02  0.58803779201E+02 -0.22322031071E+03  0.24151640085E+03  0.00000000000E+00 0.  1.
         11    1    1    2    0    0 -0.11897940298E+02 -0.15684733510E+02 -0.10276710591E+02  0.22207715533E+02  0.00000000000E+00 0. -1.
</event>
<event>
 7    1  0.3151015E-009  0.1311973E+03  0.7561462E-02  0.1225690E+00
          1   -1    0    0  501    0  0.00000000000E+00  0.00000000000E+00  0.15740576502E+04  0.15740576502E+04  0.00000000000E+00 0. -1.
         -1   -1    0    0    0  501 -0.00000000000E+00 -0.00000000000E+00 -0.15931830616E+02  0.15931830616E+02  0.00000000000E+00 0.  1.
         25    2    1    2    0    0  0.33367903309E+02 -0.86917338947E+02  0.11792604705E+04  0.11895256277E+04  0.12509164967E+03 0.  0.
          5    1    3    3  502    0  0.78055567136E+02 -0.77414333533E+02  0.84492993174E+03  0.85206203562E+03  0.41800000000E+01 0.  1.
         -5    1    3    3    0  502 -0.44687663827E+02 -0.95030054146E+01  0.33433053881E+03  0.33746359209E+03  0.41800000000E+01 0.  1.
        -11    1    1    2    0    0 -0.46377291994E+02  0.77946819703E+02  0.37257382211E+03  0.38345509885E+03  0.00000000000E+00 0. -1.
         11    1    1    2    0    0  0.13009388685E+02  0.89705192448E+01  0.62915269030E+01  0.17008754224E+02  0.00000000000E+00 0.  1.
</event>
<event>
 7    1  0.3151015E-009  0.9146022E+02  0.7561462E-02  0.1299354E+00
          1   -1    0    0  501    0  0.00000000000E+00  0.00000000000E+00  0.16132143183E+03  0.16132143183E+03  0.00000000000E+00 0. -1.
         -1   -1    0    0    0  501 -0.00000000000E+00 -0.00000000000E+00 -0.71996533215E+02  0.71996533215E+02  0.00000000000E+00 0.  1.
         25    2    1    2    0    0  0.33021745255E+02 -0.25382177015E+02  0.43504550390E+02  0.13884337432E+03  0.12510054404E+03 0.  0.
          5    1    3    3  502    0  0.14563445652E+01  0.49908089322E+02  0.16245938541E+02  0.52672015704E+02  0.41800000000E+01 0. -1.
         -5    1    3    3    0  502  0.31565400690E+02 -0.75290266336E+02  0.27258611848E+02  0.86171358616E+02  0.41800000000E+01 0. -1.
        -11    1    1    2    0    0 -0.25146616476E+02  0.69390733554E+00 -0.14349964551E+02  0.28961272593E+02  0.00000000000E+00 0.  1.
         11    1    1    2    0    0 -0.78751287792E+01  0.24688269679E+02  0.60170312775E+02  0.65513318130E+02  0.00000000000E+00 0. -1.
</event>
<event>
 7    1  0.3151015E-009  0.7787383E+02  0.7561462E-02  0.1335196E+00
          1   -1    0    0  501    0  0.00000000000E+00  0.00000000000E+00  0.13568797446E+03  0.13568797446E+03  0.00000000000E+00 0. -1.
         -1   -1    0    0    0  501 -0.00000000000E+00 -0.00000000000E+00 -0.17152824889E+03  0.17152824889E+03  0.00000000000E+00 0.  1.
         25    2    1    2    0    0  0.26154522464E+02  0.28793431701E+02  0.80555504541E+02  0.15378202811E+03  0.12508637857E+03 0.  0.
          5    1    3    3  502    0  0.43422126114E+02  0.14901475736E+02 -0.20347922213E+02  0.50388940788E+02  0.41800000000E+01 0.  1.
         -5    1    3    3    0  502 -0.17267603650E+02  0.13891955965E+02  0.10090342675E+03  0.10339308733E+03  0.41800000000E+01 0.  1.
        -11    1    1    2    0    0 -0.33303834117E+02 -0.52590780600E+02 -0.42243213024E+02  0.75229147394E+02  0.00000000000E+00 0. -1.
         11    1    1    2    0    0  0.71493116529E+01  0.23797348899E+02 -0.74152565942E+02  0.78205047840E+02  0.00000000000E+00 0.  1.
</event>
<event>
 7    1  0.3151015E-009  0.1514779E+03  0.7561462E-02  0.1198669E+00
         -3   -1    0    0    0  501 -0.00000000000E+00  0.00000000000E+00  0.13071968905E+03  0.13071968905E+03  0.00000000000E+00 0.  1.
          3   -1    0    0  501    0  0.00000000000E+00 -0.00000000000E+00 -0.22160138961E+03  0.22160138961E+03  0.00000000000E+00 0. -1.
         25    2    1    2    0    0  0.11552801559E+03 -0.50160256491E+02 -0.83450049876E+02  0.19614640758E+03  0.12508688446E+03 0.  0.
          5    1    3    3  502    0  0.13798141722E+03 -0.51911081537E+02 -0.89422260496E+02  0.17247447625E+03  0.41800000000E+01 0. -1.
         -5    1    3    3    0  502 -0.22453401632E+02  0.17508250466E+01  0.59722106209E+01  0.23671931330E+02  0.41800000000E+01 0. -1.
        -11    1    1    2    0    0 -0.15865487618E+02  0.25279457274E+02 -0.38633384622E+02  0.48819085047E+02  0.00000000000E+00 0. -1.
         11    1    1    2    0    0 -0.99662527973E+02  0.24880799217E+02  0.31201733934E+02  0.10735558603E+03  0.00000000000E+00 0.  1.
</event>
<event>
 7    1  0.3151015E-009  0.1245216E+03  0.7561462E-02  0.1235819E+00
          1   -1    0    0  501    0  0.00000000000E+00  0.00000000000E+00  0.70570038551E+03  0.70570038551E+03  0.00000000000E+00 0. -1.
         -1   -1    0    0    0  501 -0.00000000000E+00 -0.00000000000E+00 -0.28184376306E+02  0.28184376306E+02  0.00000000000E+00 0.  1.
         25    2    1    2    0    0  0.51992863122E+02 -0.72366424905E+02  0.41316832234E+03  0.44079048790E+03  0.12509210357E+03 0.  0.
          5    1    3    3  502    0  0.16664235793E+02  0.25730627291E+02  0.21124334581E+03  0.21349703858E+03  0.41800000000E+01 0. -1.
         -5    1    3    3    0  502  0.35328627329E+02 -0.98097052196E+02  0.20192497653E+03  0.22729344932E+03  0.41800000000E+01 0. -1.
        -11    1    1    2    0    0  0.52111972622E+01  0.53157523373E+02  0.18986687475E+03  0.19723668268E+03  0.00000000000E+00 0. -1.
         11    1    1    2    0    0 -0.57204060384E+02  0.19208901532E+02  0.74480812116E+02  0.95857591227E+02  0.00000000000E+00 0.  1.
</event>
<event>
 7    1  0.3151015E-009  0.1708297E+03  0.7561462E-02  0.1176985E+00
         -1   -1    0    0    0  501 -0.00000000000E+00  0.00000000000E+00  0.70489812735E+02  0.70489812735E+02  0.00000000000E+00 0.  1.
          1   -1    0    0  501    0  0.00000000000E+00 -0.00000000000E+00 -0.64668170147E+03  0.64668170147E+03  0.00000000000E+00 0. -1.
         25    2    1    2    0    0 -0.22638087185E+02  0.16417698833E+03 -0.45531429217E+03  0.50042507532E+03  0.12509030684E+03 0.  0.
          5    1    3    3  502    0  0.27884561234E+01  0.10970630332E+03 -0.13278632203E+03  0.17231636079E+03  0.41800000000E+01 0.  1.
         -5    1    3    3    0  502 -0.25426543308E+02  0.54470685008E+02 -0.32252797014E+03  0.32810871453E+03  0.41800000000E+01 0.  1.
        -11    1    1    2    0    0 -0.11144577124E+02 -0.81636165128E+02 -0.90833797046E+02  0.12263540982E+03  0.00000000000E+00 0.  1.
         11    1    1    2    0    0  0.33782664309E+02 -0.82540823202E+02 -0.30043799523E+02  0.94111029069E+02  0.00000000000E+00 0. -1.
</event>
<event>
 7    1  0.3151015E-009  0.1812930E+03  0.7561462E-02  0.1166558E+00
         -2   -1    0    0    0  501 -0.00000000000E+00  0.00000000000E+00  0.13967594543E+03  0.13967594543E+03  0.00000000000E+00 0.  1.
          2   -1    0    0  501    0  0.00000000000E+00 -0.00000000000E+00 -0.33137085496E+03  0.33137085496E+03  0.00000000000E+00 0. -1.
         25    2    1    2    0    0  0.10818004760E+03 -0.12896842492E+03 -0.13868667132E+02  0.21017732549E+03  0.12508553433E+03 0.  0.
          5    1    3    3  502    0  0.16406900557E+02 -0.18702612023E+01  0.40707936828E+02  0.44128140496E+02  0.41800000000E+01 0.  1.
         -5    1    3    3    0  502  0.91773147047E+02 -0.12709816372E+03 -0.54576603960E+02  0.16604918500E+03  0.41800000000E+01 0.  1.
        -11    1    1    2    0    0 -0.24904139970E+02  0.95976499577E+02 -0.73872883522E+02  0.12364832218E+03  0.00000000000E+00 0.  1.
         11    1    1    2    0    0 -0.83275907633E+02  0.32991925341E+02 -0.10395335888E+03  0.13722115272E+03  0.00000000000E+00 0. -1.
</event>
<event>
 7    1  0.3151015E-009  0.1723426E+03  0.7561462E-02  0.1175427E+00
         -2   -1    0    0    0  501 -0.00000000000E+00  0.00000000000E+00  0.20831293293E+04  0.20831293293E+04  0.00000000000E+00 0.  1.
          2   -1    0    0  501    0  0.00000000000E+00 -0.00000000000E+00 -0.22286552324E+02  0.22286552324E+02  0.00000000000E+00 0. -1.
         25    2    1    2    0    0 -0.13650628832E+03  0.35004826189E+02  0.16646942593E+04  0.16753240700E+04  0.12507780795E+03 0.  0.
          5    1    3    3  502    0 -0.32106156817E+02 -0.39238684070E+02  0.26987182776E+03  0.27462475389E+03  0.41800000000E+01 0. -1.
         -5    1    3    3    0  502 -0.10440013151E+03  0.74243510260E+02  0.13948224315E+04  0.14006993161E+04  0.41800000000E+01 0. -1.
        -11    1    1    2    0    0  0.78587872206E+02 -0.63549615994E+02  0.27170805914E+03  0.28989632070E+03  0.00000000000E+00 0.  1.
         11    1    1    2    0    0  0.57918416117E+02  0.28544789804E+02  0.12444045855E+03  0.14019549093E+03  0.00000000000E+00 0. -1.
</event>
<event>
 7    1  0.3151015E-009  0.1538502E+03  0.7561462E-02  0.1195820E+00
         -2   -1    0    0    0  501 -0.00000000000E+00  0.00000000000E+00  0.38600576138E+02  0.38600576138E+02  0.00000000000E+00 0. -1.
          2   -1    0    0  501    0  0.00000000000E+00 -0.00000000000E+00 -0.62895672570E+03  0.62895672570E+03  0.00000000000E+00 0.  1.
         25    2    1    2    0    0 -0.10907521092E+03 -0.17516922688E+02 -0.35044393272E+03  0.38815305152E+03  0.12509035615E+03 0.  0.
          5    1    3    3  502    0  0.23818907999E+02 -0.22554043639E+02 -0.85588797914E+02  0.91754781843E+02  0.41800000000E+01 0. -1.
         -5    1    3    3    0  502 -0.13289411892E+03  0.50371209508E+01 -0.26485513481E+03  0.29639826967E+03  0.41800000000E+01 0. -1.
        -11    1    1    2    0    0 -0.13310089193E+02  0.13745683937E+02 -0.19842975014E+02  0.27565303529E+02  0.00000000000E+00 0. -1.
         11    1    1    2    0    0  0.12238530011E+03  0.37712387513E+01 -0.22006924182E+03  0.25183894679E+03  0.00000000000E+00 0.  1.
</event>
<event>
 7    1  0.3151015E-009  0.1769650E+03  0.7561462E-02  0.1170773E+00
         -2   -1    0    0    0  501 -0.00000000000E+00  0.00000000000E+00  0.60242732599E+02  0.60242732599E+02  0.00000000000E+00 0.  1.
          2   -1    0    0  501    0  0.00000000000E+00 -0.00000000000E+00 -0.59982926544E+03  0.59982926544E+03  0.00000000000E+00 0. -1.
         25    2    1    2    0    0  0.67004833936E+02  0.13696902866E+03 -0.20772899493E+03  0.28644302279E+03  0.12509239540E+03 0.  0.
          5    1    3    3  502    0  0.17451085262E+02 -0.18382754140E+02 -0.64276545263E+02  0.69220031043E+02  0.41800000000E+01 0. -1.
         -5    1    3    3    0  502  0.49553748674E+02  0.15535178280E+03 -0.14345244967E+03  0.21722299175E+03  0.41800000000E+01 0. -1.
        -11    1    1    2    0    0 -0.74865864976E+02 -0.88043594747E+02 -0.18015419767E+03  0.21403763046E+03  0.00000000000E+00 0.  1.
         11    1    1    2    0    0  0.78610310401E+01 -0.48925433915E+02 -0.15170334023E+03  0.15959134478E+03  0.00000000000E+00 0. -1.
</event>
<event>
 7    1  0.3151015E-009  0.1606756E+03  0.7561462E-02  0.1187936E+00
         -4   -1    0    0    0  501 -0.00000000000E+00  0.00000000000E+00  0.17267432301E+03  0.17267432301E+03  0.00000000000E+00 0.  1.
          4   -1    0    0  501    0  0.00000000000E+00 -0.00000000000E+00 -0.24228157216E+03  0.24228157216E+03  0.00000000000E+00 0. -1.
         25    2    1    2    0    0 -0.14099684960E+03 -0.47105610408E+02 -0.14024371760E+03  0.23961341077E+03  0.12508891303E+03 0.  0.
          5    1    3    3  502    0 -0.12285897388E+02 -0.30180879076E+02 -0.97482158617E+02  0.10286920037E+03  0.41800000000E+01 0.  1.
         -5    1    3    3    0  502 -0.12871095221E+03 -0.16924731332E+02 -0.42761558988E+02  0.13674421040E+03  0.41800000000E+01 0.  1.
        -11    1    1    2    0    0  0.67939589329E+02  0.51755285910E+02  0.51288191084E+02  0.99623671698E+02  0.00000000000E+00 0. -1.
         11    1    1    2    0    0  0.73057260271E+02 -0.46496755023E+01  0.19348277369E+02  0.75718812707E+02  0.00000000000E+00 0.  1.
</event>
<event>
 7    1  0.3151015E-009  0.1267284E+03  0.7561462E-02  0.1232393E+00
          2   -1    0    0  501    0  0.00000000000E+00  0.00000000000E+00  0.50401530147E+03  0.50401530147E+03  0.00000000000E+00 0. -1.
         -2   -1    0    0    0  501 -0.00000000000E+00 -0.00000000000E+00 -0.37554142640E+02  0.37554142640E+02  0.00000000000E+00 0.  1.
         25    2    1    2    0    0  0.21626317025E+02  0.77910195386E+02  0.20781438068E+03  0.25568157717E+03  0.12509418832E+03 0.  0.
          5    1    3    3  502    0  0.42766451502E+02  0.10331291684E+03  0.18154909146E+03  0.21326057575E+03  0.41800000000E+01 0.  1.
         -5    1    3    3    0  502 -0.21140134477E+02 -0.25402721457E+02  0.26265289226E+02  0.42421001418E+02  0.41800000000E+01 0.  1.
        -11    1    1    2    0    0  0.26218257130E+02 -0.19096845112E+02  0.14959257756E+03  0.15306869621E+03  0.00000000000E+00 0. -1.
         11    1    1    2    0    0 -0.47844574155E+02 -0.58813350274E+02  0.10905420059E+03  0.13281917073E+03  0.00000000000E+00 0.  1.
</event>
<event>
 7    1  0.3151015E-009  0.1053562E+03  0.7561462E-02  0.1269419E+00
         -1   -1    0    0    0  501 -0.00000000000E+00  0.00000000000E+00  0.35123505601E+02  0.35123505601E+02  0.00000000000E+00 0.  1.
          1   -1    0    0  501    0  0.00000000000E+00 -0.00000000000E+00 -0.57542079371E+03  0.57542079371E+03  0.00000000000E+00 0. -1.
         25    2    1    2    0    0  0.61577295977E+02  0.65767858860E+02 -0.26481244331E+03  0.30641420758E+03  0.12508741678E+03 0.  0.
          5    1    3    3  502    0  0.48052243153E+02  0.14653647569E+02 -0.17320763384E+02  0.53303177235E+02  0.41800000000E+01 0. -1.
         -5    1    3    3    0  502  0.13525052823E+02  0.51114211291E+02 -0.24749167992E+03  0.25311103034E+03  0.41800000000E+01 0. -1.
        -11    1    1    2    0    0  0.32132529809E+01 -0.35685634114E+02 -0.25080048411E+02  0.43735549672E+02  0.00000000000E+00 0.  1.
         11    1    1    2    0    0 -0.64790548958E+02 -0.30082224746E+02 -0.25040479639E+03  0.26039454206E+03  0.00000000000E+00 0. -1.
</event>
<event>
 7    1  0.3151015E-009  0.8177102E+02  0.7561462E-02  0.1324099E+00
          2   -1    0    0  501    0  0.00000000000E+00  0.00000000000E+00  0.13520378426E+03  0.13520378426E+03  0.00000000000E+00 0.  1.
         -2   -1    0    0    0  501 -0.00000000000E+00 -0.00000000000E+00 -0.22514217878E+03  0.22514217878E+03  0.00000000000E+00 0. -1.
         25    2    1    2    0    0  0.67227823034E+01  0.14432661319E+01 -0.18861780080E+03  0.22643313188E+03  0.12509200459E+03 0.  0.
          5    1    3    3  502    0 -0.43715687473E+02 -0.25384710392E+02 -0.32762563469E+02  0.60384624019E+02  0.41800000000E+01 0. -1.
         -5    1    3    3    0  502  0.50438469776E+02  0.26827976524E+02 -0.15585523733E+03  0.16604850786E+03  0.41800000000E+01 0. -1.
        -11    1    1    2    0    0  0.14097029032E+02  0.20762801600E+02  0.10033713562E+03  0.10342804717E+03  0.00000000000E+00 0.  1.
         11    1    1    2    0    0 -0.20819811335E+02 -0.22206067732E+02 -0.16577293363E+01  0.30484783987E+02  0.00000000000E+00 0. -1.
</event>
<event>
 7    1  0.3151015E-009  0.1183189E+03  0.7561462E-02  0.1245896E+00
          1   -1    0    0  501    0  0.00000000000E+00  0.00000000000E+00  0.38928813330E+03  0.38928813330E+03  0.00000000000E+00 0. -1.
         -1   -1    0    0    0  501 -0.00000000000E+00 -0.00000000000E+00 -0.46976492683E+02  0.46976492683E+02  0.00000000000E+00 0.  1.
         25    2    1    2    0    0  0.28092974912E+02 -0.71783914508E+02  0.15779709561E+03  0.21561140933E+03  0.12508481455E+03 0.  0.
          5    1    3    3  502    0  0.54127176122E+02  0.76961208961E+01  0.99401385904E+02  0.11352131690E+03  0.41800000000E+01 0.  1.
         -5    1    3    3    0  502 -0.26034201210E+02 -0.79480035404E+02  0.58395709701E+02  0.10209009243E+03  0.41800000000E+01 0.  1.
        -11    1    1    2    0    0 -0.45505289552E+02  0.65074733048E+02  0.73895001210E+02  0.10847084153E+03  0.00000000000E+00 0.  1.
         11    1    1    2    0    0  0.17412314640E+02  0.67091814600E+01  0.11061954380E+03  0.11218237512E+03  0.00000000000E+00 0. -1.
</event>
<event>
 7    1  0.3151015E-009  0.1029494E+03  0.7561462E-02  0.1274213E+00
          1   -1    0    0  501    0  0.00000000000E+00  0.00000000000E+00  0.26889884123E+03  0.26889884123E+03  0.00000000000E+00 0. -1.
         -1   -1    0    0    0  501 -0.00000000000E+00 -0.00000000000E+00 -0.87630415320E+02  0.87630415320E+02  0.00000000000E+00 0.  1.
         25    2    1    2    0    0  0.10066915821E+02  0.94754598811E+02  0.15786336618E+03  0.22281558578E+03  0.12508463572E+03 0.  0.
          5    1    3    3  502    0 -0.17051958379E+02  0.47476510106E+02 -0.51509283073E+01  0.50880180413E+02  0.41800000000E+01 0.  1.
         -5    1    3    3    0  502  0.27118874201E+02  0.47278088705E+02  0.16301429449E+03  0.17193540536E+03  0.41800000000E+01 0.  1.
        -11    1    1    2    0    0  0.11221345269E+02 -0.20498142570E+02  0.47381237053E+02  0.52830616721E+02  0.00000000000E+00 0. -1.
         11    1    1    2    0    0 -0.21288261090E+02 -0.74256456241E+02 -0.23976177326E+02  0.80883054052E+02  0.00000000000E+00 0.  1.
</event>
<event>
 7    1  0.3151015E-009  0.1083829E+03  0.7561462E-02  0.1263594E+00
         -1   -1    0    0    0  501 -0.00000000000E+00  0.00000000000E+00  0.16492122862E+03  0.16492122862E+03  0.00000000000E+00 0.  1.
          1   -1    0    0  501    0  0.00000000000E+00 -0.00000000000E+00 -0.82069866472E+02  0.82069866472E+02  0.00000000000E+00 0. -1.
         25    2    1    2    0    0 -0.36537368115E+02  0.21235229548E+02  0.55014211247E+02  0.14303852066E+03  0.12509013035E+03 0.  0.
          5    1    3    3  502    0 -0.35412599767E+02  0.64328765950E+02  0.65487174687E+02  0.98479870021E+02  0.41800000000E+01 0. -1.
         -5    1    3    3    0  502 -0.11247683483E+01 -0.43093536401E+02 -0.10472963440E+02  0.44558650637E+02  0.41800000000E+01 0. -1.
        -11    1    1    2    0    0  0.52750921150E+02 -0.46209871148E+02  0.16143376571E+02  0.71962632531E+02  0.00000000000E+00 0. -1.
         11    1    1    2    0    0 -0.16213553035E+02  0.24974641599E+02  0.11693774334E+02  0.31989941907E+02  0.00000000000E+00 0.  1.
</event>
<event>
 7    1  0.3151015E-009  0.1010612E+03  0.7561462E-02  0.1278080E+00
         -3   -1    0    0    0  501 -0.00000000000E+00  0.00000000000E+00  0.33056347565E+03  0.33056347565E+03  0.00000000000E+00 0.  1.
          3   -1    0    0  501    0  0.00000000000E+00 -0.00000000000E+00 -0.44185308296E+02  0.44185308296E+02  0.00000000000E+00 0. -1.
         25    2    1    2    0    0 -0.40138011681E+02 -0.16208842130E+02  0.11063937402E+03  0.17251536444E+03  0.12508674325E+03 0.  0.
          5    1    3    3  502    0 -0.91120333046E+01 -0.56372085833E+02  0.78351901355E+01  0.57790170588E+02  0.41800000000E+01 0.  1.
         -5    1    3    3    0  502 -0.31025978376E+02  0.40163243703E+02  0.10280418389E+03  0.11472519385E+03  0.41800000000E+01 0.  1.
        -11    1    1    2    0    0  0.55349205063E+02 -0.16595128856E+02  0.13971350534E+03  0.15119125761E+03  0.00000000000E+00 0.  1.
         11    1    1    2    0    0 -0.15211193382E+02  0.32803970985E+02  0.36025287986E+02  0.51042161895E+02  0.00000000000E+00 0. -1.
</event>
<event>
 7    1  0.3151015E-009  0.1209056E+03  0.7561462E-02  0.1241611E+00
          2   -1    0    0  501    0  0.00000000000E+00  0.00000000000E+00  0.57413012685E+03  0.57413012685E+03  0.00000000000E+00 0.  1.
         -2   -1    0    0    0  501 -0.00000000000E+00 -0.00000000000E+00 -0.58601995796E+02  0.58601995796E+02  0.00000000000E+00 0. -1.
         25    2    1    2    0    0 -0.82351327627E+02  0.20231153613E+02  0.48102194606E+03  0.50420310531E+03  0.12509043960E+03 0.  0.
          5    1    3    3  502    0  0.46941482080E+00  0.59293312920E+02  0.18558043207E+03  0.19486786927E+03  0.41800000000E+01 0. -1.
         -5    1    3    3    0  502 -0.82820742448E+02 -0.39062159307E+02  0.29544151399E+03  0.30933523604E+03  0.41800000000E+01 0. -1.
        -11    1    1    2    0    0  0.58267169043E+02 -0.28983788499E+02 -0.20181539334E+02  0.68135288316E+02  0.00000000000E+00 0. -1.
         11    1    1    2    0    0  0.24084158584E+02  0.87526348860E+01  0.54687724327E+02  0.60393729014E+02  0.00000000000E+00 0.  1.
</event>
<event>
 7    1  0.3151015E-009  0.9779712E+02  0.7561462E-02  0.1284998E+00
          2   -1    0    0  501    0  0.00000000000E+00  0.00000000000E+00  0.64672332517E+02  0.64672332517E+02  0.00000000000E+00 0. -1.
         -2   -1    0    0    0  501 -0.00000000000E+00 -0.00000000000E+00 -0.26021585136E+03  0.26021585136E+03  0.00000000000E+00 0.  1.
         25    2    1    2    0    0  0.42859541290E+02 -0.16448886100E+02 -0.15426574973E+03  0.20384485873E+03  0.12508916323E+03 0.  0.
          5    1    3    3  502    0 -0.28694083568E+02  0.11618019096E+02  0.22620279259E+00  0.31238635809E+02  0.41800000000E+01 0.  1.
         -5    1    3    3    0  502  0.71553624858E+02 -0.28066905196E+02 -0.15449195252E+03  0.17260622292E+03  0.41800000000E+01 0.  1.
        -11    1    1    2    0    0  0.13146851306E+02 -0.17500779075E+02  0.21241246041E+02  0.30500942623E+02  0.00000000000E+00 0. -1.
         11    1    1    2    0    0 -0.56006392596E+02  0.33949665176E+02 -0.62519015159E+02  0.90542382526E+02  0.00000000000E+00 0.  1.
</event>
<event>
 7    1  0.3151015E-009  0.7600894E+02  0.7561462E-02  0.1340775E+00
          1   -1    0    0  501    0  0.00000000000E+00  0.00000000000E+00  0.11836741199E+03  0.11836741199E+03  0.00000000000E+00 0. -1.
         -1   -1    0    0    0  501 -0.00000000000E+00 -0.00000000000E+00 -0.10649304407E+03  0.10649304407E+03  0.00000000000E+00 0.  1.
         25    2    1    2    0    0 -0.14720004884E+02  0.11805603566E+02 -0.30216802365E+02  0.13003803814E+03  0.12506312566E+03 0.  0.
          5    1    3    3  502    0 -0.49641585208E+02 -0.29565829979E+02  0.14474409641E+02  0.59711022590E+02  0.41800000000E+01 0. -1.
         -5    1    3    3    0  502  0.34921580324E+02  0.41371433545E+02 -0.44691212006E+02  0.70327015552E+02  0.41800000000E+01 0. -1.
        -11    1    1    2    0    0  0.13974471117E+01 -0.22598177799E+02 -0.20121506344E+02  0.30290353511E+02  0.00000000000E+00 0.  1.
         11    1    1    2    0    0  0.13322557772E+02  0.10792574234E+02  0.62212676625E+02  0.64532064410E+02  0.00000000000E+00 0. -1.
</event>
<event>
 7    1  0.3151015E-009  0.1680498E+03  0.7561462E-02  0.1179897E+00
          1   -1    0    0  501    0  0.00000000000E+00  0.00000000000E+00  0.37478596949E+03  0.37478596949E+03  0.00000000000E+00 0. -1.
         -1   -1    0    0    0  501 -0.00000000000E+00 -0.00000000000E+00 -0.11692926792E+03  0.11692926792E+03  0.00000000000E+00 0.  1.
         25    2    1    2    0    0 -0.72860864880E+02  0.13467310933E+03  0.24240426781E+03  0.31281387741E+03  0.12508853199E+03 0.  0.
          5    1    3    3  502    0 -0.18920513026E+02  0.11935486813E+03  0.91085270645E+02  0.15138549893E+03  0.41800000000E+01 0. -1.
         -5    1    3    3    0  502 -0.53940351853E+02  0.15318241204E+02  0.15131899717E+03  0.16142837847E+03  0.41800000000E+01 0. -1.
        -11    1    1    2    0    0  0.89813042617E+01 -0.60071571772E+02 -0.33282950322E+02  0.69260467394E+02  0.00000000000E+00 0.  1.
         11    1    1    2    0    0  0.63879560618E+02 -0.74601537560E+02  0.48735384080E+02  0.10964089261E+03  0.00000000000E+00 0. -1.
</event>
<event>
 7    1  0.4374624E-009  0.1711432E+03  0.7561462E-02  0.1176661E+00
          1   -1    0    0  501    0  0.00000000000E+00  0.00000000000E+00  0.64324092919E+03  0.64324092919E+03  0.00000000000E+00 0. -1.
         -1   -1    0    0    0  501 -0.00000000000E+00 -0.00000000000E+00 -0.50903566557E+02  0.50903566557E+02  0.00000000000E+00 0.  1.
         25    2    1    2    0    0 -0.13056090819E+03  0.61091224694E+02  0.31758499440E+03  0.37052076403E+03  0.12508844644E+03 0.  0.
          5    1    3    3  502    0 -0.14612115491E+03  0.21070970695E+02  0.24347679421E+03  0.28476973055E+03  0.41800000000E+01 0.  1.
         -5    1    3    3    0  502  0.15560246725E+02  0.40020253998E+02  0.74108200190E+02  0.85751033484E+02  0.41800000000E+01 0.  1.
        -11    1    1    2    0    0  0.67710040727E+02 -0.61765633880E+01  0.51540120735E+02  0.85318131695E+02  0.00000000000E+00 0.  1.
         11    1    1    2    0    0  0.62850867460E+02 -0.54914661306E+02  0.22321224750E+03  0.23830560002E+03  0.00000000000E+00 0. -1.
</event>
<event>
 7    1  0.3151015E-009  0.1228521E+03  0.7561462E-02  0.1238465E+00
          2   -1    0    0  501    0  0.00000000000E+00  0.00000000000E+00  0.39306462422E+03  0.39306462422E+03  0.00000000000E+00 0. -1.
         -2   -1    0    0    0  501 -0.00000000000E+00 -0.00000000000E+00 -0.40914930303E+02  0.40914930303E+02  0.00000000000E+00 0.  1.
         25    2    1    2    0    0 -0.31167449899E+02  0.56699702333E+02  0.17591993115E+03  0.22534757061E+03  0.12508972471E+03 0.  0.
          5    1    3    3  502    0  0.27918282031E+02 -0.23657141634E+02  0.25433362955E+02  0.44759570743E+02  0.41800000000E+01 0. -1.
         -5    1    3    3    0  502 -0.59085731931E+02  0.80356843967E+02  0.15048656819E+03  0.18058799987E+03  0.41800000000E+01 0. -1.
        -11    1    1    2    0    0 -0.28643954322E+02 -0.35435528872E+02  0.96514873584E+02  0.10672990981E+03  0.00000000000E+00 0.  1.
         11    1    1    2    0    0  0.59811404221E+02 -0.21264173461E+02  0.79714889185E+02  0.10190207410E+03  0.00000000000E+00 0. -1.
</event>
<event>
 7    1  0.3151015E-009  0.1758383E+03  0.7561462E-02  0.1171893E+00
         -1   -1    0    0    0  501 -0.00000000000E+00  0.00000000000E+00  0.18568044107E+03  0.18568044107E+03  0.00000000000E+00 0.  1.
          1   -1    0    0  501    0  0.00000000000E+00 -0.00000000000E+00 -0.19304220544E+03  0.19304220544E+03  0.00000000000E+00 0. -1.
         25    2    1    2    0    0 -0.54136225726E+02  0.14467492298E+03 -0.51855231291E+01  0.19880301854E+03  0.12503673963E+03 0.  0.
          5    1    3    3  502    0 -0.55255063867E+02  0.37822306419E+01 -0.14911607196E+02  0.57508745254E+02  0.41800000000E+01 0.  1.
         -5    1    3    3    0  502  0.11188381410E+01  0.14089269234E+03  0.97260840673E+01  0.14129427329E+03  0.41800000000E+01 0.  1.
        -11    1    1    2    0    0  0.18507808867E+02 -0.31605124499E+02  0.39865161920E+02  0.54135515316E+02  0.00000000000E+00 0.  1.
         11    1    1    2    0    0  0.35628416859E+02 -0.11306979848E+03 -0.42041403165E+02  0.12578411265E+03  0.00000000000E+00 0. -1.
</event>
<event>
 7    1  0.3151015E-009  0.9375279E+02  0.7561462E-02  0.1294010E+00
         -2   -1    0    0    0  501 -0.00000000000E+00  0.00000000000E+00  0.52762422948E+02  0.52762422948E+02  0.00000000000E+00 0.  1.
          2   -1    0    0  501    0  0.00000000000E+00 -0.00000000000E+00 -0.31307827139E+03  0.31307827139E+03  0.00000000000E+00 0. -1.
         25    2    1    2    0    0  0.13970816633E+02  0.53206157957E+02 -0.89768497929E+02  0.16349842677E+03  0.12508906176E+03 0.  0.
          5    1    3    3  502    0 -0.27063165283E+02  0.58775782394E+02 -0.32209163102E+00  0.64842761001E+02  0.41800000000E+01 0.  1.
         -5    1    3    3    0  502  0.41033981916E+02 -0.55696244371E+01 -0.89446406298E+02  0.98655665766E+02  0.41800000000E+01 0.  1.
        -11    1    1    2    0    0 -0.36136811445E+02 -0.20540291388E+02 -0.18937364141E+02  0.45677089140E+02  0.00000000000E+00 0.  1.
         11    1    1    2    0    0  0.22165994813E+02 -0.32665866569E+02 -0.15160998637E+03  0.15666517843E+03  0.00000000000E+00 0. -1.
</event>
<event>
 7    1  0.3151015E-009  0.1447494E+03  0.7561462E-02  0.1207078E+00
          1   -1    0    0  501    0  0.00000000000E+00  0.00000000000E+00  0.38976844832E+03  0.38976844832E+03  0.00000000000E+00 0. -1.
         -1   -1    0    0    0  501 -0.00000000000E+00 -0.00000000000E+00 -0.55997106739E+02  0.55997106739E+02  0.00000000000E+00 0.  1.
         25    2    1    2    0    0 -0.97262202316E+02  0.10676027424E+02  0.20257799109E+03  0.25740887049E+03  0.12509024971E+03 0.  0.
          5    1    3    3  502    0 -0.11840369502E+03  0.36988522388E+02  0.14868314723E+03  0.19367946833E+03  0.41800000000E+01 0.  1.
         -5    1    3    3    0  502  0.21141492702E+02 -0.26312494964E+02  0.53894843863E+02  0.63729402161E+02  0.41800000000E+01 0.  1.
        -11    1    1    2    0    0  0.20580343446E+02 -0.43373183321E+02  0.27560292518E+02  0.55356601155E+02  0.00000000000E+00 0.  1.
         11    1    1    2    0    0  0.76681858870E+02  0.32697155896E+02  0.10363305797E+03  0.13300008341E+03  0.00000000000E+00 0. -1.
</event>
<event>
 7    1  0.3151015E-009  0.2149330E+03  0.7561462E-02  0.1137718E+00
          1   -1    0    0  501    0  0.00000000000E+00  0.00000000000E+00  0.20692206857E+03  0.20692206857E+03  0.00000000000E+00 0. -1.
         -1   -1    0    0    0  501 -0.00000000000E+00 -0.00000000000E+00 -0.25511679824E+03  0.25511679824E+03  0.00000000000E+00 0.  1.
         25    2    1    2    0    0 -0.49260463936E+02  0.18598976517E+03 -0.97680790429E+02  0.24941480888E+03  0.12508966391E+03 0.  0.
          5    1    3    3  502    0 -0.24991279577E+01 -0.15503331539E+02 -0.25610629984E+02  0.30331101159E+02  0.41800000000E+01 0.  1.
         -5    1    3    3    0  502 -0.46761335978E+02  0.20149309671E+03 -0.72070160445E+02  0.21908370772E+03  0.41800000000E+01 0.  1.
        -11    1    1    2    0    0  0.65676737047E+02 -0.10321651009E+03  0.26771802342E+02  0.12523502363E+03  0.00000000000E+00 0. -1.
         11    1    1    2    0    0 -0.16416273111E+02 -0.82773255080E+02  0.22714258427E+02  0.87389034297E+02  0.00000000000E+00 0.  1.
</event>
<event>
 7    1  0.3151015E-009  0.1118244E+03  0.7561462E-02  0.1257228E+00
          2   -1    0    0  501    0  0.00000000000E+00  0.00000000000E+00  0.85899056516E+02  0.85899056516E+02  0.00000000000E+00 0. -1.
         -2   -1    0    0    0  501 -0.00000000000E+00 -0.00000000000E+00 -0.28722829811E+03  0.28722829811E+03  0.00000000000E+00 0.  1.
         25    2    1    2    0    0 -0.74020762846E+02 -0.46132848052E+02 -0.19129266566E+02  0.15371555368E+03  0.12512085998E+03 0.  0.
          5    1    3    3  502    0 -0.70475464309E+02  0.16105473361E+02 -0.45908370026E+02  0.85739303591E+02  0.41800000000E+01 0. -1.
         -5    1    3    3    0  502 -0.35452985369E+01 -0.62238321413E+02  0.26779103460E+02  0.67976250089E+02  0.41800000000E+01 0. -1.
        -11    1    1    2    0    0  0.31619748898E+02  0.10338077627E+02 -0.15325972893E+03  0.15682866091E+03  0.00000000000E+00 0.  1.
         11    1    1    2    0    0  0.42401013948E+02  0.35794770425E+02 -0.28940246100E+02  0.62583140045E+02  0.00000000000E+00 0. -1.
</event>
<event>
 7    1  0.3151015E-009  0.8033977E+02  0.7561462E-02  0.1328090E+00
         -1   -1    0    0    0  501 -0.00000000000E+00  0.00000000000E+00  0.63416342566E+02  0.63416342566E+02  0.00000000000E+00 0.  1.
          1   -1    0    0  501    0  0.00000000000E+00 -0.00000000000E+00 -0.19081801463E+03  0.19081801463E+03  0.00000000000E+00 0. -1.
         25    2    1    2    0    0  0.52557665594E+01  0.21450688047E+02 -0.10359680975E+03  0.16390604611E+03  0.12508052550E+03 0.  0.
          5    1    3    3  502    0  0.30679367902E+02  0.61750872954E+02 -0.91354772639E+02  0.11453192048E+03  0.41800000000E+01 0. -1.
         -5    1    3    3    0  502 -0.25423601342E+02 -0.40300184907E+02 -0.12242037116E+02  0.49374125628E+02  0.41800000000E+01 0. -1.
        -11    1    1    2    0    0 -0.21467371188E+02 -0.15585871124E+02 -0.51370238872E+02  0.57815818305E+02  0.00000000000E+00 0. -1.
         11    1    1    2    0    0  0.16211604629E+02 -0.58648169230E+01  0.27565376560E+02  0.32512492784E+02  0.00000000000E+00 0.  1.
</event>
<event>
 7    1  0.3151015E-009  0.1635054E+03  0.7561462E-02  0.1184795E+00
          1   -1    0    0  501    0  0.00000000000E+00  0.00000000000E+00  0.12635528230E+03  0.12635528230E+03  0.00000000000E+00 0. -1.
         -1   -1    0    0    0  501 -0.00000000000E+00 -0.00000000000E+00 -0.28187587182E+03  0.28187587182E+03  0.00000000000E+00 0.  1.
         25    2    1    2    0    0 -0.13261506004E+03  0.69738738217E+02 -0.13864423233E+03  0.23941674341E+03  0.12509159888E+03 0.  0.
          5    1    3    3  502    0 -0.71740533540E+02  0.85198375105E+02 -0.13678199808E+03  0.17644334692E+03  0.41800000000E+01 0.  1.
         -5    1    3    3    0  502 -0.60874526503E+02 -0.15459636889E+02 -0.18622342518E+01  0.62973396495E+02  0.41800000000E+01 0.  1.
        -11    1    1    2    0    0  0.36348155697E+02 -0.34438129981E+02 -0.39543974861E+02  0.63803598386E+02  0.00000000000E+00 0.  1.
         11    1    1    2    0    0  0.96266904347E+02 -0.35300608236E+02  0.22667617662E+02  0.10501081232E+03  0.00000000000E+00 0. -1.
</event>
<event>
 7    1  0.3561693E-009  0.1951678E+03  0.7561462E-02  0.1153881E+00
         -4   -1    0    0    0  501 -0.00000000000E+00  0.00000000000E+00  0.35496162876E+03  0.35496162876E+03  0.00000000000E+00 0.  1.
          4   -1    0    0  501    0  0.00000000000E+00 -0.00000000000E+00 -0.11653395471E+03  0.11653395471E+03  0.00000000000E+00 0. -1.
         25    2    1    2    0    0 -0.17141655255E+03  0.12342686165E+01  0.12835072313E+03  0.24800472482E+03  0.12508907827E+03 0.  0.
          5    1    3    3  502    0  0.13394697038E+02  0.21248491622E+01  0.41305953083E+02  0.43675932191E+02  0.41800000000E+01 0. -1.
         -5    1    3    3    0  502 -0.18481124958E+03 -0.89058054570E+00  0.87044770043E+02  0.20432879263E+03  0.41800000000E+01 0. -1.
        -11    1    1    2    0    0  0.88896690494E+02 -0.43051302661E+02  0.36544536049E+02  0.10531637744E+03  0.00000000000E+00 0. -1.
         11    1    1    2    0    0  0.82519862052E+02  0.41817034045E+02  0.73532414880E+02  0.11817448120E+03  0.00000000000E+00 0.  1.
</event>
<event>
 7    1  0.3151015E-009  0.1386513E+03  0.7561462E-02  0.1215155E+00
         -3   -1    0    0    0  501 -0.00000000000E+00  0.00000000000E+00  0.22457748194E+03  0.22457748194E+03  0.00000000000E+00 0. -1.
          3   -1    0    0  501    0  0.00000000000E+00 -0.00000000000E+00 -0.15446003227E+03  0.15446003227E+03  0.00000000000E+00 0.  1.
         25    2    1    2    0    0  0.83437526753E+02  0.82139653706E+02 -0.55534405090E+02  0.18011451986E+03  0.12509367104E+03 0.  0.
          5    1    3    3  502    0  0.96667701670E+02  0.45164555038E+02 -0.80207181070E+02  0.13354829042E+03  0.41800000000E+01 0. -1.
         -5    1    3    3    0  502 -0.13230174918E+02  0.36975098668E+02  0.24672775979E+02  0.46566229442E+02  0.41800000000E+01 0. -1.
        -11    1    1    2    0    0 -0.92680173441E+02 -0.72436621694E+02  0.60248867508E+02  0.13216128309E+03  0.00000000000E+00 0.  1.
         11    1    1    2    0    0  0.92426466889E+01 -0.97030320123E+01  0.65402987253E+02  0.66761711254E+02  0.00000000000E+00 0. -1.
</event>
<event>
 7    1  0.3151015E-009  0.1044537E+03  0.7561462E-02  0.1271200E+00
          1   -1    0    0  501    0  0.00000000000E+00  0.00000000000E+00  0.40076383444E+03  0.40076383444E+03  0.00000000000E+00 0. -1.
         -1   -1    0    0    0  501 -0.00000000000E+00 -0.00000000000E+00 -0.46184359887E+02  0.46184359887E+02  0.00000000000E+00 0.  1.
         25    2    1    2    0    0  0.34106739675E+02 -0.73308105709E+02  0.20779581294E+03  0.25566359248E+03  0.12508966619E+03 0.  0.
          5    1    3    3  502    0 -0.16881940032E+02 -0.27828269496E+01  0.15017985895E+03  0.15120914807E+03  0.41800000000E+01 0.  1.
         -5    1    3    3    0  502  0.50988679707E+02 -0.70525278759E+02  0.57615953993E+02  0.10445444441E+03  0.41800000000E+01 0.  1.
        -11    1    1    2    0    0  0.94715327604E+01  0.56772662578E+02  0.12924897533E+03  0.14148548608E+03  0.00000000000E+00 0. -1.
         11    1    1    2    0    0 -0.43578272435E+02  0.16535443131E+02  0.17534686280E+02  0.49799115764E+02  0.00000000000E+00 0.  1.
</event>
<event>
 7    1  0.3151015E-009  0.1124780E+03  0.7561462E-02  0.1256049E+00
          4   -1    0    0  501    0  0.00000000000E+00  0.00000000000E+00  0.44866250430E+02  0.44866250430E+02  0.00000000000E+00 0. -1.
         -4   -1    0    0    0  501 -0.00000000000E+00 -0.00000000000E+00 -0.56863526101E+03  0.56863526101E+03  0.00000000000E+00 0.  1.
         25    2    1    2    0    0 -0.47976309793E+02  0.73347960489E+02 -0.42480973791E+03  0.45143328032E+03  0.12508814313E+03 0.  0.
          5    1    3    3  502    0 -0.11792211114E+02  0.66256126243E+02 -0.79967788590E+02  0.10460043078E+03  0.41800000000E+01 0.  1.
         -5    1    3    3    0  502 -0.36184098678E+02  0.70918342456E+01 -0.34484194932E+03  0.34683284954E+03  0.41800000000E+01 0.  1.
        -11    1    1    2    0    0  0.59233367881E+02 -0.15145296582E+02 -0.22116433333E+02  0.65016217227E+02  0.00000000000E+00 0. -1.
         11    1    1    2    0    0 -0.11257058089E+02 -0.58202663907E+02 -0.76842839337E+02  0.97052013890E+02  0.00000000000E+00 0.  1.
</event>
<event>
 7    1  0.3151015E-009  0.1237762E+03  0.7561462E-02  0.1236994E+00
          1   -1    0    0  501    0  0.00000000000E+00  0.00000000000E+00  0.99610488799E+02  0.99610488799E+02  0.00000000000E+00 0. -1.
         -1   -1    0    0    0  501 -0.00000000000E+00 -0.00000000000E+00 -0.16523722025E+03  0.16523722025E+03  0.00000000000E+00 0.  1.
         25    2    1    2    0    0 -0.33283653663E+02 -0.59001367754E+02 -0.46398343085E+02  0.14962995801E+03  0.12508938842E+03 0.  0.
          5    1    3    3  502    0 -0.22943699138E+02  0.34032617590E+02 -0.37074120245E+02  0.55467063940E+02  0.41800000000E+01 0.  1.
         -5    1    3    3    0  502 -0.10339954525E+02 -0.93033985345E+02 -0.93242228400E+01  0.94162894073E+02  0.41800000000E+01 0.  1.
        -11    1    1    2    0    0 -0.30523980426E+02  0.99220070990E+01 -0.12475205466E+02  0.34435306842E+02  0.00000000000E+00 0.  1.
         11    1    1    2    0    0  0.63807634088E+02  0.49079360655E+02 -0.67531828969E+01  0.80782444191E+02  0.00000000000E+00 0. -1.
</event>
<event>
 7    1  0.3151015E-009  0.9360939E+02  0.7561462E-02  0.1294339E+00
         -1   -1    0    0    0  501 -0.00000000000E+00  0.00000000000E+00  0.12454015487E+03  0.12454015487E+03  0.00000000000E+00 0.  1.
          1   -1    0    0  501    0  0.00000000000E+00 -0.00000000000E+00 -0.14145970656E+03  0.14145970656E+03  0.00000000000E+00 0. -1.
         25    2    1    2    0    0  0.46576512385E+02 -0.15739626564E+02  0.46640351458E+02  0.14226271408E+03  0.12508497145E+03 0.  0.
          5    1    3    3  502    0 -0.17766780416E+02 -0.36323507096E+02  0.60775575501E+02  0.73117703954E+02  0.41800000000E+01 0.  1.
         -5    1    3    3    0  502  0.64343292801E+02  0.20583880532E+02 -0.14135224043E+02  0.69145010124E+02  0.41800000000E+01 0.  1.
        -11    1    1    2    0    0 -0.59550862258E+02  0.23206884967E+02 -0.59216928249E+01  0.64186689831E+02  0.00000000000E+00 0.  1.
         11    1    1    2    0    0  0.12974349873E+02 -0.74672584028E+01 -0.57638210316E+02  0.59550457522E+02  0.00000000000E+00 0. -1.
</event>
<event>
 7    1  0.3151015E-009  0.8641519E+02  0.7561462E-02  0.1311773E+00
          2   -1    0    0  501    0  0.00000000000E+00  0.00000000000E+00  0.10523475380E+03  0.10523475380E+03  0.00000000000E+00 0.  1.
         -2   -1    0    0    0  501 -0.00000000000E+00 -0.00000000000E+00 -0.18832358861E+03  0.18832358861E+03  0.00000000000E+00 0. -1.
         25    2    1    2    0    0  0.16871743218E+02 -0.67609643683E+02  0.10741084082E+02  0.14359083337E+03  0.12508891599E+03 0.  0.
          5    1    3    3  502    0  0.14780904131E+02 -0.33790078991E+02  0.67686168594E+02  0.77195429813E+02  0.41800000000E+01 0.  1.
         -5    1    3    3    0  502  0.20908390870E+01 -0.33819564692E+02 -0.56945084512E+02  0.66395403561E+02  0.41800000000E+01 0.  1.
        -11    1    1    2    0    0  0.21256868136E+02  0.58679950406E+02 -0.91473199198E+02  0.11073634089E+03  0.00000000000E+00 0. -1.
         11    1    1    2    0    0 -0.38128611354E+02  0.89296932769E+01 -0.23567196968E+01  0.39231168139E+02  0.00000000000E+00 0.  1.
</event>
<event>
 7    1  0.3151015E-009  0.8336424E+02  0.7561462E-02  0.1319766E+00
         -1   -1    0    0    0  501 -0.00000000000E+00  0.00000000000E+00  0.17893798851E+02  0.17893798851E+02  0.00000000000E+00 0.  1.
          1   -1    0    0  501    0  0.00000000000E+00 -0.00000000000E+00 -0.96369881069E+03  0.96369881069E+03  0.00000000000E+00 0. -1.
         25    2    1    2    0    0  0.56429517072E+02  0.44149728025E+02 -0.55056754241E+03  0.56912655589E+03  0.12508768517E+03 0.  0.
          5    1    3    3  502    0  0.32257437981E+02  0.47866141785E+02 -0.84608669110E+02  0.10250760520E+03  0.41800000000E+01 0.  1.
         -5    1    3    3    0  502  0.24172079091E+02 -0.37164137600E+01 -0.46595887330E+03  0.46661895069E+03  0.41800000000E+01 0.  1.
        -11    1    1    2    0    0 -0.84378304881E+01  0.90665695670E+01 -0.17522329616E+01  0.12508796401E+02  0.00000000000E+00 0.  1.
         11    1    1    2    0    0 -0.47991686583E+02 -0.53216297592E+02 -0.39348523647E+03  0.39995725725E+03  0.00000000000E+00 0. -1.
</event>
<event>
 7    1  0.3151015E-009  0.1124038E+03  0.7561462E-02  0.1256182E+00
          1   -1    0    0  501    0  0.00000000000E+00  0.00000000000E+00  0.57898308819E+02  0.57898308819E+02  0.00000000000E+00 0. -1.
         -1   -1    0    0    0  501 -0.00000000000E+00 -0.00000000000E+00 -0.43013604929E+03  0.43013604929E+03  0.00000000000E+00 0.  1.
         25    2    1    2    0    0 -0.35044088842E+02  0.74260418810E+02 -0.32468157212E+03  0.35750230396E+03  0.12508827323E+03 0.  0.
          5    1    3    3  502    0  0.29122513191E+02  0.11849170164E+02 -0.14942189320E+02  0.35060876056E+02  0.41800000000E+01 0.  1.
         -5    1    3    3    0  502 -0.64166602033E+02  0.62411248645E+02 -0.30973938280E+03  0.32244142790E+03  0.41800000000E+01 0.  1.
        -11    1    1    2    0    0 -0.13165312701E+02 -0.45448961884E+02 -0.56462234153E+02  0.73667614869E+02  0.00000000000E+00 0.  1.
         11    1    1    2    0    0  0.48209401543E+02 -0.28811456926E+02  0.89060657938E+01  0.56864439285E+02  0.00000000000E+00 0. -1.
</event>
<event>
 7    1  0.3151015E-009  0.1010008E+03  0.7561462E-02  0.1278205E+00
          1   -1    0    0  501    0  0.00000000000E+00  0.00000000000E+00  0.15415212994E+03  0.15415212994E+03  0.00000000000E+00 0. -1.
         -1   -1    0    0    0  501 -0.00000000000E+00 -0.00000000000E+00 -0.81060119180E+02  0.81060119180E+02  0.00000000000E+00 0.  1.
         25    2    1    2    0    0  0.55958212651E+01 -0.12947192789E+02  0.16573318143E+02  0.12697698225E+03  0.12509810602E+03 0.  0.
          5    1    3    3  502    0  0.60486173645E+02  0.13370184881E+01  0.31275771692E+02  0.68234969888E+02  0.41800000000E+01 0. -1.
         -5    1    3    3    0  502 -0.54890352380E+02 -0.14284211278E+02 -0.14702453549E+02  0.58742012364E+02  0.41800000000E+01 0. -1.
        -11    1    1    2    0    0 -0.33863799537E+02  0.34948112485E+02  0.53448535535E+02  0.72283286009E+02  0.00000000000E+00 0. -1.
         11    1    1    2    0    0  0.28267978272E+02 -0.22000919695E+02  0.30701570795E+01  0.35951980857E+02  0.00000000000E+00 0.  1.
</event>
<event>
 7    1  0.3151015E-009  0.7928289E+02  0.7561462E-02  0.1331099E+00
         -1   -1    0    0    0  501 -0.00000000000E+00  0.00000000000E+00  0.15736242882E+03  0.15736242882E+03  0.00000000000E+00 0.  1.
          1   -1    0    0  501    0  0.00000000000E+00 -0.00000000000E+00 -0.87936694937E+02  0.87936694937E+02  0.00000000000E+00 0. -1.
         25    2    1    2    0    0 -0.88542296038E+01 -0.20087274485E+02  0.72691773687E+02  0.14633548494E+03  0.12509230277E+03 0.  0.
          5    1    3    3  502    0 -0.12767912436E+02 -0.57893445882E+02  0.87124648857E+02  0.10546491124E+03  0.41800000000E+01 0. -1.
         -5    1    3    3    0  502  0.39136828322E+01  0.37806171397E+02 -0.14432875170E+02  0.40870573702E+02  0.41800000000E+01 0. -1.
        -11    1    1    2    0    0 -0.15384968355E+02  0.30774503979E+02  0.37153019644E+02  0.50637083398E+02  0.00000000000E+00 0.  1.
         11    1    1    2    0    0  0.24239197959E+02 -0.10687229494E+02 -0.40419059448E+02  0.48326555418E+02  0.00000000000E+00 0. -1.
</event>
<event>
 6    1  0.3151015E-009  0.1394479E+03  0.7561462E-02  0.1214074E+00
          2   -1    0    0  501    0  0.00000000000E+00  0.00000000000E+00  0.40250876157E+03  0.40250876157E+03  0.00000000000E+00 0.  1.
         -2   -1    0    0    0  501 -0.00000000000E+00 -0.00000000000E+00 -0.64687580052E+02  0.64687580052E+02  0.00000000000E+00 0. -1.
          5    1    1    2  502    0 -0.17652336130E+02 -0.11457205296E+03  0.61883747996E+02  0.13147406952E+03  0.41800000000E+01 0.  1.
         -5    1    1    2    0  502  0.11228445444E+02 -0.23534443559E+01  0.11155898508E+03  0.11222520322E+03  0.41800000000E+01 0.  1.
        -11    1    1    2    0    0 -0.43865575134E+02  0.64848494777E+02  0.96417757844E+02  0.12420104663E+03  0.00000000000E+00 0.  1.
         11    1    1    2    0    0  0.50289465820E+02  0.52077002541E+02  0.67960690601E+02  0.99296022241E+02  0.00000000000E+00 0. -1.
</event>
<event>
 7    1  0.3151015E-009  0.9137137E+02  0.7561462E-02  0.1299564E+00
          1   -1    0    0  501    0  0.00000000000E+00  0.00000000000E+00  0.12753493913E+03  0.12753493913E+03  0.00000000000E+00 0. -1.
         -1   -1    0    0    0  501 -0.00000000000E+00 -0.00000000000E+00 -0.25666298729E+03  0.25666298729E+03  0.00000000000E+00 0.  1.
         25    2    1    2    0    0  0.88183779879E+01  0.19740962415E+02  0.83443048662E+02  0.15191607885E+03  0.12509309836E+03 0.  0.
          5    1    3    3  502    0 -0.19768846638E+02  0.51309031406E+02 -0.32463868685E+01  0.55239799320E+02  0.41800000000E+01 0.  1.
         -5    1    3    3    0  502  0.28587224626E+02 -0.31568068991E+02  0.86689435530E+02  0.96676279532E+02  0.41800000000E+01 0.  1.
        -11    1    1    2    0    0 -0.38009895093E+02 -0.35171953063E+02 -0.17382353473E+03  0.18137375674E+03  0.00000000000E+00 0.  1.
         11    1    1    2    0    0  0.29191517105E+02  0.15430990648E+02 -0.38747562095E+02  0.50908090827E+02  0.00000000000E+00 0. -1.
</event>
<event>
 7    1  0.3151015E-009  0.9491172E+02  0.7561462E-02  0.1291375E+00
         -3   -1    0    0    0  501 -0.00000000000E+00  0.00000000000E+00  0.91542569900E+03  0.91542569900E+03  0.00000000000E+00 0.  1.
          3   -1    0    0  501    0  0.00000000000E+00 -0.00000000000E+00 -0.26085574658E+02  0.26085574658E+02  0.00000000000E+00 0. -1.
         25    2    1    2    0    0 -0.82482232717E+02 -0.35232195278E+02  0.68522266811E+03  0.70229774220E+03  0.12508951797E+03 0.  0.
          5    1    3    3  502    0  0.29814404826E+01 -0.59252479753E+01  0.45322882481E+03  0.45329663311E+03  0.41800000000E+01 0. -1.
         -5    1    3    3    0  502 -0.85463673200E+02 -0.29306947303E+02  0.23199384330E+03  0.24900110909E+03  0.41800000000E+01 0. -1.
        -11    1    1    2    0    0  0.38560449778E+02  0.66367471532E+01  0.17487194093E+03  0.17919584377E+03  0.00000000000E+00 0.  1.
         11    1    1    2    0    0  0.43921782940E+02  0.28595448125E+02  0.29245515296E+02  0.60017687685E+02  0.00000000000E+00 0. -1.
</event>
<event>
 7    1  0.3151015E-009  0.1857634E+03  0.7561462E-02  0.1162339E+00
         -2   -1    0    0    0  501 -0.00000000000E+00  0.00000000000E+00  0.15009947877E+03  0.15009947877E+03  0.00000000000E+00 0.  1.
          2   -1    0    0  501    0  0.00000000000E+00 -0.00000000000E+00 -0.32121890087E+03  0.32121890087E+03  0.00000000000E+00 0. -1.
         25    2    1    2    0    0  0.17768611419E+03  0.32215067631E+02 -0.14143349389E+03  0.26127589012E+03  0.12510592235E+03 0.  0.
          5    1    3    3  502    0  0.90936334558E+02  0.30698123121E+02 -0.91099704204E+00  0.96073378319E+02  0.41800000000E+01 0. -1.
         -5    1    3    3    0  502  0.86749779635E+02  0.15169445098E+01 -0.14052249684E+03  0.16520251181E+03  0.41800000000E+01 0. -1.
        -11    1    1    2    0    0 -0.14316428941E+03 -0.27235387817E+01  0.17859900851E+02  0.14429971408E+03  0.00000000000E+00 0.  1.
         11    1    1    2    0    0 -0.34521824785E+02 -0.29491528849E+02 -0.47545829061E+02  0.65742775432E+02  0.00000000000E+00 0. -1.
</event>
<event>
 7    1  0.3151015E-009  0.8355685E+02  0.7561462E-02  0.1319250E+00
         -1   -1    0    0    0  501 -0.00000000000E+00  0.00000000000E+00  0.19652968543E+03  0.19652968543E+03  0.00000000000E+00 0.  1.
          1   -1    0    0  501    0  0.00000000000E+00 -0.00000000000E+00 -0.79292934039E+02  0.79292934039E+02  0.00000000000E+00 0. -1.
         25    2    1    2    0    0 -0.33310400258E+01  0.63115495178E+02  0.61336063486E+02  0.15298302775E+03  0.12508809909E+03 0.  0.
          5    1    3    3  502    0 -0.38152531513E+02  0.16811357820E+02 -0.25098919088E+02  0.48843275402E+02  0.41800000000E+01 0. -1.
         -5    1    3    3    0  502  0.34821491487E+02  0.46304137358E+02  0.86434982574E+02  0.10413975234E+03  0.41800000000E+01 0. -1.
        -11    1    1    2    0    0  0.12927146206E+02 -0.41716653435E+02 -0.16537340570E+02  0.46699827794E+02  0.00000000000E+00 0. -1.
         11    1    1    2    0    0 -0.95961061804E+01 -0.21398841743E+02  0.72438028472E+02  0.76139763926E+02  0.00000000000E+00 0.  1.
</event>
<event>
 7    1  0.3151015E-009  0.1095944E+03  0.7561462E-02  0.1261323E+00
          3   -1    0    0  501    0  0.00000000000E+00  0.00000000000E+00  0.21245517881E+02  0.21245517881E+02  0.00000000000E+00 0. -1.
         -3   -1    0    0    0  501 -0.00000000000E+00 -0.00000000000E+00 -0.72151195397E+03  0.72151195397E+03  0.00000000000E+00 0.  1.
         25    2    1    2    0    0  0.42333271804E+02 -0.17853815133E+02 -0.28033943088E+03  0.31040092981E+03  0.12509067152E+03 0.  0.
          5    1    3    3  502    0 -0.19468391722E+01  0.45062504176E+02 -0.49766230839E+02  0.67294647612E+02  0.41800000000E+01 0.  1.
         -5    1    3    3    0  502  0.44280110976E+02 -0.62916319309E+02 -0.23057320004E+03  0.24310628219E+03  0.41800000000E+01 0.  1.
        -11    1    1    2    0    0 -0.86399430850E+00  0.46456432300E+02 -0.27562166683E+03  0.27951073292E+03  0.00000000000E+00 0.  1.
         11    1    1    2    0    0 -0.41469277496E+02 -0.28602617167E+02 -0.14430533837E+03  0.15284580912E+03  0.00000000000E+00 0. -1.
</event>
<event>
 7    1  0.3151015E-009  0.1306679E+03  0.7561462E-02  0.1226468E+00
         -1   -1    0    0    0  501 -0.00000000000E+00  0.00000000000E+00  0.76465904316E+02  0.76465904316E+02  0.00000000000E+00 0.  1.
          1   -1    0    0  501    0  0.00000000000E+00 -0.00000000000E+00 -0.28383047085E+03  0.28383047085E+03  0.00000000000E+00 0. -1.
         25    2    1    2    0    0  0.69485884085E+01 -0.74205156714E+02 -0.31077629464E+02  0.14887756986E+03  0.12507607121E+03 0.  0.
          5    1    3    3  502    0 -0.72679351941E+01  0.34451580479E+02 -0.24591330048E+01  0.35542284882E+02  0.41800000000E+01 0.  1.
         -5    1    3    3    0  502  0.14216523603E+02 -0.10865673719E+03 -0.28618496459E+02  0.11333528497E+03  0.41800000000E+01 0.  1.
        -11    1    1    2    0    0 -0.44200201900E+02  0.15793908172E+02 -0.61822258145E+02  0.77621498217E+02  0.00000000000E+00 0.  1.
         11    1    1    2    0    0  0.37251613491E+02  0.58411248542E+02 -0.11446467893E+03  0.13379730710E+03  0.00000000000E+00 0. -1.
</event>
<event>
 7    1  0.3151015E-009  0.1359846E+03  0.7561462E-02  0.1218836E+00
         -1   -1    0    0    0  501 -0.00000000000E+00  0.00000000000E+00  0.50996290389E+03  0.50996290389E+03  0.00000000000E+00 0.  1.
          1   -1    0    0  501    0  0.00000000000E+00 -0.00000000000E+00 -0.53997323182E+02  0.53997323182E+02  0.00000000000E+00 0. -1.
         25    2    1    2    0    0  0.28039392932E+02  0.10090164576E+03  0.13123609878E+03  0.20937525856E+03  0.12509090935E+03 0.  0.
          5    1    3    3  502    0  0.70831670565E+02  0.25259071442E+02  0.71370853528E+02  0.10376134819E+03  0.41800000000E+01 0. -1.
         -5    1    3    3    0  502 -0.42792277633E+02  0.75642574323E+02  0.59865245253E+02  0.10561391037E+03  0.41800000000E+01 0. -1.
        -11    1    1    2    0    0  0.73701985025E+01 -0.14430054865E+02 -0.48741667098E+00  0.16210610241E+02  0.00000000000E+00 0. -1.
         11    1    1    2    0    0 -0.35409591435E+02 -0.86471590899E+02  0.32521689860E+03  0.33837435827E+03  0.00000000000E+00 0.  1.
</event>
<event>
 7    1  0.3151015E-009  0.1372804E+03  0.7561462E-02  0.1217036E+00
          3   -1    0    0  501    0  0.00000000000E+00  0.00000000000E+00  0.24298650825E+03  0.24298650825E+03  0.00000000000E+00 0. -1.
         -3   -1    0    0    0  501 -0.00000000000E+00 -0.00000000000E+00 -0.12644954309E+03  0.12644954309E+03  0.00000000000E+00 0.  1.
         25    2    1    2    0    0 -0.10298688553E+03 -0.75833825456E+02 -0.10320824546E+01  0.17890240225E+03  0.12509171301E+03 0.  0.
          5    1    3    3  502    0 -0.83339905426E+02 -0.59839162851E+02 -0.56916079818E+02  0.11740177933E+03  0.41800000000E+01 0.  1.
         -5    1    3    3    0  502 -0.19646980107E+02 -0.15994662605E+02  0.55883997363E+02  0.61500622927E+02  0.41800000000E+01 0.  1.
        -11    1    1    2    0    0  0.24782076142E+02  0.62016882417E+02  0.75009844956E+02  0.10043267318E+03  0.00000000000E+00 0.  1.
         11    1    1    2    0    0  0.78204809392E+02  0.13816943039E+02  0.42559202655E+02  0.90100975897E+02  0.00000000000E+00 0. -1.
</event>
<event>
 7    1  0.3209068E-009  0.9652403E+02  0.7561462E-02  0.1287780E+00
         -2   -1    0    0    0  501 -0.00000000000E+00  0.00000000000E+00  0.20999755512E+02  0.20999755512E+02  0.00000000000E+00 0. -1.
          2   -1    0    0  501    0  0.00000000000E+00 -0.00000000000E+00 -0.73210245082E+03  0.73210245082E+03  0.00000000000E+00 0.  1.
         25    2    1    2    0    0 -0.46208897834E+02  0.37820711016E+02 -0.41876764862E+03  0.44111762535E+03  0.12511094052E+03 0.  0.
          5    1    3    3  502    0 -0.38835625609E+02  0.74445424400E+02 -0.17137726565E+03  0.19088731391E+03  0.41800000000E+01 0.  1.
         -5    1    3    3    0  502 -0.73732722250E+01 -0.36624713384E+02 -0.24739038298E+03  0.25023031144E+03  0.41800000000E+01 0.  1.
        -11    1    1    2    0    0  0.75239991826E+01  0.82905814866E+01  0.21595296420E+01  0.11402099515E+02  0.00000000000E+00 0. -1.
         11    1    1    2    0    0  0.38684898652E+02 -0.46111292502E+02 -0.29449457633E+03  0.30058248147E+03  0.00000000000E+00 0.  1.
</event>
<event>
 7    1  0.3151015E-009  0.1366443E+03  0.7561462E-02  0.1217917E+00
          2   -1    0    0  501    0  0.00000000000E+00  0.00000000000E+00  0.12479337012E+03  0.12479337012E+03  0.00000000000E+00 0. -1.
         -2   -1    0    0    0  501 -0.00000000000E+00 -0.00000000000E+00 -0.17825441294E+03  0.17825441294E+03  0.00000000000E+00 0.  1.
         25    2    1    2    0    0 -0.82367955029E+02  0.58452436286E+02 -0.41630844190E+02  0.16607689441E+03  0.12508892975E+03 0.  0.
          5    1    3    3  502    0  0.30712121311E+02  0.30917108952E+02 -0.17482241686E+02  0.47140250273E+02  0.41800000000E+01 0. -1.
         -5    1    3    3    0  502 -0.11308007634E+03  0.27535327334E+02 -0.24148602504E+02  0.11893664414E+03  0.41800000000E+01 0. -1.
        -11    1    1    2    0    0 -0.22116278195E+01 -0.20031946958E+02 -0.35753967755E+02  0.41042860606E+02  0.00000000000E+00 0.  1.
         11    1    1    2    0    0  0.84579582848E+02 -0.38420489328E+02  0.23923769119E+02  0.95928028041E+02  0.00000000000E+00 0. -1.
</event>
<event>
 7    1  0.3151015E-009  0.1167879E+03  0.7561462E-02  0.1248492E+00
          2   -1    0    0  501    0  0.00000000000E+00  0.00000000000E+00  0.17191546411E+04  0.17191546411E+04  0.00000000000E+00 0. -1.
         -2   -1    0    0    0  501 -0.00000000000E+00 -0.00000000000E+00 -0.92157176098E+01  0.92157176098E+01  0.00000000000E+00 0.  1.
         25    2    1    2    0    0 -0.42076303824E+00 -0.48179558626E+02  0.12697055054E+04  0.12767619380E+04  0.12509008346E+03 0.  0.
          5    1    3    3  502    0  0.18193020793E+02  0.39294678559E+02  0.49215521316E+03  0.49407416854E+03  0.41800000000E+01 0. -1.
         -5    1    3    3    0  502 -0.18613783831E+02 -0.87474237185E+02  0.77755029221E+03  0.78268776944E+03  0.41800000000E+01 0. -1.
        -11    1    1    2    0    0 -0.46461914910E+00  0.74352647860E+02  0.33700232300E+03  0.34510737144E+03  0.00000000000E+00 0. -1.
         11    1    1    2    0    0  0.88538218734E+00 -0.26173089234E+02  0.10323109514E+03  0.10650104931E+03  0.00000000000E+00 0.  1.
</event>
<event>
 7    1  0.3151015E-009  0.2131841E+03  0.7561462E-02  0.1139069E+00
         -2   -1    0    0    0  501 -0.00000000000E+00  0.00000000000E+00  0.87558585809E+03  0.87558585809E+03  0.00000000000E+00 0.  1.
          2   -1    0    0  501    0  0.00000000000E+00 -0.00000000000E+00 -0.65350177354E+02  0.65350177354E+02  0.00000000000E+00 0. -1.
         25    2    1    2    0    0 -0.15670391173E+03  0.11455171853E+03  0.59513343978E+03  0.63836474475E+03  0.12509006368E+03 0.  0.
          5    1    3    3  502    0 -0.17117392245E+03  0.89479680276E+02  0.44071700117E+03  0.48120273527E+03  0.41800000000E+01 0. -1.
         -5    1    3    3    0  502  0.14470010722E+02  0.25072038250E+02  0.15441643860E+03  0.15716200948E+03  0.41800000000E+01 0. -1.
        -11    1    1    2    0    0  0.36932457873E+02  0.17544262651E+01  0.78814639558E+02  0.87056486632E+02  0.00000000000E+00 0.  1.
         11    1    1    2    0    0  0.11977145385E+03 -0.11630614479E+03  0.13628760140E+03  0.21551480406E+03  0.00000000000E+00 0. -1.
</event>
<event>
 7    1  0.3151015E-009  0.9476717E+02  0.7561462E-02  0.1291701E+00
         -1   -1    0    0    0  501 -0.00000000000E+00  0.00000000000E+00  0.31570868621E+03  0.31570868621E+03  0.00000000000E+00 0.  1.
          1   -1    0    0  501    0  0.00000000000E+00 -0.00000000000E+00 -0.41503148975E+02  0.41503148975E+02  0.00000000000E+00 0. -1.
         25    2    1    2    0    0  0.31774518058E+02 -0.50878826601E+01  0.13123702103E+03  0.18413411988E+03  0.12508681731E+03 0.  0.
          5    1    3    3  502    0  0.47374040927E+02 -0.48638811031E+02  0.11737164898E+03  0.13565990593E+03  0.41800000000E+01 0.  1.
         -5    1    3    3    0  502 -0.15599522869E+02  0.43550928371E+02  0.13865372051E+02  0.48474213948E+02  0.41800000000E+01 0.  1.
        -11    1    1    2    0    0 -0.50551047329E+02 -0.93063966781E+01  0.34135846101E+02  0.61703106844E+02  0.00000000000E+00 0. -1.
         11    1    1    2    0    0  0.18776529271E+02  0.14394279338E+02  0.10883267010E+03  0.11137460847E+03  0.00000000000E+00 0.  1.
</event>
<event>
 7    1  0.3151015E-009  0.1151086E+03  0.7561462E-02  0.1251392E+00
         -1   -1    0    0    0  501 -0.00000000000E+00  0.00000000000E+00  0.47021367837E+02  0.47021367837E+02  0.00000000000E+00 0.  1.
          1   -1    0    0  501    0  0.00000000000E+00 -0.00000000000E+00 -0.43591071079E+03  0.43591071079E+03  0.00000000000E+00 0. -1.
         25    2    1    2    0    0 -0.23160100324E+02 -0.47781583835E+02 -0.33745563264E+03  0.36379044414E+03  0.12509082000E+03 0.  0.
          5    1    3    3  502    0 -0.44423262959E+02 -0.82286069373E+02 -0.25880230451E+03  0.27520997207E+03  0.41800000000E+01 0.  1.
         -5    1    3    3    0  502  0.21263162636E+02  0.34504485538E+02 -0.78653328126E+02  0.88580472074E+02  0.41800000000E+01 0.  1.
        -11    1    1    2    0    0  0.51741889866E+02  0.42147302506E+02 -0.58963615428E+02  0.89052379080E+02  0.00000000000E+00 0. -1.
         11    1    1    2    0    0 -0.28581789542E+02  0.56342813291E+01  0.75299051168E+01  0.30089255401E+02  0.00000000000E+00 0.  1.
</event>
<event>
 7    1  0.3151015E-009  0.1076626E+03  0.7561462E-02  0.1264961E+00
         -3   -1    0    0    0  501 -0.00000000000E+00  0.00000000000E+00  0.21668550780E+03  0.21668550780E+03  0.00000000000E+00 0.  1.
          3   -1    0    0  501    0  0.00000000000E+00 -0.00000000000E+00 -0.95456051619E+02  0.95456051619E+02  0.00000000000E+00 0. -1.
         25    2    1    2    0    0 -0.47066910929E+02 -0.76410744017E+02  0.38215571311E+02  0.15862382221E+03  0.12508873321E+03 0.  0.
          5    1    3    3  502    0 -0.14509052916E+02 -0.59381161260E+02  0.81327548885E+02  0.10182473932E+03  0.41800000000E+01 0.  1.
         -5    1    3    3    0  502 -0.32557858013E+02 -0.17029582757E+02 -0.43111977574E+02  0.56799082894E+02  0.41800000000E+01 0.  1.
        -11    1    1    2    0    0  0.18510065253E+01 -0.14988714728E+02  0.40161577026E+02  0.42907342770E+02  0.00000000000E+00 0.  1.
         11    1    1    2    0    0  0.45215904404E+02  0.91399458745E+02  0.42852307841E+02  0.11061039444E+03  0.00000000000E+00 0. -1.
</event>
<event>
 7    1  0.3151015E-009  0.9492105E+02  0.7561462E-02  0.1291354E+00
         -2   -1    0    0    0  501 -0.00000000000E+00  0.00000000000E+00  0.35794268343E+02  0.35794268343E+02  0.00000000000E+00 0.  1.
          2   -1    0    0  501    0  0.00000000000E+00 -0.00000000000E+00 -0.36532910294E+03  0.36532910294E+03  0.00000000000E+00 0. -1.
         25    2    1    2    0    0  0.83784468918E+01 -0.10908051732E+02 -0.12636831287E+03  0.17834125477E+03  0.12508984248E+03 0.  0.
          5    1    3    3  502    0  0.50768467158E+02  0.34561885743E+02 -0.47057884781E+02  0.77484696062E+02  0.41800000000E+01 0. -1.
         -5    1    3    3    0  502 -0.42390020266E+02 -0.45469937475E+02 -0.79310428086E+02  0.10085655871E+03  0.41800000000E+01 0. -1.
        -11    1    1    2    0    0 -0.32557204300E+02 -0.99529905187E+01 -0.26204333215E+02  0.42961618350E+02  0.00000000000E+00 0.  1.
         11    1    1    2    0    0  0.24178757408E+02  0.20861042250E+02 -0.17696218852E+03  0.17982049816E+03  0.00000000000E+00 0. -1.
</event>
<event>
 7    1  0.3151015E-009  0.1775720E+03  0.7561462E-02  0.1170174E+00
          1   -1    0    0  501    0  0.00000000000E+00  0.00000000000E+00  0.50678228776E+03  0.50678228776E+03  0.00000000000E+00 0. -1.
         -1   -1    0    0    0  501 -0.00000000000E+00 -0.00000000000E+00 -0.68248663500E+02  0.68248663500E+02  0.00000000000E+00 0.  1.
         25    2    1    2    0    0  0.65080732994E+02 -0.13485939516E+03  0.26141957343E+03  0.32620475422E+03  0.12508712978E+03 0.  0.
          5    1    3    3  502    0 -0.29025615109E+02 -0.75508453219E+01  0.79146812422E+02  0.84741913562E+02  0.41800000000E+01 0. -1.
         -5    1    3    3    0  502  0.94106348103E+02 -0.12730854984E+03  0.18227276100E+03  0.24146284066E+03  0.41800000000E+01 0. -1.
        -11    1    1    2    0    0 -0.61413680032E+02  0.43974696669E+02  0.43421839578E+02  0.87125600110E+02  0.00000000000E+00 0.  1.
         11    1    1    2    0    0 -0.36670529624E+01  0.90884698490E+02  0.13369221126E+03  0.16170059693E+03  0.00000000000E+00 0. -1.
</event>
<event>
 7    1  0.3151015E-009  0.1083631E+03  0.7561462E-02  0.1263632E+00
          1   -1    0    0  501    0  0.00000000000E+00  0.00000000000E+00  0.95539819677E+02  0.95539819677E+02  0.00000000000E+00 0. -1.
         -1   -1    0    0    0  501 -0.00000000000E+00 -0.00000000000E+00 -0.13807535358E+03  0.13807535358E+03  0.00000000000E+00 0.  1.
         25    2    1    2    0    0  0.38319297636E+01 -0.56740035517E+01  0.11960480808E+02  0.12584825377E+03  0.12509137410E+03 0.  0.
          5    1    3    3  502    0 -0.52944823638E+02 -0.32463540377E+02  0.86371967425E+01  0.62841939590E+02  0.41800000000E+01 0. -1.
         -5    1    3    3    0  502  0.56776753402E+02  0.26789536826E+02  0.33232840656E+01  0.63006314185E+02  0.41800000000E+01 0. -1.
        -11    1    1    2    0    0  0.43708361541E+02  0.52248176605E+01 -0.16887303969E+02  0.47147647062E+02  0.00000000000E+00 0.  1.
         11    1    1    2    0    0 -0.47540291304E+02  0.44918589123E+00 -0.37608710744E+02  0.60619272423E+02  0.00000000000E+00 0. -1.
</event>
<event>
 7    1  0.3151015E-009  0.1676890E+03  0.7561462E-02  0.1180280E+00
          1   -1    0    0  501    0  0.00000000000E+00  0.00000000000E+00  0.54718658342E+03  0.54718658342E+03  0.00000000000E+00 0. -1.
         -1   -1    0    0    0  501 -0.00000000000E+00 -0.00000000000E+00 -0.52872675339E+02  0.52872675339E+02  0.00000000000E+00 0.  1.
         25    2    1    2    0    0  0.14673830955E+02 -0.12720991775E+03  0.30843544758E+03  0.35662020660E+03  0.12509141434E+03 0.  0.
          5    1    3    3  502    0  0.41217042858E+02  0.65442178775E+01  0.60277531964E+02  0.73433811485E+02  0.41800000000E+01 0.  1.
         -5    1    3    3    0  502 -0.26543211903E+02 -0.13375413562E+03  0.24815791561E+03  0.28318639511E+03  0.41800000000E+01 0.  1.
        -11    1    1    2    0    0  0.35405359206E+02  0.25479121166E+02  0.57108513198E+02  0.71861723856E+02  0.00000000000E+00 0. -1.
         11    1    1    2    0    0 -0.50079190161E+02  0.10173079658E+03  0.12876994731E+03  0.17157732831E+03  0.00000000000E+00 0.  1.
</event>
<event>
 7    1  0.3151015E-009  0.1595903E+03  0.7561462E-02  0.1189160E+00
          2   -1    0    0  501    0  0.00000000000E+00  0.00000000000E+00  0.74898830948E+03  0.74898830948E+03  0.00000000000E+00 0. -1.
         -2   -1    0    0    0  501 -0.00000000000E+00 -0.00000000000E+00 -0.37023528959E+02  0.37023528959E+02  0.00000000000E+00 0.  1.
         25    2    1    2    0    0  0.11287846048E+03 -0.35555908370E+02  0.27747595307E+03  0.32656905001E+03  0.12509464591E+03 0.  0.
          5    1    3    3  502    0  0.78099114505E+02  0.39856957949E+02  0.12263755648E+03  0.15081608483E+03  0.41800000000E+01 0.  1.
         -5    1    3    3    0  502  0.34779345973E+02 -0.75412866319E+02  0.15483839659E+03  0.17575296518E+03  0.41800000000E+01 0.  1.
        -11    1    1    2    0    0 -0.96795233473E+02 -0.12475021800E+02  0.25850800386E+03  0.27631744688E+03  0.00000000000E+00 0.  1.
         11    1    1    2    0    0 -0.16083227005E+02  0.48030930170E+02  0.17598082360E+03  0.18312534155E+03  0.00000000000E+00 0. -1.
</event>
<event>
 7    1  0.3151015E-009  0.8257898E+02  0.7561462E-02  0.1321888E+00
          2   -1    0    0  501    0  0.00000000000E+00  0.00000000000E+00  0.62128010536E+02  0.62128010536E+02  0.00000000000E+00 0. -1.
         -2   -1    0    0    0  501 -0.00000000000E+00 -0.00000000000E+00 -0.19952083633E+03  0.19952083633E+03  0.00000000000E+00 0.  1.
         25    2    1    2    0    0  0.16298230267E+02 -0.11151666913E+02 -0.98357163977E+02  0.16034791643E+03  0.12508929056E+03 0.  0.
          5    1    3    3  502    0  0.24839657067E+02 -0.45573550257E+02  0.37201987437E+01  0.52204112146E+02  0.41800000000E+01 0.  1.
         -5    1    3    3    0  502 -0.85414268000E+01  0.34421883344E+02 -0.10207736272E+03  0.10814380428E+03  0.41800000000E+01 0.  1.
        -11    1    1    2    0    0 -0.40468414487E+02  0.26839953623E+02  0.48490434862E+01  0.48801525635E+02  0.00000000000E+00 0. -1.
         11    1    1    2    0    0  0.24170184220E+02 -0.15688286710E+02 -0.43884705302E+02  0.52499404801E+02  0.00000000000E+00 0.  1.
</event>
<event>
 7    1  0.3151015E-009  0.1387229E+03  0.7561462E-02  0.1215058E+00
          1   -1    0    0  501    0  0.00000000000E+00  0.00000000000E+00  0.43620281400E+03  0.43620281400E+03  0.00000000000E+00 0.  1.
         -1   -1    0    0    0  501 -0.00000000000E+00 -0.00000000000E+00 -0.64407740797E+02  0.64407740797E+02  0.00000000000E+00 0. -1.
         25    2    1    2    0    0  0.53884721660E+02  0.10320653949E+03  0.27635410323E+03  0.32492336082E+03  0.12509375288E+03 0.  0.
          5    1    3    3  502    0  0.29721755848E+02 -0.19174532619E+02  0.11820838274E+03  0.12345744053E+03  0.41800000000E+01 0. -1.
         -5    1    3    3    0  502  0.24162965812E+02  0.12238107210E+03  0.15814572049E+03  0.20146592028E+03  0.41800000000E+01 0. -1.
        -11    1    1    2    0    0 -0.26997757586E+02 -0.64148388284E+02  0.54100648760E+00  0.69600196279E+02  0.00000000000E+00 0. -1.
         11    1    1    2    0    0 -0.26886964074E+02 -0.39058151201E+02  0.94899963477E+02  0.10608699770E+03  0.00000000000E+00 0.  1.
</event>
<event>
 7    1  0.3151015E-009  0.1291277E+03  0.7561462E-02  0.1228756E+00
          1   -1    0    0  501    0  0.00000000000E+00  0.00000000000E+00  0.25583130894E+03  0.25583130894E+03  0.00000000000E+00 0. -1.
         -1   -1    0    0    0  501 -0.00000000000E+00 -0.00000000000E+00 -0.77806823272E+02  0.77806823272E+02  0.00000000000E+00 0.  1.
         25    2    1    2    0    0  0.15056116642E+02 -0.82566292839E+02  0.61503859796E+02  0.16270454548E+03  0.12508463131E+03 0.  0.
          5    1    3    3  502    0  0.15596890324E+01 -0.10780114312E+03  0.74379467579E+02  0.13104692551E+03  0.41800000000E+01 0. -1.
         -5    1    3    3    0  502  0.13496427610E+02  0.25234850278E+02 -0.12875607783E+02  0.31657619976E+02  0.41800000000E+01 0. -1.
        -11    1    1    2    0    0  0.17916493831E+02 -0.11817997745E+02  0.68463300782E+01  0.22528605315E+02  0.00000000000E+00 0.  1.
         11    1    1    2    0    0 -0.32972610473E+02  0.94384290585E+02  0.10967429579E+03  0.14840498141E+03  0.00000000000E+00 0. -1.
</event>
<event>
 7    1  0.3151015E-009  0.5367130E+02  0.7561462E-02  0.1426489E+00
         -1   -1    0    0    0  501 -0.00000000000E+00  0.00000000000E+00  0.33187722245E+02  0.33187722245E+02  0.00000000000E+00 0.  1.
          1   -1    0    0  501    0  0.00000000000E+00 -0.00000000000E+00 -0.39703317765E+03  0.39703317765E+03  0.00000000000E+00 0. -1.
         25    2    1    2    0    0  0.11901936587E+02 -0.10511711659E+02 -0.26897459292E+03  0.29706415488E+03  0.12509048046E+03 0.  0.
          5    1    3    3  502    0 -0.36163157931E+01  0.20887690916E+00  0.13156761259E+02  0.14272145470E+02  0.41800000000E+01 0. -1.
         -5    1    3    3    0  502  0.15518252380E+02 -0.10720588568E+02 -0.28213135418E+03  0.28279200941E+03  0.41800000000E+01 0. -1.
        -11    1    1    2    0    0 -0.16558456912E+02  0.44866027729E+02 -0.22378381086E+02  0.52800898472E+02  0.00000000000E+00 0.  1.
         11    1    1    2    0    0  0.46565203255E+01 -0.34354316070E+02 -0.72492481402E+02  0.80355846545E+02  0.00000000000E+00 0. -1.
</event>
<event>
 7    1  0.3151015E-009  0.8507657E+02  0.7561462E-02  0.1315232E+00
         -2   -1    0    0    0  501 -0.00000000000E+00  0.00000000000E+00  0.10545740008E+03  0.10545740008E+03  0.00000000000E+00 0.  1.
          2   -1    0    0  501    0  0.00000000000E+00 -0.00000000000E+00 -0.12668647696E+03  0.12668647696E+03  0.00000000000E+00 0. -1.
         25    2    1    2    0    0  0.16298347608E+01  0.17566135482E+01  0.26109465540E+02  0.12781168321E+03  0.12509348553E+03 0.  0.
          5    1    3    3  502    0  0.41186273729E+02 -0.24617219900E+02  0.54139785352E+02  0.72463131435E+02  0.41800000000E+01 0.  1.
         -5    1    3    3    0  502 -0.39556438969E+02  0.26373833449E+02 -0.28030319812E+02  0.55348551774E+02  0.41800000000E+01 0.  1.
        -11    1    1    2    0    0  0.25221558306E+02 -0.27324839631E+02  0.76953915951E+01  0.37973581817E+02  0.00000000000E+00 0.  1.
         11    1    1    2    0    0 -0.26851393066E+02  0.25568226082E+02 -0.55033934018E+02  0.66358612012E+02  0.00000000000E+00 0. -1.
</event>
<event>
 7    1  0.3151015E-009  0.1385827E+03  0.7561462E-02  0.1215249E+00
          1   -1    0    0  501    0  0.00000000000E+00  0.00000000000E+00  0.59809266631E+03  0.59809266631E+03  0.00000000000E+00 0. -1.
         -1   -1    0    0    0  501 -0.00000000000E+00 -0.00000000000E+00 -0.64880751088E+02  0.64880751088E+02  0.00000000000E+00 0.  1.
         25    2    1    2    0    0 -0.56790657907E+02 -0.10712820626E+03  0.46778769601E+03  0.49917353950E+03  0.12508901870E+03 0.  0.
          5    1    3    3  502    0  0.13583743587E+02 -0.75339980919E+02  0.34977802026E+03  0.35808206695E+03  0.41800000000E+01 0.  1.
         -5    1    3    3    0  502 -0.70374401495E+02 -0.31788225340E+02  0.11800967575E+03  0.14109147255E+03  0.41800000000E+01 0.  1.
        -11    1    1    2    0    0  0.22947406087E+02  0.23032838049E+02  0.65527260392E+02  0.73149961922E+02  0.00000000000E+00 0. -1.
         11    1    1    2    0    0  0.33843251820E+02  0.84095368210E+02 -0.10304118377E+00  0.90649915971E+02  0.00000000000E+00 0.  1.
</event>
<event>
 7    1  0.3151015E-009  0.1096866E+03  0.7561462E-02  0.1261151E+00
          1   -1    0    0  501    0  0.00000000000E+00  0.00000000000E+00  0.17811628116E+02  0.17811628116E+02  0.00000000000E+00 0. -1.
         -1   -1    0    0    0  501 -0.00000000000E+00 -0.00000000000E+00 -0.77953095577E+03  0.77953095577E+03  0.00000000000E+00 0.  1.
         25    2    1    2    0    0 -0.44343276257E+02 -0.10694542267E+02 -0.47867098236E+03  0.49684353878E+03  0.12508754254E+03 0.  0.
          5    1    3    3  502    0 -0.16223991550E+02  0.56327110051E+02 -0.17648947316E+03  0.18601604169E+03  0.41800000000E+01 0.  1.
         -5    1    3    3    0  502 -0.28119284707E+02 -0.67021652317E+02 -0.30218150920E+03  0.31082749710E+03  0.41800000000E+01 0.  1.
        -11    1    1    2    0    0  0.28391740348E+02 -0.31672565864E+02 -0.64164093585E+02  0.76982291821E+02  0.00000000000E+00 0. -1.
         11    1    1    2    0    0  0.15951535909E+02  0.42367108131E+02 -0.21888425172E+03  0.22351675328E+03  0.00000000000E+00 0.  1.
</event>
<event>
 7    1  0.3151015E-009  0.1097585E+03  0.7561462E-02  0.1261018E+00
         -1   -1    0    0    0  501 -0.00000000000E+00  0.00000000000E+00  0.26134465376E+02  0.26134465376E+02  0.00000000000E+00 0.  1.
          1   -1    0    0  501    0  0.00000000000E+00 -0.00000000000E+00 -0.51415388540E+03  0.51415388540E+03  0.00000000000E+00 0. -1.
         25    2    1    2    0    0  0.10138053395E+01 -0.22739076219E+02 -0.35318199176E+03  0.37537194841E+03  0.12509391257E+03 0.  0.
          5    1    3    3  502    0  0.44193744022E+02 -0.54924309013E+02 -0.16240294698E+03  0.17709307248E+03  0.41800000000E+01 0. -1.
         -5    1    3    3    0  502 -0.43179938682E+02  0.32185232794E+02 -0.19077904478E+03  0.19827887593E+03  0.41800000000E+01 0. -1.
        -11    1    1    2    0    0  0.39927921775E+02  0.33971994168E+02 -0.77747064929E+02  0.93770685345E+02  0.00000000000E+00 0.  1.
         11    1    1    2    0    0 -0.40941727114E+02 -0.11232917948E+02 -0.57090363338E+02  0.71145717023E+02  0.00000000000E+00 0. -1.
</event>
<event>
 7    1  0.3151015E-009  0.1097541E+03  0.7561462E-02  0.1261026E+00
          4   -1    0    0  501    0  0.00000000000E+00  0.00000000000E+00  0.11783461321E+02  0.11783461321E+02  0.00000000000E+00 0. -1.
         -4   -1    0    0    0  501 -0.00000000000E+00 -0.00000000000E+00 -0.13563458141E+04  0.13563458141E+04  0.00000000000E+00 0.  1.
         25    2    1    2    0    0 -0.50594041754E+02 -0.10489051634E+02 -0.97119837849E+03  0.98058338726E+03  0.12509081390E+03 0.  0.
          5    1    3    3  502    0  0.32033627705E+02 -0.19227790109E+02 -0.54783435738E+03  0.54912277019E+03  0.41800000000E+01 0. -1.
         -5    1    3    3    0  502 -0.82627669459E+02  0.87387384750E+01 -0.42336402112E+03  0.43146061707E+03  0.41800000000E+01 0. -1.
        -11    1    1    2    0    0  0.72842799578E+02  0.18358863612E+02 -0.32704303785E+03  0.33555963692E+03  0.00000000000E+00 0.  1.
         11    1    1    2    0    0 -0.22248757824E+02 -0.78698119781E+01 -0.46320936409E+02  0.51986251213E+02  0.00000000000E+00 0. -1.
</event>
<event>
 7    1  0.3151015E-009  0.9721965E+02  0.7561462E-02  0.1286254E+00
          3   -1    0    0  501    0  0.00000000000E+00  0.00000000000E+00  0.97725471224E+02  0.97725471224E+02  0.00000000000E+00 0. -1.
         -3   -1    0    0    0  501 -0.00000000000E+00 -0.00000000000E+00 -0.14948068131E+03  0.14948068131E+03  0.00000000000E+00 0.  1.
         25    2    1    2    0    0  0.35382974767E+02 -0.30423198103E+02 -0.18357337362E+02  0.13477133713E+03  0.12509514615E+03 0.  0.
          5    1    3    3  502    0  0.82079450640E+02 -0.24150107741E+02 -0.59329006398E+01  0.85865800126E+02  0.41800000000E+01 0.  1.
         -5    1    3    3    0  502 -0.46696475873E+02 -0.62730903619E+01 -0.12424436722E+02  0.48905537003E+02  0.41800000000E+01 0.  1.
        -11    1    1    2    0    0 -0.44021311588E+02  0.21265380296E+02  0.23441449996E+02  0.54218021460E+02  0.00000000000E+00 0. -1.
         11    1    1    2    0    0  0.86383368211E+01  0.91578178071E+01 -0.56839322723E+02  0.58216793949E+02  0.00000000000E+00 0.  1.
</event>
<event>
 7    1  0.3151015E-009  0.1436193E+03  0.7561462E-02  0.1208540E+00
         -2   -1    0    0    0  501 -0.00000000000E+00  0.00000000000E+00  0.77842385479E+02  0.77842385479E+02  0.00000000000E+00 0.  1.
          2   -1    0    0  501    0  0.00000000000E+00 -0.00000000000E+00 -0.34286274221E+03  0.34286274221E+03  0.00000000000E+00 0. -1.
         25    2    1    2    0    0  0.96678076920E+02  0.13322340264E+02 -0.23591780166E+03  0.28430347847E+03  0.12508846239E+03 0.  0.
          5    1    3    3  502    0 -0.29479944295E+02  0.12192950093E+02 -0.41743701724E+02  0.52704308944E+02  0.41800000000E+01 0.  1.
         -5    1    3    3    0  502  0.12615802121E+03  0.11293901716E+01 -0.19417409993E+03  0.23159916952E+03  0.41800000000E+01 0.  1.
        -11    1    1    2    0    0 -0.90543236812E+01  0.29818959087E+02 -0.22641330650E+02  0.38519877362E+02  0.00000000000E+00 0.  1.
         11    1    1    2    0    0 -0.87623753238E+02 -0.43141299351E+02 -0.64612244232E+01  0.97881771860E+02  0.00000000000E+00 0. -1.
</event>
<event>
 7    1  0.3151015E-009  0.2874871E+03  0.7561462E-02  0.1091669E+00
         -1   -1    0    0    0  501 -0.00000000000E+00  0.00000000000E+00  0.14676858143E+03  0.14676858143E+03  0.00000000000E+00 0.  1.
          1   -1    0    0  501    0  0.00000000000E+00 -0.00000000000E+00 -0.69916840309E+03  0.69916840309E+03  0.00000000000E+00 0. -1.
         25    2    1    2    0    0  0.26583753228E+02 -0.27506540957E+03 -0.43845416000E+03  0.53315801120E+03  0.12509092298E+03 0.  0.
          5    1    3    3  502    0  0.33036718631E+02 -0.38278546549E+02 -0.15845377195E+03  0.16637831034E+03  0.41800000000E+01 0. -1.
         -5    1    3    3    0  502 -0.64529654034E+01 -0.23678686303E+03 -0.28000038804E+03  0.36677970087E+03  0.41800000000E+01 0. -1.
        -11    1    1    2    0    0 -0.50762233521E+02  0.11864161010E+03 -0.25766298016E+02  0.13159231783E+03  0.00000000000E+00 0.  1.
         11    1    1    2    0    0  0.24178480293E+02  0.15642379947E+03 -0.88179363651E+02  0.18118665548E+03  0.00000000000E+00 0. -1.
</event>
<event>
 7    1  0.3151015E-009  0.9530116E+02  0.7561462E-02  0.1290499E+00
         -1   -1    0    0    0  501 -0.00000000000E+00  0.00000000000E+00  0.75432989663E+03  0.75432989663E+03  0.00000000000E+00 0.  1.
          1   -1    0    0  501    0  0.00000000000E+00 -0.00000000000E+00 -0.21237996015E+02  0.21237996015E+02  0.00000000000E+00 0. -1.
         25    2    1    2    0    0 -0.20002692007E+02 -0.44217444828E+02  0.54789199853E+03  0.56408198853E+03  0.12509019792E+03 0.  0.
          5    1    3    3  502    0 -0.36420459704E+02  0.11100099651E+02  0.43994389061E+03  0.44160815366E+03  0.41800000000E+01 0.  1.
         -5    1    3    3    0  502  0.16417767697E+02 -0.55317544479E+02  0.10794810793E+03  0.12247383487E+03  0.41800000000E+01 0.  1.
        -11    1    1    2    0    0  0.41250337161E+02  0.56459613681E+02  0.94667456181E+02  0.11769114475E+03  0.00000000000E+00 0. -1.
         11    1    1    2    0    0 -0.21247645154E+02 -0.12242168853E+02  0.90532445906E+02  0.93794759366E+02  0.00000000000E+00 0.  1.
</event>
<event>
 7    1  0.3151015E-009  0.1931472E+03  0.7561462E-02  0.1155653E+00
          2   -1    0    0  501    0  0.00000000000E+00  0.00000000000E+00  0.23288579890E+03  0.23288579890E+03  0.00000000000E+00 0.  1.
         -2   -1    0    0    0  501 -0.00000000000E+00 -0.00000000000E+00 -0.21340930668E+03  0.21340930668E+03  0.00000000000E+00 0. -1.
         25    2    1    2    0    0  0.15441877366E+03  0.11151158532E+03 -0.30734576505E+02  0.22994015819E+03  0.12509144989E+03 0.  0.
          5    1    3    3  502    0  0.13901157781E+03  0.11357819110E+03 -0.65895769848E+02  0.19126931051E+03  0.41800000000E+01 0.  1.
         -5    1    3    3    0  502  0.15407195851E+02 -0.20666057727E+01  0.35161193343E+02  0.38670847686E+02  0.41800000000E+01 0.  1.
        -11    1    1    2    0    0 -0.42545112434E+02 -0.35148894414E+02  0.58788507900E+02  0.80632623867E+02  0.00000000000E+00 0.  1.
         11    1    1    2    0    0 -0.11187366123E+03 -0.76362690910E+02 -0.85774391739E+01  0.13572232352E+03  0.00000000000E+00 0. -1.
</event>
<event>
 7    1  0.3151015E-009  0.9368075E+02  0.7561462E-02  0.1294175E+00
         -2   -1    0    0    0  501 -0.00000000000E+00  0.00000000000E+00  0.16532736314E+03  0.16532736314E+03  0.00000000000E+00 0.  1.
          2   -1    0    0  501    0  0.00000000000E+00 -0.00000000000E+00 -0.91826980959E+02  0.91826980959E+02  0.00000000000E+00 0. -1.
         25    2    1    2    0    0  0.12262220057E+02 -0.16304147091E+02 -0.14356251845E+02  0.12755439440E+03  0.12509130390E+03 0.  0.
          5    1    3    3  502    0  0.96834901554E+01 -0.53901152986E+02 -0.50908481844E+02  0.74888251405E+02  0.41800000000E+01 0.  1.
         -5    1    3    3    0  502  0.25787299019E+01  0.37597005895E+02  0.36552229999E+02  0.52666142996E+02  0.41800000000E+01 0.  1.
        -11    1    1    2    0    0 -0.48127500850E+02  0.29334338605E+02  0.60238800117E+02  0.82495289556E+02  0.00000000000E+00 0.  1.
         11    1    1    2    0    0  0.35865280792E+02 -0.13030191514E+02  0.27617833906E+02  0.47104660140E+02  0.00000000000E+00 0. -1.
</event>
<event>
 7    1  0.3997578E-009  0.1267563E+03  0.7561462E-02  0.1232350E+00
         -2   -1    0    0    0  501 -0.00000000000E+00  0.00000000000E+00  0.29387707107E+02  0.29387707107E+02  0.00000000000E+00 0.  1.
          2   -1    0    0  501    0  0.00000000000E+00 -0.00000000000E+00 -0.84806354113E+03  0.84806354113E+03  0.00000000000E+00 0. -1.
         25    2    1    2    0    0 -0.11073637945E+03  0.16590631276E+02 -0.37105294006E+03  0.40726586664E+03  0.12508959598E+03 0.  0.
          5    1    3    3  502    0 -0.72467774860E+02  0.27523264057E+02 -0.35622939636E+03  0.36459013109E+03  0.41800000000E+01 0. -1.
         -5    1    3    3    0  502 -0.38268604590E+02 -0.10932632780E+02 -0.14823543697E+02  0.42675735548E+02  0.41800000000E+01 0. -1.
        -11    1    1    2    0    0  0.39698462916E+02  0.30990514751E+02 -0.97079900327E+02  0.10936584023E+03  0.00000000000E+00 0.  1.
         11    1    1    2    0    0  0.71037916535E+02 -0.47581146027E+02 -0.35054299364E+03  0.36081954136E+03  0.00000000000E+00 0. -1.
</event>
<event>
 7    1  0.3151015E-009  0.1171442E+03  0.7561462E-02  0.1247884E+00
          2   -1    0    0  501    0  0.00000000000E+00  0.00000000000E+00  0.42431686032E+03  0.42431686032E+03  0.00000000000E+00 0. -1.
         -2   -1    0    0    0  501 -0.00000000000E+00 -0.00000000000E+00 -0.50108938513E+02  0.50108938513E+02  0.00000000000E+00 0.  1.
         25    2    1    2    0    0 -0.86743406701E+02  0.25016129290E+02  0.26856621555E+03  0.30972052743E+03  0.12509503446E+03 0.  0.
          5    1    3    3  502    0 -0.84499399392E+02 -0.15122003108E+01  0.71383137192E+02  0.11070438077E+03  0.41800000000E+01 0. -1.
         -5    1    3    3    0  502 -0.22440073098E+01  0.26528329601E+02  0.19718307835E+03  0.19901614665E+03  0.41800000000E+01 0. -1.
        -11    1    1    2    0    0  0.10315074328E+03 -0.17298331547E+02  0.73608826857E+02  0.12789670639E+03  0.00000000000E+00 0.  1.
         11    1    1    2    0    0 -0.16407336580E+02 -0.77177977437E+01  0.32032879410E+02  0.36808565021E+02  0.00000000000E+00 0. -1.
</event>
<event>
 7    1  0.3151015E-009  0.1549149E+03  0.7561462E-02  0.1194560E+00
          1   -1    0    0  501    0  0.00000000000E+00  0.00000000000E+00  0.10716847860E+03  0.10716847860E+03  0.00000000000E+00 0. -1.
         -1   -1    0    0    0  501 -0.00000000000E+00 -0.00000000000E+00 -0.32277897048E+03  0.32277897048E+03  0.00000000000E+00 0.  1.
         25    2    1    2    0    0 -0.96047813819E+02  0.99465986149E+02 -0.17900789747E+03  0.25847679099E+03  0.12509100362E+03 0.  0.
          5    1    3    3  502    0 -0.49819077913E+02  0.28263364284E+02 -0.16188861065E+03  0.17177355135E+03  0.41800000000E+01 0.  1.
         -5    1    3    3    0  502 -0.46228735906E+02  0.71202621865E+02 -0.17119286815E+02  0.86703239645E+02  0.41800000000E+01 0.  1.
        -11    1    1    2    0    0  0.45093742099E+02  0.10416737834E+02 -0.12975397163E+02  0.48065735562E+02  0.00000000000E+00 0.  1.
         11    1    1    2    0    0  0.50954071720E+02 -0.10988272398E+03 -0.23627197251E+02  0.12340492253E+03  0.00000000000E+00 0. -1.
</event>
<event>
 7    1  0.3151015E-009  0.1568106E+03  0.7561462E-02  0.1192345E+00
         -1   -1    0    0    0  501 -0.00000000000E+00  0.00000000000E+00  0.47281534372E+02  0.47281534372E+02  0.00000000000E+00 0.  1.
          1   -1    0    0  501    0  0.00000000000E+00 -0.00000000000E+00 -0.55366963585E+03  0.55366963585E+03  0.00000000000E+00 0. -1.
         25    2    1    2    0    0  0.26040900018E+01 -0.11991155378E+03 -0.26320519263E+03  0.31513429442E+03  0.12508832112E+03 0.  0.
          5    1    3    3  502    0 -0.97689530508E+01  0.21466365552E+02 -0.12501024183E+02  0.27018240123E+02  0.41800000000E+01 0.  1.
         -5    1    3    3    0  502  0.12373043053E+02 -0.14137791934E+03 -0.25070416844E+03  0.28811605430E+03  0.41800000000E+01 0.  1.
        -11    1    1    2    0    0  0.22754630091E+02 -0.23035436594E+01 -0.59441599765E+02  0.63689742397E+02  0.00000000000E+00 0.  1.
         11    1    1    2    0    0 -0.25358720093E+02  0.12221509744E+03 -0.18374130908E+03  0.22212713340E+03  0.00000000000E+00 0. -1.
</event>
<event>
 7    1  0.3151015E-009  0.1251712E+03  0.7561462E-02  0.1234802E+00
         -2   -1    0    0    0  501 -0.00000000000E+00  0.00000000000E+00  0.26684565719E+03  0.26684565719E+03  0.00000000000E+00 0.  1.
          2   -1    0    0  501    0  0.00000000000E+00 -0.00000000000E+00 -0.72919654504E+02  0.72919654504E+02  0.00000000000E+00 0. -1.
         25    2    1    2    0    0  0.69067443986E+02  0.18293667365E+02  0.47079673188E+02  0.15155672373E+03  0.12509186543E+03 0.  0.
          5    1    3    3  502    0  0.57328577108E+02 -0.44715109555E+02  0.15755705167E+01  0.72842031810E+02  0.41800000000E+01 0.  1.
         -5    1    3    3    0  502  0.11738866877E+02  0.63008776920E+02  0.45504102672E+02  0.78714691923E+02  0.41800000000E+01 0.  1.
        -11    1    1    2    0    0 -0.69763823277E+02  0.21875442793E+02  0.11775568257E+03  0.13860709510E+03  0.00000000000E+00 0.  1.
         11    1    1    2    0    0  0.69637929068E+00 -0.40169110158E+02  0.29090646929E+02  0.49601492859E+02  0.00000000000E+00 0. -1.
</event>
<event>
 7    1  0.3151015E-009  0.9721944E+02  0.7561462E-02  0.1286254E+00
          3   -1    0    0  501    0  0.00000000000E+00  0.00000000000E+00  0.18164028124E+02  0.18164028124E+02  0.00000000000E+00 0. -1.
         -3   -1    0    0    0  501 -0.00000000000E+00 -0.00000000000E+00 -0.82171929970E+03  0.82171929970E+03  0.00000000000E+00 0.  1.
         25    2    1    2    0    0 -0.43648478763E+02 -0.17376123837E+02 -0.54767929286E+03  0.56374428625E+03  0.12509153877E+03 0.  0.
          5    1    3    3  502    0 -0.32279137366E+02 -0.48531064674E+02 -0.51015401223E+03  0.51348982029E+03  0.41800000000E+01 0.  1.
         -5    1    3    3    0  502 -0.11369341397E+02  0.31154940837E+02 -0.37525280629E+02  0.50254465957E+02  0.41800000000E+01 0.  1.
        -11    1    1    2    0    0  0.67919668657E+02 -0.68742823842E+01 -0.14907910977E+03  0.16396621029E+03  0.00000000000E+00 0. -1.
         11    1    1    2    0    0 -0.24271189894E+02  0.24250406222E+02 -0.10679686895E+03  0.11217283128E+03  0.00000000000E+00 0.  1.
</event>
<event>
 7    1  0.3151015E-009  0.9590007E+02  0.7561462E-02  0.1289162E+00
          2   -1    0    0  501    0  0.00000000000E+00  0.00000000000E+00  0.91678631493E+02  0.91678631493E+02  0.00000000000E+00 0. -1.
         -2   -1    0    0    0  501 -0.00000000000E+00 -0.00000000000E+00 -0.18237643776E+03  0.18237643776E+03  0.00000000000E+00 0.  1.
         25    2    1    2    0    0 -0.45886788967E+02 -0.24105912860E+02 -0.10702801059E+03  0.17259638312E+03  0.12509126260E+03 0.  0.
          5    1    3    3  502    0 -0.35995516909E+02 -0.73484776551E+02 -0.48262262720E+02  0.95091577046E+02  0.41800000000E+01 0. -1.
         -5    1    3    3    0  502 -0.98912720576E+01  0.49378863690E+02 -0.58765747866E+02  0.77504806073E+02  0.41800000000E+01 0. -1.
        -11    1    1    2    0    0  0.32103061658E+02  0.62917068175E+00 -0.32415237196E+02  0.45626198899E+02  0.00000000000E+00 0.  1.
         11    1    1    2    0    0  0.13783727309E+02  0.23476742179E+02  0.48745441516E+02  0.55832487231E+02  0.00000000000E+00 0. -1.
</event>
<event>
 7    1  0.3151015E-009  0.9349562E+02  0.7561462E-02  0.1294601E+00
         -1   -1    0    0    0  501 -0.00000000000E+00  0.00000000000E+00  0.11137839717E+03  0.11137839717E+03  0.00000000000E+00 0.  1.
          1   -1    0    0  501    0  0.00000000000E+00 -0.00000000000E+00 -0.16197089135E+03  0.16197089135E+03  0.00000000000E+00 0. -1.
         25    2    1    2    0    0  0.46658463560E+02 -0.18982663094E+02 -0.91006999144E+02  0.16268584439E+03  0.12508819429E+03 0.  0.
          5    1    3    3  502    0  0.62375439092E+02  0.38010873664E+02 -0.34858533432E+02  0.81043887318E+02  0.41800000000E+01 0. -1.
         -5    1    3    3    0  502 -0.15716975532E+02 -0.56993536759E+02 -0.56148465713E+02  0.81641957069E+02  0.41800000000E+01 0. -1.
        -11    1    1    2    0    0 -0.21538804988E+02  0.20035714081E+02  0.67546147332E+02  0.73673821528E+02  0.00000000000E+00 0.  1.
         11    1    1    2    0    0 -0.25119658572E+02 -0.10530509871E+01 -0.27131642369E+02  0.36989622609E+02  0.00000000000E+00 0. -1.
</event>
<event>
 7    1  0.3151015E-009  0.7852435E+02  0.7561462E-02  0.1333292E+00
          1   -1    0    0  501    0  0.00000000000E+00  0.00000000000E+00  0.97396460035E+02  0.97396460035E+02  0.00000000000E+00 0. -1.
         -1   -1    0    0    0  501 -0.00000000000E+00 -0.00000000000E+00 -0.12321640860E+03  0.12321640860E+03  0.00000000000E+00 0.  1.
         25    2    1    2    0    0 -0.47922919816E+01  0.17410788581E+02 -0.18948076002E+02  0.12779855071E+03  0.12508932152E+03 0.  0.
          5    1    3    3  502    0  0.36179174359E+02  0.12576578479E+02  0.40121876259E+02  0.55626795145E+02  0.41800000000E+01 0.  1.
         -5    1    3    3    0  502 -0.40971466341E+02  0.48342101024E+01 -0.59069952261E+02  0.72171755566E+02  0.41800000000E+01 0.  1.
        -11    1    1    2    0    0  0.29994187894E+02  0.16940169264E+02 -0.28797732460E+02  0.44899109534E+02  0.00000000000E+00 0.  1.
         11    1    1    2    0    0 -0.25201895912E+02 -0.34350957845E+02  0.21925859899E+02  0.47915208387E+02  0.00000000000E+00 0. -1.
</event>
<event>
 6    1  0.3151015E-009  0.1186963E+03  0.7561462E-02  0.1245263E+00
          1   -1    0    0  501    0  0.00000000000E+00  0.00000000000E+00  0.15263643769E+03  0.15263643769E+03  0.00000000000E+00 0. -1.
         -1   -1    0    0    0  501 -0.00000000000E+00 -0.00000000000E+00 -0.16167762277E+03  0.16167762277E+03  0.00000000000E+00 0.  1.
          5    1    1    2  502    0  0.45707816956E+02  0.17002839619E+02 -0.31074547547E+02  0.57977590423E+02  0.41800000000E+01 0. -1.
         -5    1    1    2    0  502  0.43386260247E+02 -0.70057637459E+02  0.72033605108E+02  0.10952968917E+03  0.41800000000E+01 0. -1.
        -11    1    1    2    0    0 -0.29751330434E+02  0.63577495454E+01  0.25742614209E+02  0.39852789466E+02  0.00000000000E+00 0. -1.
         11    1    1    2    0    0 -0.59342746769E+02  0.46697048295E+02 -0.75742856849E+02  0.10695399140E+03  0.00000000000E+00 0.  1.
</event>
<event>
 7    1  0.3151015E-009  0.1066222E+03  0.7561462E-02  0.1266956E+00
         -2   -1    0    0    0  501 -0.00000000000E+00  0.00000000000E+00  0.28477316380E+02  0.28477316380E+02  0.00000000000E+00 0.  1.
          2   -1    0    0  501    0  0.00000000000E+00 -0.00000000000E+00 -0.42417342519E+03  0.42417342519E+03  0.00000000000E+00 0. -1.
         25    2    1    2    0    0 -0.79920048057E+01 -0.13838180434E+01 -0.27625729672E+03  0.30336818950E+03  0.12509347431E+03 0.  0.
          5    1    3    3  502    0  0.22987833890E+02  0.54995052243E+02 -0.15336135941E+03  0.16459062926E+03  0.41800000000E+01 0.  1.
         -5    1    3    3    0  502 -0.30979838696E+02 -0.56378870286E+02 -0.12289593731E+03  0.13877756024E+03  0.41800000000E+01 0.  1.
        -11    1    1    2    0    0 -0.38557216849E+02 -0.12361132100E+02 -0.62432293551E+02  0.74412685988E+02  0.00000000000E+00 0. -1.
         11    1    1    2    0    0  0.46549221655E+02  0.13744950143E+02 -0.57006518532E+02  0.74869866076E+02  0.00000000000E+00 0.  1.
</event>
<event>
 7    1  0.3151015E-009  0.1518376E+03  0.7561462E-02  0.1198233E+00
          1   -1    0    0  501    0  0.00000000000E+00  0.00000000000E+00  0.12385336051E+03  0.12385336051E+03  0.00000000000E+00 0. -1.
         -1   -1    0    0    0  501 -0.00000000000E+00 -0.00000000000E+00 -0.22913147970E+03  0.22913147970E+03  0.00000000000E+00 0.  1.
         25    2    1    2    0    0  0.42291187677E+02 -0.12071850162E+03 -0.47020166493E+02  0.18498810558E+03  0.12509277342E+03 0.  0.
          5    1    3    3  502    0  0.65340726071E+02 -0.40397717458E+02  0.18017836719E+02  0.79015826892E+02  0.41800000000E+01 0.  1.
         -5    1    3    3    0  502 -0.23049538395E+02 -0.80320784166E+02 -0.65038003212E+02  0.10597227869E+03  0.41800000000E+01 0.  1.
        -11    1    1    2    0    0 -0.48942741798E+02  0.43231588006E+02 -0.62119882755E+02  0.90129029784E+02  0.00000000000E+00 0.  1.
         11    1    1    2    0    0  0.66515541213E+01  0.77486913618E+02  0.38619300553E+01  0.77867704846E+02  0.00000000000E+00 0. -1.
</event>
<event>
 7    1  0.3151015E-009  0.1217935E+03  0.7561462E-02  0.1240167E+00
          2   -1    0    0  501    0  0.00000000000E+00  0.00000000000E+00  0.28925519581E+03  0.28925519581E+03  0.00000000000E+00 0. -1.
         -2   -1    0    0    0  501 -0.00000000000E+00 -0.00000000000E+00 -0.67724130376E+02  0.67724130376E+02  0.00000000000E+00 0.  1.
         25    2    1    2    0    0  0.68944741249E+02  0.56237106758E+02  0.12138700202E+03  0.19569872312E+03  0.12508875429E+03 0.  0.
          5    1    3    3  502    0  0.80326679530E+02  0.64101489216E+02  0.35808809844E+02  0.10890876744E+03  0.41800000000E+01 0. -1.
         -5    1    3    3    0  502 -0.11381938280E+02 -0.78643824577E+01  0.85578192177E+02  0.86789955679E+02  0.41800000000E+01 0. -1.
        -11    1    1    2    0    0 -0.83265793849E+02 -0.68192120957E+02  0.87977695529E+02  0.13900875043E+03  0.00000000000E+00 0. -1.
         11    1    1    2    0    0  0.14321052600E+02  0.11955014199E+02  0.12166367885E+02  0.22271852630E+02  0.00000000000E+00 0.  1.
</event>
<event>
 7    1  0.3151015E-009  0.2914962E+03  0.7561462E-02  0.1089571E+00
         -2   -1    0    0    0  501 -0.00000000000E+00  0.00000000000E+00  0.49360563662E+02  0.49360563662E+02  0.00000000000E+00 0.  1.
          2   -1    0    0  501    0  0.00000000000E+00 -0.00000000000E+00 -0.19330612790E+04  0.19330612790E+04  0.00000000000E+00 0. -1.
         25    2    1    2    0    0  0.24755912697E+03 -0.11827809994E+03 -0.12808947722E+04  0.13159081396E+04  0.12509030393E+03 0.  0.
          5    1    3    3  502    0  0.48401653490E+01 -0.45466800758E+02 -0.26016089016E+03  0.26418141180E+03  0.41800000000E+01 0.  1.
         -5    1    3    3    0  502  0.24271896162E+03 -0.72811299186E+02 -0.10207338821E+04  0.10517267278E+04  0.41800000000E+01 0.  1.
        -11    1    1    2    0    0 -0.16135726866E+03  0.11355188611E+03 -0.39675460746E+03  0.44310768164E+03  0.00000000000E+00 0.  1.
         11    1    1    2    0    0 -0.86201858309E+02  0.47262138337E+01 -0.20605133566E+03  0.22340602140E+03  0.00000000000E+00 0. -1.
</event>
<event>
 7    1  0.3151015E-009  0.1605212E+03  0.7561462E-02  0.1188110E+00
          1   -1    0    0  501    0  0.00000000000E+00  0.00000000000E+00  0.11521918917E+03  0.11521918917E+03  0.00000000000E+00 0. -1.
         -1   -1    0    0    0  501 -0.00000000000E+00 -0.00000000000E+00 -0.27106023073E+03  0.27106023073E+03  0.00000000000E+00 0.  1.
         25    2    1    2    0    0 -0.13437241497E+03 -0.19715007862E+02 -0.49165106027E+02  0.19107393266E+03  0.12508961848E+03 0.  0.
          5    1    3    3  502    0 -0.97358007872E+02 -0.64004170206E+02 -0.23057330167E+01  0.11661005233E+03  0.41800000000E+01 0. -1.
         -5    1    3    3    0  502 -0.37014407102E+02  0.44289162344E+02 -0.46859373010E+02  0.74463880326E+02  0.41800000000E+01 0. -1.
        -11    1    1    2    0    0  0.44903317909E+02  0.33548475998E+02 -0.85490718285E+02  0.10222754577E+03  0.00000000000E+00 0.  1.
         11    1    1    2    0    0  0.89469097064E+02 -0.13833468136E+02 -0.21185217244E+02  0.92977941469E+02  0.00000000000E+00 0. -1.
</event>
<event>
 7    1  0.3151015E-009  0.1166968E+03  0.7561462E-02  0.1248648E+00
          1   -1    0    0  501    0  0.00000000000E+00  0.00000000000E+00  0.29677533591E+02  0.29677533591E+02  0.00000000000E+00 0. -1.
         -1   -1    0    0    0  501 -0.00000000000E+00 -0.00000000000E+00 -0.77489039467E+03  0.77489039467E+03  0.00000000000E+00 0.  1.
         25    2    1    2    0    0 -0.95909832937E+02 -0.14424681105E+02 -0.50973837352E+03  0.53375164928E+03  0.12510334204E+03 0.  0.
          5    1    3    3  502    0 -0.59843607978E+02  0.32557721884E+02 -0.10877881664E+03  0.12841949237E+03  0.41800000000E+01 0. -1.
         -5    1    3    3    0  502 -0.36066224959E+02 -0.46982402989E+02 -0.40095955688E+03  0.40533215691E+03  0.41800000000E+01 0. -1.
        -11    1    1    2    0    0  0.79702671691E+02 -0.57191337372E+01 -0.23118922180E+03  0.24460924072E+03  0.00000000000E+00 0.  1.
         11    1    1    2    0    0  0.16207161246E+02  0.20143814842E+02 -0.42852657526E+01  0.26207038265E+02  0.00000000000E+00 0. -1.
</event>
<event>
 7    1  0.3151015E-009  0.8997682E+02  0.7561462E-02  0.1302908E+00
          2   -1    0    0  501    0  0.00000000000E+00  0.00000000000E+00  0.58110900279E+03  0.58110900279E+03  0.00000000000E+00 0. -1.
         -2   -1    0    0    0  501 -0.00000000000E+00 -0.00000000000E+00 -0.29805681098E+02  0.29805681098E+02  0.00000000000E+00 0.  1.
         25    2    1    2    0    0 -0.53123309103E+02  0.55301227569E+01  0.18841480748E+03  0.23237350915E+03  0.12507853472E+03 0.  0.
          5    1    3    3  502    0 -0.45944682672E+02  0.26225334586E+02  0.20022564667E+03  0.20713875549E+03  0.41800000000E+01 0.  1.
         -5    1    3    3    0  502 -0.71786264317E+01 -0.20695211829E+02 -0.11810839190E+02  0.25234753664E+02  0.41800000000E+01 0.  1.
        -11    1    1    2    0    0  0.75416664404E+02  0.11819293663E+02  0.30068294407E+03  0.31022185904E+03  0.00000000000E+00 0. -1.
         11    1    1    2    0    0 -0.22293355301E+02 -0.17349416420E+02  0.62205570139E+02  0.68319315694E+02  0.00000000000E+00 0.  1.
</event>
<event>
 7    1  0.3151015E-009  0.8514576E+02  0.7561462E-02  0.1315052E+00
          3   -1    0    0  501    0  0.00000000000E+00  0.00000000000E+00  0.87787629141E+02  0.87787629141E+02  0.00000000000E+00 0. -1.
         -3   -1    0    0    0  501 -0.00000000000E+00 -0.00000000000E+00 -0.20825187360E+03  0.20825187360E+03  0.00000000000E+00 0.  1.
         25    2    1    2    0    0  0.34515202563E+01  0.37709841222E+01  0.20114512855E+02  0.12679908030E+03  0.12508908755E+03 0.  0.
          5    1    3    3  502    0  0.46888834139E+02  0.13441993397E+02  0.52362298022E+02  0.71683558837E+02  0.41800000000E+01 0. -1.
         -5    1    3    3    0  502 -0.43437313883E+02 -0.96710092749E+01 -0.32247785168E+02  0.55115521461E+02  0.41800000000E+01 0. -1.
        -11    1    1    2    0    0  0.27791912839E+02  0.22546955980E+02 -0.11638460690E+03  0.12176260660E+03  0.00000000000E+00 0.  1.
         11    1    1    2    0    0 -0.31243433095E+02 -0.26317940102E+02 -0.24194150417E+02  0.47477815843E+02  0.00000000000E+00 0. -1.
</event>
<event>
 7    1  0.3151015E-009  0.1018132E+03  0.7561462E-02  0.1276529E+00
          2   -1    0    0  501    0  0.00000000000E+00  0.00000000000E+00  0.14545916095E+03  0.14545916095E+03  0.00000000000E+00 0. -1.
         -2   -1    0    0    0  501 -0.00000000000E+00 -0.00000000000E+00 -0.10210278104E+03  0.10210278104E+03  0.00000000000E+00 0.  1.
         25    2    1    2    0    0  0.19756303736E+02 -0.50977075824E+02  0.36961813415E+02  0.14142817061E+03  0.12508708164E+03 0.  0.
          5    1    3    3  502    0 -0.11875318601E+01  0.33837480994E+02  0.41652428144E+02  0.53840342888E+02  0.41800000000E+01 0.  1.
         -5    1    3    3    0  502  0.20943835596E+02 -0.84814556819E+02 -0.46906147294E+01  0.87587827718E+02  0.41800000000E+01 0.  1.
        -11    1    1    2    0    0 -0.40628558365E+02  0.21604640237E+02 -0.29990245746E+02  0.54925905313E+02  0.00000000000E+00 0.  1.
         11    1    1    2    0    0  0.20872254629E+02  0.29372435587E+02  0.36384812239E+02  0.51207866068E+02  0.00000000000E+00 0. -1.
</event>
<event>
 7    1  0.3151015E-009  0.9980102E+02  0.7561462E-02  0.1280715E+00
          1   -1    0    0  501    0  0.00000000000E+00  0.00000000000E+00  0.65452170905E+03  0.65452170905E+03  0.00000000000E+00 0. -1.
         -1   -1    0    0    0  501 -0.00000000000E+00 -0.00000000000E+00 -0.22062508649E+02  0.22062508649E+02  0.00000000000E+00 0.  1.
         25    2    1    2    0    0  0.46045719644E+02 -0.68838320612E+01  0.41616935429E+03  0.43705007091E+03  0.12509291584E+03 0.  0.
          5    1    3    3  502    0  0.55699612454E+02 -0.43888411204E+02  0.37090318664E+03  0.37764439057E+03  0.41800000000E+01 0. -1.
         -5    1    3    3    0  502 -0.96538928098E+01  0.37004579143E+02  0.45266167649E+02  0.59405680347E+02  0.41800000000E+01 0. -1.
        -11    1    1    2    0    0 -0.33970039922E+02 -0.33641377010E+02  0.55384837251E+02  0.73165470386E+02  0.00000000000E+00 0.  1.
         11    1    1    2    0    0 -0.12075679722E+02  0.40525209071E+02  0.16090500886E+03  0.16636867640E+03  0.00000000000E+00 0. -1.
</event>
<event>
 6    1  0.3151015E-009  0.2258181E+03  0.7561462E-02  0.1129618E+00
         -1   -1    0    0    0  501 -0.00000000000E+00  0.00000000000E+00  0.68784335758E+02  0.68784335758E+02  0.00000000000E+00 0.  1.
          1   -1    0    0  501    0  0.00000000000E+00 -0.00000000000E+00 -0.76895948696E+03  0.76895948696E+03  0.00000000000E+00 0. -1.
          5    1    1    2  502    0 -0.14385993431E+02  0.76536665499E+01 -0.86001350886E+01  0.18893653490E+02  0.41800000000E+01 0. -1.
         -5    1    1    2    0  502  0.21257226231E+03  0.31577435525E+02 -0.38319798472E+03  0.43936575769E+03  0.41800000000E+01 0. -1.
        -11    1    1    2    0    0 -0.19399596307E+03 -0.56533324751E+02 -0.29323099740E+03  0.35611075290E+03  0.00000000000E+00 0. -1.
         11    1    1    2    0    0 -0.41903058058E+01  0.17302222676E+02 -0.15146033992E+02  0.23373658635E+02  0.00000000000E+00 0.  1.
</event>
<event>
 7    1  0.3151015E-009  0.1058116E+03  0.7561462E-02  0.1268529E+00
          2   -1    0    0  501    0  0.00000000000E+00  0.00000000000E+00  0.92614392001E+02  0.92614392001E+02  0.00000000000E+00 0. -1.
         -2   -1    0    0    0  501 -0.00000000000E+00 -0.00000000000E+00 -0.14542609114E+03  0.14542609114E+03  0.00000000000E+00 0.  1.
         25    2    1    2    0    0 -0.27450225918E+02 -0.96303941875E+01  0.46367913640E+01  0.12852176663E+03  0.12510030083E+03 0.  0.
          5    1    3    3  502    0  0.16782332975E+02  0.50640977946E+02  0.36612997071E+01  0.53637979669E+02  0.41800000000E+01 0. -1.
         -5    1    3    3    0  502 -0.44232558893E+02 -0.60271372134E+02  0.97549165684E+00  0.74883786957E+02  0.41800000000E+01 0. -1.
        -11    1    1    2    0    0  0.27143393230E+02 -0.31795618864E+02 -0.53510135203E+02  0.67904784400E+02  0.00000000000E+00 0.  1.
         11    1    1    2    0    0  0.30683268803E+00  0.41426013052E+02 -0.39383553017E+01  0.41613932116E+02  0.00000000000E+00 0. -1.
</event>
<event>
 7    1  0.3151015E-009  0.2254651E+03  0.7561462E-02  0.1129873E+00
          2   -1    0    0  501    0  0.00000000000E+00  0.00000000000E+00  0.18134874764E+04  0.18134874764E+04  0.00000000000E+00 0. -1.
         -2   -1    0    0    0  501 -0.00000000000E+00 -0.00000000000E+00 -0.30440229268E+02  0.30440229268E+02  0.00000000000E+00 0.  1.
         25    2    1    2    0    0 -0.17057246872E+03 -0.10871739149E+03  0.72647982712E+03  0.76441799957E+03  0.12508996983E+03 0.  0.
          5    1    3    3  502    0 -0.78679114803E+02  0.11885022579E+02  0.34062983898E+03  0.34982540855E+03  0.41800000000E+01 0. -1.
         -5    1    3    3    0  502 -0.91893353920E+02 -0.12060241407E+03  0.38584998815E+03  0.41459259102E+03  0.41800000000E+01 0. -1.
        -11    1    1    2    0    0  0.70294003059E+02  0.95265245372E+02  0.50045066639E+03  0.51426411826E+03  0.00000000000E+00 0. -1.
         11    1    1    2    0    0  0.10027846566E+03  0.13452146119E+02  0.55611675361E+03  0.56524558783E+03  0.00000000000E+00 0.  1.
</event>
<event>
 7    1  0.3151015E-009  0.1582102E+03  0.7561462E-02  0.1190732E+00
         -1   -1    0    0    0  501 -0.00000000000E+00  0.00000000000E+00  0.73422026786E+02  0.73422026786E+02  0.00000000000E+00 0.  1.
          1   -1    0    0  501    0  0.00000000000E+00 -0.00000000000E+00 -0.35646889016E+03  0.35646889016E+03  0.00000000000E+00 0. -1.
         25    2    1    2    0    0 -0.11706561322E+03 -0.17825396206E+01 -0.18376006416E+03  0.25124285362E+03  0.12509066738E+03 0.  0.
          5    1    3    3  502    0  0.19143090133E+02  0.22464910692E+02 -0.53128229215E+02  0.60919711521E+02  0.41800000000E+01 0. -1.
         -5    1    3    3    0  502 -0.13620870335E+03 -0.24247450313E+02 -0.13063183495E+03  0.19032314210E+03  0.41800000000E+01 0. -1.
        -11    1    1    2    0    0  0.22393610108E+02  0.40209156416E+02 -0.36333057041E+02  0.58637369205E+02  0.00000000000E+00 0. -1.
         11    1    1    2    0    0  0.94672003110E+02 -0.38426616796E+02 -0.62953742167E+02  0.12001069412E+03  0.00000000000E+00 0.  1.
</event>
<event>
 7    1  0.3151015E-009  0.7900348E+02  0.7561462E-02  0.1331903E+00
         -1   -1    0    0    0  501 -0.00000000000E+00  0.00000000000E+00  0.58862712881E+02  0.58862712881E+02  0.00000000000E+00 0.  1.
          1   -1    0    0  501    0  0.00000000000E+00 -0.00000000000E+00 -0.34934852885E+03  0.34934852885E+03  0.00000000000E+00 0. -1.
         25    2    1    2    0    0 -0.44014410950E+02  0.16223814691E+01 -0.26880117368E+03  0.29973492082E+03  0.12508817406E+03 0.  0.
          5    1    3    3  502    0 -0.47409074732E+02  0.99606270952E+01 -0.23098187555E+02  0.53831525405E+02  0.41800000000E+01 0. -1.
         -5    1    3    3    0  502  0.33946637821E+01 -0.83382456261E+01 -0.24570298613E+03  0.24590339541E+03  0.41800000000E+01 0. -1.
        -11    1    1    2    0    0  0.62341644960E+02 -0.27178577633E+02  0.36296555442E+01  0.68105287444E+02  0.00000000000E+00 0.  1.
         11    1    1    2    0    0 -0.18327234010E+02  0.25556196164E+02 -0.25314297830E+02  0.40371033470E+02  0.00000000000E+00 0. -1.
</event>
<event>
 7    1  0.3151015E-009  0.1055220E+03  0.7561462E-02  0.1269094E+00
          2   -1    0    0  501    0  0.00000000000E+00  0.00000000000E+00  0.46751847399E+03  0.46751847399E+03  0.00000000000E+00 0. -1.
         -2   -1    0    0    0  501 -0.00000000000E+00 -0.00000000000E+00 -0.25858416004E+02  0.25858416004E+02  0.00000000000E+00 0.  1.
         25    2    1    2    0    0  0.88941080057E+01 -0.89588727738E+01  0.30727845689E+03  0.33200472495E+03  0.12509085003E+03 0.  0.
          5    1    3    3  502    0 -0.57202404032E+02 -0.10703037315E+02  0.12190477984E+03  0.13514776277E+03  0.41800000000E+01 0.  1.
         -5    1    3    3    0  502  0.66096512038E+02  0.17441645414E+01  0.18537367705E+03  0.19685696218E+03  0.41800000000E+01 0.  1.
        -11    1    1    2    0    0  0.32944405061E+02  0.25292585343E+02  0.44363665713E+02  0.60771568465E+02  0.00000000000E+00 0.  1.
         11    1    1    2    0    0 -0.41838513067E+02 -0.16333712569E+02  0.90017935386E+02  0.10060059658E+03  0.00000000000E+00 0. -1.
</event>
<event>
 7    1  0.4789403E-009  0.7024517E+02  0.7561462E-02  0.1359261E+00
         -2   -1    0    0    0  501 -0.00000000000E+00  0.00000000000E+00  0.41669672100E+02  0.41669672100E+02  0.00000000000E+00 0.  1.
          2   -1    0    0  501    0  0.00000000000E+00 -0.00000000000E+00 -0.33980901383E+03  0.33980901383E+03  0.00000000000E+00 0. -1.
         25    2    1    2    0    0  0.23837771168E+02  0.40825272226E+02 -0.19243498400E+03  0.23433660897E+03  0.12508989187E+03 0.  0.
          5    1    3    3  502    0  0.53534549110E+02  0.26647307947E+02 -0.19202250889E+03  0.20116198272E+03  0.41800000000E+01 0.  1.
         -5    1    3    3    0  502 -0.29696777942E+02  0.14177964279E+02 -0.41247511093E+00  0.33174626252E+02  0.41800000000E+01 0.  1.
        -11    1    1    2    0    0 -0.11440558585E+02 -0.16617611661E+02  0.13890003458E+02  0.24494154285E+02  0.00000000000E+00 0.  1.
         11    1    1    2    0    0 -0.12397212583E+02 -0.24207660565E+02 -0.11959436118E+03  0.12264792267E+03  0.00000000000E+00 0. -1.
</event>
<event>
 7    1  0.3151015E-009  0.1092052E+03  0.7561462E-02  0.1262049E+00
          1   -1    0    0  501    0  0.00000000000E+00  0.00000000000E+00  0.14009996282E+03  0.14009996282E+03  0.00000000000E+00 0. -1.
         -1   -1    0    0    0  501 -0.00000000000E+00 -0.00000000000E+00 -0.12470129371E+03  0.12470129371E+03  0.00000000000E+00 0.  1.
         25    2    1    2    0    0 -0.21331584418E+01 -0.37107848796E+02 -0.61328559309E+02  0.14418865463E+03  0.12509049976E+03 0.  0.
          5    1    3    3  502    0  0.55578204947E+02  0.82822823416E+01 -0.33529402416E+02  0.65568485511E+02  0.41800000000E+01 0. -1.
         -5    1    3    3    0  502 -0.57711363388E+02 -0.45390131137E+02 -0.27799156893E+02  0.78620169122E+02  0.41800000000E+01 0. -1.
        -11    1    1    2    0    0  0.25035803310E+02  0.54360085650E+02  0.68117924049E+02  0.90674483379E+02  0.00000000000E+00 0. -1.
         11    1    1    2    0    0 -0.22902644868E+02 -0.17252236854E+02  0.86093043660E+01  0.29938118513E+02  0.00000000000E+00 0.  1.
</event>
<event>
 7    1  0.3151015E-009  0.1371615E+03  0.7561462E-02  0.1217200E+00
          2   -1    0    0  501    0  0.00000000000E+00  0.00000000000E+00  0.27958351612E+03  0.27958351612E+03  0.00000000000E+00 0. -1.
         -2   -1    0    0    0  501 -0.00000000000E+00 -0.00000000000E+00 -0.83659279081E+02  0.83659279081E+02  0.00000000000E+00 0.  1.
         25    2    1    2    0    0  0.80998579359E+02 -0.32790731320E+02  0.17688843679E+03  0.23360310585E+03  0.12507953498E+03 0.  0.
          5    1    3    3  502    0  0.76155792409E+02 -0.75874459916E+02  0.11066740850E+03  0.15434178336E+03  0.41800000000E+01 0. -1.
         -5    1    3    3    0  502  0.48427869499E+01  0.43083728596E+02  0.66221028289E+02  0.79261322490E+02  0.41800000000E+01 0. -1.
        -11    1    1    2    0    0 -0.49665574182E+02 -0.26374435360E+02 -0.91955111448E+01  0.56981027760E+02  0.00000000000E+00 0. -1.
         11    1    1    2    0    0 -0.31333005177E+02  0.59165166680E+02  0.28231311392E+02  0.72658661594E+02  0.00000000000E+00 0.  1.
</event>
<event>
 7    1  0.3151015E-009  0.8322395E+02  0.7561462E-02  0.1320144E+00
         -2   -1    0    0    0  501 -0.00000000000E+00  0.00000000000E+00  0.29880657624E+02  0.29880657624E+02  0.00000000000E+00 0.  1.
          2   -1    0    0  501    0  0.00000000000E+00 -0.00000000000E+00 -0.42344038609E+03  0.42344038609E+03  0.00000000000E+00 0. -1.
         25    2    1    2    0    0  0.68753202613E+00 -0.32457826412E+02 -0.24813626290E+03  0.27977351345E+03  0.12509048992E+03 0.  0.
          5    1    3    3  502    0  0.15128223584E+02 -0.61916595807E+02 -0.56417100121E+02  0.85222588386E+02  0.41800000000E+01 0. -1.
         -5    1    3    3    0  502 -0.14440691558E+02  0.29458769395E+02 -0.19171916278E+03  0.19455092507E+03  0.41800000000E+01 0. -1.
        -11    1    1    2    0    0  0.13098992647E+02 -0.15096708300E+02 -0.64618344772E-01  0.19987455701E+02  0.00000000000E+00 0.  1.
         11    1    1    2    0    0 -0.13786524673E+02  0.47554534712E+02 -0.14535884722E+03  0.15356007456E+03  0.00000000000E+00 0. -1.
</event>
<event>
 7    1  0.3151015E-009  0.1553042E+03  0.7561462E-02  0.1194103E+00
          1   -1    0    0  501    0  0.00000000000E+00  0.00000000000E+00  0.46166731770E+03  0.46166731770E+03  0.00000000000E+00 0. -1.
         -1   -1    0    0    0  501 -0.00000000000E+00 -0.00000000000E+00 -0.66080344529E+02  0.66080344529E+02  0.00000000000E+00 0.  1.
         25    2    1    2    0    0  0.62705994583E+02  0.25163704382E+02  0.25844988340E+03  0.29497315458E+03  0.12509023111E+03 0.  0.
          5    1    3    3  502    0  0.67654261961E+02 -0.29464423575E+02  0.83178711350E+02  0.11127183759E+03  0.41800000000E+01 0. -1.
         -5    1    3    3    0  502 -0.49482673787E+01  0.54628127956E+02  0.17527117205E+03  0.18370131700E+03  0.41800000000E+01 0. -1.
        -11    1    1    2    0    0 -0.10549718572E+03 -0.64425444545E+02  0.11986719396E+03  0.17218721871E+03  0.00000000000E+00 0. -1.
         11    1    1    2    0    0  0.42791191135E+02  0.39261740163E+02  0.17269895810E+02  0.60587288936E+02  0.00000000000E+00 0.  1.
</event>
<event>
 7    1  0.3151015E-009  0.1257700E+03  0.7561462E-02  0.1233871E+00
         -2   -1    0    0    0  501 -0.00000000000E+00  0.00000000000E+00  0.35408066979E+03  0.35408066979E+03  0.00000000000E+00 0. -1.
          2   -1    0    0  501    0  0.00000000000E+00 -0.00000000000E+00 -0.61206163866E+02  0.61206163866E+02  0.00000000000E+00 0.  1.
         25    2    1    2    0    0 -0.72086719214E+02 -0.71507750996E+02  0.18004980110E+03  0.24160926423E+03  0.12508897692E+03 0.  0.
          5    1    3    3  502    0 -0.17811306551E+02 -0.79107726665E+02  0.16612901324E+03  0.18490969823E+03  0.41800000000E+01 0.  1.
         -5    1    3    3    0  502 -0.54275412662E+02  0.75999756691E+01  0.13920787853E+02  0.56699565997E+02  0.41800000000E+01 0.  1.
        -11    1    1    2    0    0 -0.19742403410E+01  0.30811095728E+02  0.74973837918E+02  0.81082042507E+02  0.00000000000E+00 0. -1.
         11    1    1    2    0    0  0.74060959555E+02  0.40696655268E+02  0.37850866913E+02  0.92595526923E+02  0.00000000000E+00 0.  1.
</event>
<event>
 7    1  0.3151015E-009  0.1375720E+03  0.7561462E-02  0.1216634E+00
          2   -1    0    0  501    0  0.00000000000E+00  0.00000000000E+00  0.13875125555E+04  0.13875125555E+04  0.00000000000E+00 0. -1.
         -2   -1    0    0    0  501 -0.00000000000E+00 -0.00000000000E+00 -0.18267662763E+02  0.18267662763E+02  0.00000000000E+00 0.  1.
         25    2    1    2    0    0 -0.16211083357E+02 -0.11420058086E+03  0.82658384961E+03  0.84391555295E+03  0.12509207882E+03 0.  0.
          5    1    3    3  502    0  0.43609053963E+02 -0.22813298309E+02  0.42003603202E+03  0.42293017954E+03  0.41800000000E+01 0. -1.
         -5    1    3    3    0  502 -0.59820137320E+02 -0.91387282553E+02  0.40654781759E+03  0.42098537341E+03  0.41800000000E+01 0. -1.
        -11    1    1    2    0    0  0.97466804900E+01  0.10340296657E+03  0.53877359183E+03  0.54869313330E+03  0.00000000000E+00 0. -1.
         11    1    1    2    0    0  0.64644028671E+01  0.10797614294E+02  0.38874513421E+01  0.13171532060E+02  0.00000000000E+00 0.  1.
</event>
<event>
 7    1  0.3151015E-009  0.3049230E+03  0.7561462E-02  0.1082805E+00
          1   -1    0    0  501    0  0.00000000000E+00  0.00000000000E+00  0.10801516891E+04  0.10801516891E+04  0.00000000000E+00 0. -1.
         -1   -1    0    0    0  501 -0.00000000000E+00 -0.00000000000E+00 -0.97895861613E+02  0.97895861613E+02  0.00000000000E+00 0.  1.
         25    2    1    2    0    0  0.12374657564E+03  0.26114390330E+03  0.68186089926E+03  0.75105894375E+03  0.12508356336E+03 0.  0.
          5    1    3    3  502    0 -0.56433791688E+01  0.12054300654E+03  0.31603213478E+03  0.33831382882E+03  0.41800000000E+01 0.  1.
         -5    1    3    3    0  502  0.12938995481E+03  0.14060089676E+03  0.36582876448E+03  0.41274511493E+03  0.41800000000E+01 0.  1.
        -11    1    1    2    0    0 -0.13302099703E+03 -0.23244548389E+03  0.29080893602E+03  0.39534203660E+03  0.00000000000E+00 0.  1.
         11    1    1    2    0    0  0.92744213920E+01 -0.28698419409E+02  0.95859921856E+01  0.31646570350E+02  0.00000000000E+00 0. -1.
</event>
<event>
 7    1  0.3151015E-009  0.1116755E+03  0.7561462E-02  0.1257498E+00
          3   -1    0    0  501    0  0.00000000000E+00  0.00000000000E+00  0.71774967181E+02  0.71774967181E+02  0.00000000000E+00 0. -1.
         -3   -1    0    0    0  501 -0.00000000000E+00 -0.00000000000E+00 -0.20938263097E+03  0.20938263097E+03  0.00000000000E+00 0.  1.
         25    2    1    2    0    0 -0.41381886363E+02 -0.32941923522E+02 -0.64844430298E+02  0.15050007917E+03  0.12509133801E+03 0.  0.
          5    1    3    3  502    0 -0.42929470138E+02 -0.78126511468E+02 -0.52118280417E+02  0.10334640175E+03  0.41800000000E+01 0.  1.
         -5    1    3    3    0  502  0.15475837755E+01  0.45184587946E+02 -0.12726149881E+02  0.47153677419E+02  0.41800000000E+01 0.  1.
        -11    1    1    2    0    0  0.18910042382E+01  0.46811139663E+02 -0.75344656555E+02  0.88722465954E+02  0.00000000000E+00 0.  1.
         11    1    1    2    0    0  0.39490882125E+02 -0.13869216141E+02  0.25814230671E+01  0.41935053027E+02  0.00000000000E+00 0. -1.
</event>
<event>
 7    1  0.3151015E-009  0.8643913E+02  0.7561462E-02  0.1311711E+00
         -1   -1    0    0    0  501 -0.00000000000E+00  0.00000000000E+00  0.12536253984E+03  0.12536253984E+03  0.00000000000E+00 0.  1.
          1   -1    0    0  501    0  0.00000000000E+00 -0.00000000000E+00 -0.10156421074E+03  0.10156421074E+03  0.00000000000E+00 0. -1.
         25    2    1    2    0    0  0.37087232328E+01 -0.20829350664E+01 -0.19175346146E+02  0.12663939956E+03  0.12510695574E+03 0.  0.
          5    1    3    3  502    0  0.28797165801E+02  0.43011883479E+02  0.25866294299E+02  0.58015829386E+02  0.41800000000E+01 0.  1.
         -5    1    3    3    0  502 -0.25088442568E+02 -0.45094818545E+02 -0.45041640445E+02  0.68623570179E+02  0.41800000000E+01 0.  1.
        -11    1    1    2    0    0  0.31548646341E+02  0.98917398823E+01 -0.11435559053E+02  0.34984791191E+02  0.00000000000E+00 0. -1.
         11    1    1    2    0    0 -0.35257369574E+02 -0.78088048159E+01  0.54409234299E+02  0.65302559819E+02  0.00000000000E+00 0.  1.
</event>
<event>
 7    1  0.3151015E-009  0.1087074E+03  0.7561462E-02  0.1262982E+00
         -1   -1    0    0    0  501 -0.00000000000E+00  0.00000000000E+00  0.44115854189E+03  0.44115854189E+03  0.00000000000E+00 0.  1.
          1   -1    0    0  501    0  0.00000000000E+00 -0.00000000000E+00 -0.42199550736E+02  0.42199550736E+02  0.00000000000E+00 0. -1.
         25    2    1    2    0    0 -0.51906378460E+02 -0.49997951770E+02  0.29163720047E+03  0.32541310886E+03  0.12508943764E+03 0.  0.
          5    1    3    3  502    0 -0.32286708326E+01 -0.81680069569E+02  0.20778523238E+03  0.22332539774E+03  0.41800000000E+01 0.  1.
         -5    1    3    3    0  502 -0.48677707627E+02  0.31682117800E+02  0.83851968091E+02  0.10208771112E+03  0.41800000000E+01 0.  1.
        -11    1    1    2    0    0  0.60488459755E+01  0.23723905709E+02  0.10191906570E+03  0.10481845349E+03  0.00000000000E+00 0.  1.
         11    1    1    2    0    0  0.45857532484E+02  0.26274046061E+02  0.54027249814E+01  0.53126530276E+02  0.00000000000E+00 0. -1.
</event>
<event>
 7    1  0.3151015E-009  0.8214269E+02  0.7561462E-02  0.1323078E+00
          2   -1    0    0  501    0  0.00000000000E+00  0.00000000000E+00  0.12857212426E+03  0.12857212426E+03  0.00000000000E+00 0.  1.
         -2   -1    0    0    0  501 -0.00000000000E+00 -0.00000000000E+00 -0.97825655563E+02  0.97825655563E+02  0.00000000000E+00 0. -1.
         25    2    1    2    0    0 -0.93291682268E+01  0.23595372877E+02  0.39234445975E+02  0.13354495956E+03  0.12510451420E+03 0.  0.
          5    1    3    3  502    0  0.44060101428E+02  0.14865760215E+02 -0.22100387591E+02  0.51654456694E+02  0.41800000000E+01 0.  1.
         -5    1    3    3    0  502 -0.53389269655E+02  0.87296126620E+01  0.61334833566E+02  0.81890502869E+02  0.41800000000E+01 0.  1.
        -11    1    1    2    0    0 -0.24609900850E+02 -0.71693279918E+01 -0.37398476066E+02  0.45339745211E+02  0.00000000000E+00 0. -1.
         11    1    1    2    0    0  0.33939069077E+02 -0.16426044885E+02  0.28910498786E+02  0.47513075047E+02  0.00000000000E+00 0.  1.
</event>
<event>
 7    1  0.3719481E-009  0.1151184E+03  0.7561462E-02  0.1251375E+00
         -1   -1    0    0    0  501 -0.00000000000E+00  0.00000000000E+00  0.52092597367E+02  0.52092597367E+02  0.00000000000E+00 0.  1.
          1   -1    0    0  501    0  0.00000000000E+00 -0.00000000000E+00 -0.39376712777E+03  0.39376712777E+03  0.00000000000E+00 0. -1.
         25    2    1    2    0    0  0.77487891163E+02 -0.34191139596E+02 -0.24610652418E+03  0.28877253223E+03  0.12509095422E+03 0.  0.
          5    1    3    3  502    0  0.10833652808E+03 -0.31436891662E+02 -0.22287487780E+03  0.24983147325E+03  0.41800000000E+01 0. -1.
         -5    1    3    3    0  502 -0.30848636915E+02 -0.27542479334E+01 -0.23231646376E+02  0.38941058981E+02  0.41800000000E+01 0. -1.
        -11    1    1    2    0    0 -0.42711429349E+02  0.27177847914E+02  0.45890399783E+01  0.50832675536E+02  0.00000000000E+00 0.  1.
         11    1    1    2    0    0 -0.34776461814E+02  0.70132916817E+01 -0.10015704620E+03  0.10625451737E+03  0.00000000000E+00 0. -1.
</event>
<event>
 7    1  0.3151015E-009  0.1317121E+03  0.7561462E-02  0.1224937E+00
          1   -1    0    0  501    0  0.00000000000E+00  0.00000000000E+00  0.55888138516E+03  0.55888138516E+03  0.00000000000E+00 0.  1.
         -1   -1    0    0    0  501 -0.00000000000E+00 -0.00000000000E+00 -0.42518377889E+02  0.42518377889E+02  0.00000000000E+00 0. -1.
         25    2    1    2    0    0  0.56742145375E+02  0.89544036006E+02  0.34001991093E+03  0.37748902654E+03  0.12508644965E+03 0.  0.
          5    1    3    3  502    0 -0.32810489377E+02  0.12905945414E+02  0.32522571411E+02  0.48148537790E+02  0.41800000000E+01 0. -1.
         -5    1    3    3    0  502  0.89552634751E+02  0.76638090593E+02  0.30749733952E+03  0.32934048875E+03  0.41800000000E+01 0. -1.
        -11    1    1    2    0    0 -0.31673672153E+02 -0.73966128734E+02  0.51284364552E+02  0.95416433360E+02  0.00000000000E+00 0.  1.
         11    1    1    2    0    0 -0.25068473222E+02 -0.15577907272E+02  0.12505873179E+03  0.12849430315E+03  0.00000000000E+00 0. -1.
</event>
<event>
 7    1  0.3151015E-009  0.1606878E+03  0.7561462E-02  0.1187922E+00
          1   -1    0    0  501    0  0.00000000000E+00  0.00000000000E+00  0.83608325463E+03  0.83608325463E+03  0.00000000000E+00 0. -1.
         -1   -1    0    0    0  501 -0.00000000000E+00 -0.00000000000E+00 -0.39020399606E+02  0.39020399606E+02  0.00000000000E+00 0.  1.
         25    2    1    2    0    0  0.88713279275E+02  0.11328696250E+03  0.39504597613E+03  0.43864804014E+03  0.12508716189E+03 0.  0.
          5    1    3    3  502    0  0.76010857441E+02  0.13320185592E+03  0.38128297582E+03  0.41099217136E+03  0.41800000000E+01 0. -1.
         -5    1    3    3    0  502  0.12702421834E+02 -0.19914893419E+02  0.13763000304E+02  0.27655868776E+02  0.41800000000E+01 0. -1.
        -11    1    1    2    0    0 -0.31724147590E+02 -0.36872652590E+02  0.26569560248E+03  0.27011139781E+03  0.00000000000E+00 0.  1.
         11    1    1    2    0    0 -0.56989131684E+02 -0.76414309907E+02  0.13632127641E+03  0.16634421629E+03  0.00000000000E+00 0. -1.
</event>
<event>
 7    1  0.3151015E-009  0.1033686E+03  0.7561462E-02  0.1273368E+00
         -2   -1    0    0    0  501 -0.00000000000E+00  0.00000000000E+00  0.12475613795E+04  0.12475613795E+04  0.00000000000E+00 0.  1.
          2   -1    0    0  501    0  0.00000000000E+00 -0.00000000000E+00 -0.12389498542E+02  0.12389498542E+02  0.00000000000E+00 0. -1.
         25    2    1    2    0    0 -0.34355695104E+02  0.50679525398E+02  0.79271083801E+03  0.80485115821E+03  0.12508471568E+03 0.  0.
          5    1    3    3  502    0 -0.61152673626E+02  0.31658735929E+02  0.20678249901E+03  0.21798715409E+03  0.41800000000E+01 0. -1.
         -5    1    3    3    0  502  0.26796978522E+02  0.19020789469E+02  0.58592833900E+03  0.58686400412E+03  0.41800000000E+01 0. -1.
        -11    1    1    2    0    0  0.55180647301E+02 -0.60252938251E+02  0.30562163040E+03  0.31635407595E+03  0.00000000000E+00 0. -1.
         11    1    1    2    0    0 -0.20824952197E+02  0.95734128523E+01  0.13683941256E+03  0.13874564389E+03  0.00000000000E+00 0.  1.
</event>
<event>
 7    1  0.3151015E-009  0.1559541E+03  0.7561462E-02  0.1193342E+00
         -2   -1    0    0    0  501 -0.00000000000E+00  0.00000000000E+00  0.92947624605E+02  0.92947624605E+02  0.00000000000E+00 0. -1.
          2   -1    0    0  501    0  0.00000000000E+00 -0.00000000000E+00 -0.32279231556E+03  0.32279231556E+03  0.00000000000E+00 0.  1.
         25    2    1    2    0    0  0.12626002119E+03 -0.45971900993E+02 -0.12930590583E+03  0.22454838437E+03  0.12508777322E+03 0.  0.
          5    1    3    3  502    0  0.79175627347E+02 -0.83680011013E+02 -0.11410590322E+03  0.16219973415E+03  0.41800000000E+01 0. -1.
         -5    1    3    3    0  502  0.47084393848E+02  0.37708110020E+02 -0.15200002615E+02  0.62348650224E+02  0.41800000000E+01 0. -1.
        -11    1    1    2    0    0 -0.10415959786E+03  0.28489977711E+02 -0.25385883252E+02  0.11092945382E+03  0.00000000000E+00 0. -1.
         11    1    1    2    0    0 -0.22100423333E+02  0.17481923282E+02 -0.75152901872E+02  0.80262101972E+02  0.00000000000E+00 0.  1.
</event>
<event>
 7    1  0.3151015E-009  0.2025874E+03  0.7561462E-02  0.1147574E+00
          2   -1    0    0  501    0  0.00000000000E+00  0.00000000000E+00  0.13101815579E+04  0.13101815579E+04  0.00000000000E+00 0. -1.
         -2   -1    0    0    0  501 -0.00000000000E+00 -0.00000000000E+00 -0.39007063647E+02  0.39007063647E+02  0.00000000000E+00 0.  1.
         25    2    1    2    0    0 -0.14158098022E+03 -0.11942379790E+03  0.86377845764E+03  0.89222604816E+03  0.12508748805E+03 0.  0.
          5    1    3    3  502    0 -0.14927992647E+03 -0.12549132898E+03  0.85840912393E+03  0.88029328439E+03  0.41800000000E+01 0. -1.
         -5    1    3    3    0  502  0.76989462497E+01  0.60675310722E+01  0.53693337063E+01  0.11932763767E+02  0.41800000000E+01 0. -1.
        -11    1    1    2    0    0  0.10661654589E+03  0.12473222619E+03  0.37359506362E+03  0.40804226211E+03  0.00000000000E+00 0.  1.
         11    1    1    2    0    0  0.34964434334E+02 -0.53084282874E+01  0.33800972963E+02  0.48920311246E+02  0.00000000000E+00 0. -1.
</event>
<event>
 7    1  0.3151015E-009  0.7111479E+02  0.7561462E-02  0.1356343E+00
          1   -1    0    0  501    0  0.00000000000E+00  0.00000000000E+00  0.23760882200E+03  0.23760882200E+03  0.00000000000E+00 0. -1.
         -1   -1    0    0    0  501 -0.00000000000E+00 -0.00000000000E+00 -0.53399487190E+02  0.53399487190E+02  0.00000000000E+00 0.  1.
         25    2    1    2    0    0 -0.17909827664E+02 -0.42237952203E+01  0.15256739330E+03  0.19814257145E+03  0.12508024125E+03 0.  0.
          5    1    3    3  502    0 -0.20285107385E+02 -0.35687318781E+02  0.16018584773E+03  0.16541477720E+03  0.41800000000E+01 0.  1.
         -5    1    3    3    0  502  0.23752797213E+01  0.31463523561E+02 -0.76184544294E+01  0.32727794251E+02  0.41800000000E+01 0.  1.
        -11    1    1    2    0    0  0.10940764377E+02  0.35473114688E+02 -0.11752848766E+02  0.38938048808E+02  0.00000000000E+00 0.  1.
         11    1    1    2    0    0  0.69690632865E+01 -0.31249319468E+02  0.43394790270E+02  0.53927688926E+02  0.00000000000E+00 0. -1.
</event>
<event>
 7    1  0.3151015E-009  0.1218375E+03  0.7561462E-02  0.1240096E+00
          3   -1    0    0  501    0  0.00000000000E+00  0.00000000000E+00  0.20334475139E+04  0.20334475139E+04  0.00000000000E+00 0. -1.
         -3   -1    0    0    0  501 -0.00000000000E+00 -0.00000000000E+00 -0.15814033792E+02  0.15814033792E+02  0.00000000000E+00 0.  1.
         25    2    1    2    0    0 -0.10846676316E+02 -0.68978533046E+02  0.17945412127E+04  0.18002500954E+04  0.12508618476E+03 0.  0.
          5    1    3    3  502    0 -0.44808630307E+02  0.17266461993E+02  0.47080760565E+03  0.47326865309E+03  0.41800000000E+01 0.  1.
         -5    1    3    3    0  502  0.33961953991E+02 -0.86244995039E+02  0.13237336070E+04  0.13269814423E+04  0.41800000000E+01 0.  1.
        -11    1    1    2    0    0  0.14956014222E+02  0.84919159447E+02  0.21277799513E+03  0.22958532448E+03  0.00000000000E+00 0. -1.
         11    1    1    2    0    0 -0.41093379059E+01 -0.15940626402E+02  0.10314272277E+02  0.19426127785E+02  0.00000000000E+00 0.  1.
</event>
<event>
 7    1  0.3231071E-009  0.1038992E+03  0.7561462E-02  0.1272304E+00
         -2   -1    0    0    0  501 -0.00000000000E+00  0.00000000000E+00  0.22023049005E+03  0.22023049005E+03  0.00000000000E+00 0. -1.
          2   -1    0    0  501    0  0.00000000000E+00 -0.00000000000E+00 -0.10745614181E+03  0.10745614181E+03  0.00000000000E+00 0.  1.
         25    2    1    2    0    0 -0.66649088339E+02 -0.76998498856E+02  0.20899888483E+02  0.16261726440E+03  0.12504678940E+03 0.  0.
          5    1    3    3  502    0 -0.40855807404E+02 -0.38137958515E+02  0.73345347350E+02  0.92307709624E+02  0.41800000000E+01 0. -1.
         -5    1    3    3    0  502 -0.25793280936E+02 -0.38860540342E+02 -0.52445458867E+02  0.70309554776E+02  0.41800000000E+01 0. -1.
        -11    1    1    2    0    0  0.34881113466E+02  0.21496110319E+02 -0.12346026190E+02  0.42792513342E+02  0.00000000000E+00 0.  1.
         11    1    1    2    0    0  0.31767974874E+02  0.55502388538E+02  0.10422048595E+03  0.12227685411E+03  0.00000000000E+00 0. -1.
</event>
<event>
 7    1  0.3151015E-009  0.9211646E+02  0.7561462E-02  0.1297806E+00
         -2   -1    0    0    0  501 -0.00000000000E+00  0.00000000000E+00  0.17061239691E+03  0.17061239691E+03  0.00000000000E+00 0.  1.
          2   -1    0    0  501    0  0.00000000000E+00 -0.00000000000E+00 -0.90248297408E+02  0.90248297408E+02  0.00000000000E+00 0. -1.
         25    2    1    2    0    0  0.51620326631E+02 -0.38875598579E+01  0.81319674704E+02  0.15792430056E+03  0.12508966373E+03 0.  0.
          5    1    3    3  502    0  0.55313948584E+02 -0.49797085020E+02  0.83109547366E+02  0.11164251810E+03  0.41800000000E+01 0. -1.
         -5    1    3    3    0  502 -0.36936219535E+01  0.45909525162E+02 -0.17898726617E+01  0.46281782463E+02  0.41800000000E+01 0. -1.
        -11    1    1    2    0    0 -0.35317189308E+02  0.19943736461E+02  0.39399523118E+02  0.56545370337E+02  0.00000000000E+00 0.  1.
         11    1    1    2    0    0 -0.16303137322E+02 -0.16056176603E+02 -0.40355098319E+02  0.46391023420E+02  0.00000000000E+00 0. -1.
</event>
<event>
 7    1  0.3151015E-009  0.8544338E+02  0.7561462E-02  0.1314277E+00
         -3   -1    0    0    0  501 -0.00000000000E+00  0.00000000000E+00  0.17976202135E+03  0.17976202135E+03  0.00000000000E+00 0.  1.
          3   -1    0    0  501    0  0.00000000000E+00 -0.00000000000E+00 -0.11829438266E+03  0.11829438266E+03  0.00000000000E+00 0. -1.
         25    2    1    2    0    0  0.23212556444E+02 -0.60941044669E+02 -0.41409558608E+02  0.14702092858E+03  0.12509103963E+03 0.  0.
          5    1    3    3  502    0 -0.21305121791E+02 -0.24594961149E+02 -0.73910706063E+02  0.80864610301E+02  0.41800000000E+01 0.  1.
         -5    1    3    3    0  502  0.44517678236E+02 -0.36346083519E+02  0.32501147454E+02  0.66156318281E+02  0.41800000000E+01 0.  1.
        -11    1    1    2    0    0 -0.36483709556E+02  0.54801230773E+02  0.22856491666E+02  0.69689706331E+02  0.00000000000E+00 0. -1.
         11    1    1    2    0    0  0.13271153111E+02  0.61398138958E+01  0.80020705634E+02  0.81345769096E+02  0.00000000000E+00 0.  1.
</event>
<event>
 7    1  0.3151015E-009  0.1648374E+03  0.7561462E-02  0.1183341E+00
          1   -1    0    0  501    0  0.00000000000E+00  0.00000000000E+00  0.11776494223E+03  0.11776494223E+03  0.00000000000E+00 0. -1.
         -1   -1    0    0    0  501 -0.00000000000E+00 -0.00000000000E+00 -0.24164901940E+03  0.24164901940E+03  0.00000000000E+00 0.  1.
         25    2    1    2    0    0  0.12284327447E+03  0.35631970837E+02 -0.80918134428E+02  0.19635563374E+03  0.12509069908E+03 0.  0.
          5    1    3    3  502    0  0.12126078338E+03  0.70855027662E+02 -0.78062937444E+02  0.16073551920E+03  0.41800000000E+01 0.  1.
         -5    1    3    3    0  502  0.15824910884E+01 -0.35223056825E+02 -0.28551969840E+01  0.35620114541E+02  0.41800000000E+01 0.  1.
        -11    1    1    2    0    0 -0.37463685904E+02 -0.54585138222E+02 -0.35908912541E+02  0.75316101041E+02  0.00000000000E+00 0.  1.
         11    1    1    2    0    0 -0.85379588562E+02  0.18953167384E+02 -0.70570301996E+01  0.87742226847E+02  0.00000000000E+00 0. -1.
</event>
<event>
 7    1  0.3151015E-009  0.1014671E+03  0.7561462E-02  0.1277241E+00
         -1   -1    0    0    0  501 -0.00000000000E+00  0.00000000000E+00  0.38537574033E+02  0.38537574033E+02  0.00000000000E+00 0.  1.
          1   -1    0    0  501    0  0.00000000000E+00 -0.00000000000E+00 -0.36775317517E+03  0.36775317517E+03  0.00000000000E+00 0. -1.
         25    2    1    2    0    0 -0.84222658810E+01 -0.42088199675E+02 -0.17725399608E+03  0.22115192755E+03  0.12508734875E+03 0.  0.
          5    1    3    3  502    0  0.33824844388E+02  0.22369067725E+02 -0.11493751203E+03  0.12195326712E+03  0.41800000000E+01 0. -1.
         -5    1    3    3    0  502 -0.42247110269E+02 -0.64457267400E+02 -0.62316484051E+02  0.99198660430E+02  0.41800000000E+01 0. -1.
        -11    1    1    2    0    0 -0.18784372808E+02 -0.13475621977E+02 -0.10487080535E+03  0.10738869058E+03  0.00000000000E+00 0. -1.
         11    1    1    2    0    0  0.27206638689E+02  0.55563821651E+02 -0.47090799702E+02  0.77750131073E+02  0.00000000000E+00 0.  1.
</event>
<event>
 7    1  0.3151015E-009  0.8383558E+02  0.7561462E-02  0.1318506E+00
          2   -1    0    0  501    0  0.00000000000E+00  0.00000000000E+00  0.85866602091E+03  0.85866602091E+03  0.00000000000E+00 0. -1.
         -2   -1    0    0    0  501 -0.00000000000E+00 -0.00000000000E+00 -0.22205803691E+02  0.22205803691E+02  0.00000000000E+00 0.  1.
         25    2    1    2    0    0 -0.20870626605E+02 -0.33925195984E+02  0.69512337666E+03  0.70741079291E+03  0.12508804565E+03 0.  0.
          5    1    3    3  502    0 -0.49069577722E+02 -0.17218113918E+02  0.11424387693E+03  0.12559228766E+03  0.41800000000E+01 0.  1.
         -5    1    3    3    0  502  0.28198951117E+02 -0.16707082066E+02  0.58087949974E+03  0.58181850525E+03  0.41800000000E+01 0.  1.
        -11    1    1    2    0    0  0.47959116384E+02  0.19534812010E+02  0.13137090427E+03  0.14120906562E+03  0.00000000000E+00 0. -1.
         11    1    1    2    0    0 -0.27088489779E+02  0.14390383974E+02  0.99659362859E+01  0.32251966072E+02  0.00000000000E+00 0.  1.
</event>
<event>
 7    1  0.3151015E-009  0.1081298E+03  0.7561462E-02  0.1264073E+00
          1   -1    0    0  501    0  0.00000000000E+00  0.00000000000E+00  0.34929486679E+02  0.34929486679E+02  0.00000000000E+00 0. -1.
         -1   -1    0    0    0  501 -0.00000000000E+00 -0.00000000000E+00 -0.48622438065E+03  0.48622438065E+03  0.00000000000E+00 0.  1.
         25    2    1    2    0    0 -0.19880747566E+02  0.23756569477E+02 -0.38198933443E+03  0.40314072258E+03  0.12508785660E+03 0.  0.
          5    1    3    3  502    0  0.49865115601E+02  0.40136729832E+01 -0.99196677419E+02  0.11117595305E+03  0.41800000000E+01 0. -1.
         -5    1    3    3    0  502 -0.69745863167E+02  0.19742896494E+02 -0.28279265701E+03  0.29196476953E+03  0.41800000000E+01 0. -1.
        -11    1    1    2    0    0  0.45395954450E+02 -0.42190601423E+02 -0.33908088252E+02  0.70644164499E+02  0.00000000000E+00 0. -1.
         11    1    1    2    0    0 -0.25515206884E+02  0.18434031946E+02 -0.35397471288E+02  0.47368980248E+02  0.00000000000E+00 0.  1.
</event>
<event>
 7    1  0.3151015E-009  0.1182083E+03  0.7561462E-02  0.1246082E+00
         -2   -1    0    0    0  501 -0.00000000000E+00  0.00000000000E+00  0.74422911502E+02  0.74422911502E+02  0.00000000000E+00 0.  1.
          2   -1    0    0  501    0  0.00000000000E+00 -0.00000000000E+00 -0.33964280854E+03  0.33964280854E+03  0.00000000000E+00 0. -1.
         25    2    1    2    0    0  0.64794557270E+02 -0.26663025268E+02 -0.26203350546E+03  0.29869633189E+03  0.12509472065E+03 0.  0.
          5    1    3    3  502    0  0.10005367119E+03 -0.16774853692E+02 -0.22291057784E+03  0.24494638383E+03  0.41800000000E+01 0.  1.
         -5    1    3    3    0  502 -0.35259113922E+02 -0.98881715759E+01 -0.39122927619E+02  0.53749948067E+02  0.41800000000E+01 0.  1.
        -11    1    1    2    0    0 -0.66468030366E+02  0.44576551514E+02 -0.27939621015E+02  0.84768451844E+02  0.00000000000E+00 0. -1.
         11    1    1    2    0    0  0.16734730960E+01 -0.17913526246E+02  0.24753229442E+02  0.30600936302E+02  0.00000000000E+00 0.  1.
</event>
<event>
 7    1  0.3151015E-009  0.8489599E+02  0.7561462E-02  0.1315705E+00
         -1   -1    0    0    0  501 -0.00000000000E+00  0.00000000000E+00  0.71289445671E+02  0.71289445671E+02  0.00000000000E+00 0.  1.
          1   -1    0    0  501    0  0.00000000000E+00 -0.00000000000E+00 -0.31956630763E+03  0.31956630763E+03  0.00000000000E+00 0. -1.
         25    2    1    2    0    0 -0.66644147617E+02 -0.12375502068E+02 -0.23572264444E+03  0.27533245200E+03  0.12509275981E+03 0.  0.
          5    1    3    3  502    0 -0.23772103288E+02 -0.11224887036E+02 -0.23037890700E+03  0.23191167322E+03  0.41800000000E+01 0.  1.
         -5    1    3    3    0  502 -0.42872044329E+02 -0.11506150321E+01 -0.53437374411E+01  0.43420778779E+02  0.41800000000E+01 0.  1.
        -11    1    1    2    0    0  0.19492657071E+02  0.40664741404E+02  0.22415086871E+02  0.50358921678E+02  0.00000000000E+00 0.  1.
         11    1    1    2    0    0  0.47151490546E+02 -0.28289239336E+02 -0.34969304392E+02  0.65164379630E+02  0.00000000000E+00 0. -1.
</event>
<event>
 7    1  0.3151015E-009  0.2567752E+03  0.7561462E-02  0.1109096E+00
         -2   -1    0    0    0  501 -0.00000000000E+00  0.00000000000E+00  0.20963925022E+03  0.20963925022E+03  0.00000000000E+00 0.  1.
          2   -1    0    0  501    0  0.00000000000E+00 -0.00000000000E+00 -0.35453473907E+03  0.35453473907E+03  0.00000000000E+00 0. -1.
         25    2    1    2    0    0 -0.21089872716E+03  0.12731861711E+03 -0.27589332751E+02  0.27766281887E+03  0.12508863386E+03 0.  0.
          5    1    3    3  502    0 -0.76217549277E+00  0.38526463111E+02 -0.30750719525E+02  0.49476746281E+02  0.41800000000E+01 0. -1.
         -5    1    3    3    0  502 -0.21013655166E+03  0.88792153996E+02  0.31613867739E+01  0.22818607259E+03  0.41800000000E+01 0. -1.
        -11    1    1    2    0    0  0.59428384150E+02 -0.42093599604E+02  0.65113611927E+01  0.73116357916E+02  0.00000000000E+00 0.  1.
         11    1    1    2    0    0  0.15147034300E+03 -0.85225017503E+02 -0.12381751729E+03  0.21339481251E+03  0.00000000000E+00 0. -1.
</event>
<event>
 7    1  0.3151015E-009  0.1474890E+03  0.7561462E-02  0.1203593E+00
          1   -1    0    0  501    0  0.00000000000E+00  0.00000000000E+00  0.44525681848E+03  0.44525681848E+03  0.00000000000E+00 0. -1.
         -1   -1    0    0    0  501 -0.00000000000E+00 -0.00000000000E+00 -0.12574698823E+03  0.12574698823E+03  0.00000000000E+00 0.  1.
         25    2    1    2    0    0  0.11096002275E+03 -0.50976689062E+02  0.37111795768E+03  0.41022799430E+03  0.12509084426E+03 0.  0.
          5    1    3    3  502    0  0.10775357730E+03  0.12745391995E+02  0.26429071220E+03  0.28572772248E+03  0.41800000000E+01 0. -1.
         -5    1    3    3    0  502  0.32064454510E+01 -0.63722081058E+02  0.10682724549E+03  0.12450027183E+03  0.41800000000E+01 0. -1.
        -11    1    1    2    0    0 -0.22598884757E+02  0.64167770487E+01 -0.57017092059E+02  0.61667117711E+02  0.00000000000E+00 0.  1.
         11    1    1    2    0    0 -0.88361137997E+02  0.44559912014E+02  0.54089646214E+01  0.99108694700E+02  0.00000000000E+00 0. -1.
</event>
<event>
 7    1  0.3151015E-009  0.1123609E+03  0.7561462E-02  0.1256259E+00
         -1   -1    0    0    0  501 -0.00000000000E+00  0.00000000000E+00  0.43655750034E+03  0.43655750034E+03  0.00000000000E+00 0.  1.
          1   -1    0    0  501    0  0.00000000000E+00 -0.00000000000E+00 -0.56266717197E+02  0.56266717197E+02  0.00000000000E+00 0. -1.
         25    2    1    2    0    0  0.71204762040E+02 -0.13582107290E+02  0.35906017188E+03  0.38707448741E+03  0.12509140657E+03 0.  0.
          5    1    3    3  502    0 -0.89961871874E+01 -0.50661114566E+02  0.88898828662E+02  0.10280055472E+03  0.41800000000E+01 0. -1.
         -5    1    3    3    0  502  0.80200949227E+02  0.37079007277E+02  0.27016134322E+03  0.28427393269E+03  0.41800000000E+01 0. -1.
        -11    1    1    2    0    0 -0.46441256270E+02  0.29671844738E+02 -0.16786043938E+02  0.57610588655E+02  0.00000000000E+00 0.  1.
         11    1    1    2    0    0 -0.24763505769E+02 -0.16089737448E+02  0.38016655202E+02  0.48139141475E+02  0.00000000000E+00 0. -1.
</event>
<event>
 6    1  0.3151015E-009  0.1324282E+03  0.7561462E-02  0.1223897E+00
         -2   -1    0    0    0  501 -0.00000000000E+00  0.00000000000E+00  0.10078664308E+03  0.10078664308E+03  0.00000000000E+00 0.  1.
          2   -1    0    0  501    0  0.00000000000E+00 -0.00000000000E+00 -0.43469173275E+03  0.43469173275E+03  0.00000000000E+00 0. -1.
          5    1    1    2  502    0  0.53093311334E+02 -0.24424069030E+02 -0.10341436177E+03  0.11885889734E+03  0.41800000000E+01 0. -1.
         -5    1    1    2    0  502 -0.64997983212E+02 -0.72202262473E+02 -0.25832517282E+03  0.27602041925E+03  0.41800000000E+01 0. -1.
        -11    1    1    2    0    0 -0.19134784965E+02  0.42995389795E+02  0.55475560473E+02  0.72748067665E+02  0.00000000000E+00 0.  1.
         11    1    1    2    0    0  0.31039456843E+02  0.53630941708E+02 -0.27641115544E+02  0.67850991578E+02  0.00000000000E+00 0. -1.
</event>
<event>
 7    1  0.3151015E-009  0.8515313E+02  0.7561462E-02  0.1315033E+00
         -1   -1    0    0    0  501 -0.00000000000E+00  0.00000000000E+00  0.23411077134E+02  0.23411077134E+02  0.00000000000E+00 0.  1.
          1   -1    0    0  501    0  0.00000000000E+00 -0.00000000000E+00 -0.57153319684E+03  0.57153319684E+03  0.00000000000E+00 0. -1.
         25    2    1    2    0    0 -0.19387864675E+01  0.26814480094E+02 -0.40513666439E+03  0.42485827020E+03  0.12508420241E+03 0.  0.
          5    1    3    3  502    0  0.23767591575E+02  0.60633485491E+02 -0.12048026585E+03  0.13701928635E+03  0.41800000000E+01 0. -1.
         -5    1    3    3    0  502 -0.25706378043E+02 -0.33819005397E+02 -0.28465639854E+03  0.28783898385E+03  0.41800000000E+01 0. -1.
        -11    1    1    2    0    0 -0.16239227882E+02 -0.37787118900E+02 -0.20837246669E+02  0.46106070378E+02  0.00000000000E+00 0.  1.
         11    1    1    2    0    0  0.18178014349E+02  0.10972638806E+02 -0.12214820865E+03  0.12397993339E+03  0.00000000000E+00 0. -1.
</event>
<event>
 7    1  0.3151015E-009  0.1419083E+03  0.7561462E-02  0.1210784E+00
          1   -1    0    0  501    0  0.00000000000E+00  0.00000000000E+00  0.53345038326E+03  0.53345038326E+03  0.00000000000E+00 0. -1.
         -1   -1    0    0    0  501 -0.00000000000E+00 -0.00000000000E+00 -0.92947754383E+02  0.92947754383E+02  0.00000000000E+00 0.  1.
         25    2    1    2    0    0  0.29271876825E+02 -0.92701947475E+02  0.46507476121E+03  0.49131825371E+03  0.12509436068E+03 0.  0.
          5    1    3    3  502    0 -0.47480467384E+02 -0.49643900818E+02  0.23798847152E+03  0.24773957425E+03  0.41800000000E+01 0. -1.
         -5    1    3    3    0  502  0.76752344209E+02 -0.43058046657E+02  0.22708628969E+03  0.24357867946E+03  0.41800000000E+01 0. -1.
        -11    1    1    2    0    0 -0.56469010338E+02  0.45943849116E+02 -0.33704132078E+02  0.80221910469E+02  0.00000000000E+00 0.  1.
         11    1    1    2    0    0  0.27197133513E+02  0.46758098359E+02  0.91319997475E+01  0.54857973466E+02  0.00000000000E+00 0. -1.
</event>
<event>
 7    1  0.3151015E-009  0.1049500E+03  0.7561462E-02  0.1270218E+00
          2   -1    0    0  501    0  0.00000000000E+00  0.00000000000E+00  0.37179660545E+03  0.37179660545E+03  0.00000000000E+00 0. -1.
         -2   -1    0    0    0  501 -0.00000000000E+00 -0.00000000000E+00 -0.34569559854E+02  0.34569559854E+02  0.00000000000E+00 0.  1.
         25    2    1    2    0    0 -0.26613115242E+02 -0.97441785197E+01  0.16417167007E+03  0.20833440231E+03  0.12509068316E+03 0.  0.
          5    1    3    3  502    0 -0.58239609927E+02  0.27676479589E+02  0.13857083299E+03  0.15289600335E+03  0.41800000000E+01 0. -1.
         -5    1    3    3    0  502  0.31626494685E+02 -0.37420658109E+02  0.25600837081E+02  0.55438398954E+02  0.41800000000E+01 0. -1.
        -11    1    1    2    0    0 -0.19923713334E+02 -0.29253367186E+02  0.58258757553E+02  0.68167416529E+02  0.00000000000E+00 0. -1.
         11    1    1    2    0    0  0.46536828576E+02  0.38997545705E+02  0.11479661798E+03  0.12986434647E+03  0.00000000000E+00 0.  1.
</event>
<event>
 7    1  0.3151015E-009  0.5595020E+02  0.7561462E-02  0.1415658E+00
          1   -1    0    0  501    0  0.00000000000E+00  0.00000000000E+00  0.58794665709E+03  0.58794665709E+03  0.00000000000E+00 0. -1.
         -1   -1    0    0    0  501 -0.00000000000E+00 -0.00000000000E+00 -0.35172487041E+02  0.35172487041E+02  0.00000000000E+00 0.  1.
         25    2    1    2    0    0 -0.17422124415E+02 -0.17516933385E+02  0.49871987119E+03  0.51476300363E+03  0.12509622942E+03 0.  0.
          5    1    3    3  502    0 -0.25485475743E+02 -0.24664584641E+02  0.32154506903E+02  0.48054509919E+02  0.41800000000E+01 0. -1.
         -5    1    3    3    0  502  0.80633513278E+01  0.71476512555E+01  0.46656536429E+03  0.46670849372E+03  0.41800000000E+01 0. -1.
        -11    1    1    2    0    0  0.91428625743E+01  0.39812027382E+02 -0.82445517265E+01  0.41672078104E+02  0.00000000000E+00 0.  1.
         11    1    1    2    0    0  0.82792618409E+01 -0.22295093997E+02  0.62298850587E+02  0.66684062395E+02  0.00000000000E+00 0. -1.
</event>
<event>
 7    1  0.3151015E-009  0.1235970E+03  0.7561462E-02  0.1237278E+00
         -2   -1    0    0    0  501 -0.00000000000E+00  0.00000000000E+00  0.12267901822E+03  0.12267901822E+03  0.00000000000E+00 0.  1.
          2   -1    0    0  501    0  0.00000000000E+00 -0.00000000000E+00 -0.20591708610E+03  0.20591708610E+03  0.00000000000E+00 0. -1.
         25    2    1    2    0    0 -0.26277657245E+02 -0.10736880364E+03 -0.82313178173E+02  0.18612511289E+03  0.12509405694E+03 0.  0.
          5    1    3    3  502    0  0.78327568758E+01 -0.68841832917E+02 -0.10806123199E+03  0.12843384406E+03  0.41800000000E+01 0.  1.
         -5    1    3    3    0  502 -0.34110414121E+02 -0.38526970719E+02  0.25748053817E+02  0.57691268834E+02  0.41800000000E+01 0.  1.
        -11    1    1    2    0    0 -0.16763475894E+02  0.95666373492E+01  0.25900361609E+02  0.32301136291E+02  0.00000000000E+00 0.  1.
         11    1    1    2    0    0  0.43041133139E+02  0.97802166287E+02 -0.26825251321E+02  0.11016985514E+03  0.00000000000E+00 0. -1.
</event>
<event>
 7    1  0.3151015E-009  0.1932177E+03  0.7561462E-02  0.1155591E+00
         -1   -1    0    0    0  501 -0.00000000000E+00  0.00000000000E+00  0.11206705567E+03  0.11206705567E+03  0.00000000000E+00 0.  1.
          1   -1    0    0  501    0  0.00000000000E+00 -0.00000000000E+00 -0.50797089555E+03  0.50797089555E+03  0.00000000000E+00 0. -1.
         25    2    1    2    0    0 -0.82542736589E+02  0.16943304425E+03 -0.33075738990E+03  0.40071048213E+03  0.12509028605E+03 0.  0.
          5    1    3    3  502    0 -0.29985093619E+02  0.16595946053E+02 -0.22798561964E+01  0.34600598391E+02  0.41800000000E+01 0.  1.
         -5    1    3    3    0  502 -0.52557642970E+02  0.15283709819E+03 -0.32847753371E+03  0.36610988374E+03  0.41800000000E+01 0.  1.
        -11    1    1    2    0    0  0.48524775092E+02 -0.70250263325E+02  0.15842292974E+02  0.86837385621E+02  0.00000000000E+00 0.  1.
         11    1    1    2    0    0  0.34017961498E+02 -0.99182780922E+02 -0.80988742949E+02  0.13249008348E+03  0.00000000000E+00 0. -1.
</event>
<event>
 7    1  0.3151015E-009  0.1056839E+03  0.7561462E-02  0.1268778E+00
          1   -1    0    0  501    0  0.00000000000E+00  0.00000000000E+00  0.15409515751E+03  0.15409515751E+03  0.00000000000E+00 0. -1.
         -1   -1    0    0    0  501 -0.00000000000E+00 -0.00000000000E+00 -0.93641508542E+02  0.93641508542E+02  0.00000000000E+00 0.  1.
         25    2    1    2    0    0  0.23791889644E+02 -0.43212098921E+02  0.46947199987E+02  0.14242377895E+03  0.12508858349E+03 0.  0.
          5    1    3    3  502    0  0.78402535052E+01  0.43202480352E+02  0.28568866182E+02  0.52550703121E+02  0.41800000000E+01 0. -1.
         -5    1    3    3    0  502  0.15951636139E+02 -0.86414579273E+02  0.18378333805E+02  0.89873075834E+02  0.41800000000E+01 0. -1.
        -11    1    1    2    0    0  0.75568493758E+01  0.47096385101E+02 -0.26321146085E+02  0.54479153749E+02  0.00000000000E+00 0.  1.
         11    1    1    2    0    0 -0.31348739020E+02 -0.38842861793E+01  0.39827595062E+02  0.50833733344E+02  0.00000000000E+00 0. -1.
</event>
<event>
 7    1  0.3151015E-009  0.2603871E+03  0.7561462E-02  0.1106911E+00
          3   -1    0    0  501    0  0.00000000000E+00  0.00000000000E+00  0.54312493196E+03  0.54312493196E+03  0.00000000000E+00 0. -1.
         -3   -1    0    0    0  501 -0.00000000000E+00 -0.00000000000E+00 -0.14089185042E+03  0.14089185042E+03  0.00000000000E+00 0.  1.
         25    2    1    2    0    0  0.12116979521E+03  0.21845956600E+03  0.14745061555E+03  0.31590574891E+03  0.12509219368E+03 0.  0.
          5    1    3    3  502    0  0.25664591590E+01 -0.11318985618E+02 -0.74859910878E+01  0.14429782070E+02  0.41800000000E+01 0.  1.
         -5    1    3    3    0  502  0.11860333605E+03  0.22977855162E+03  0.15493660663E+03  0.30147596684E+03  0.41800000000E+01 0.  1.
        -11    1    1    2    0    0 -0.19968636211E+02 -0.34443982442E+02  0.25479987620E+01  0.39895195904E+02  0.00000000000E+00 0.  1.
         11    1    1    2    0    0 -0.10120115900E+03 -0.18401558356E+03  0.25223446723E+03  0.32821583757E+03  0.00000000000E+00 0. -1.
</event>
<event>
 7    1  0.3151015E-009  0.1782486E+03  0.7561462E-02  0.1169509E+00
          2   -1    0    0  501    0  0.00000000000E+00  0.00000000000E+00  0.15645035899E+03  0.15645035899E+03  0.00000000000E+00 0. -1.
         -2   -1    0    0    0  501 -0.00000000000E+00 -0.00000000000E+00 -0.27487166363E+03  0.27487166363E+03  0.00000000000E+00 0.  1.
         25    2    1    2    0    0 -0.16989362820E+03  0.45881211045E+02 -0.48236530358E+02  0.22123406370E+03  0.12509523432E+03 0.  0.
          5    1    3    3  502    0 -0.69619397474E+02  0.10021346526E+02  0.41618598857E+02  0.81834394125E+02  0.41800000000E+01 0. -1.
         -5    1    3    3    0  502 -0.10027423073E+03  0.35859864520E+02 -0.89855129215E+02  0.13939966957E+03  0.41800000000E+01 0. -1.
        -11    1    1    2    0    0  0.60741827153E+02 -0.34141743208E+02 -0.72130045672E+02  0.10028943954E+03  0.00000000000E+00 0.  1.
         11    1    1    2    0    0  0.10915180105E+03 -0.11739467838E+02  0.19452713884E+01  0.10979851938E+03  0.00000000000E+00 0. -1.
</event>
<event>
 7    1  0.3151015E-009  0.1046008E+03  0.7561462E-02  0.1270908E+00
          1   -1    0    0  501    0  0.00000000000E+00  0.00000000000E+00  0.80409102318E+02  0.80409102318E+02  0.00000000000E+00 0.  1.
         -1   -1    0    0    0  501 -0.00000000000E+00 -0.00000000000E+00 -0.19016097861E+03  0.19016097861E+03  0.00000000000E+00 0. -1.
         25    2    1    2    0    0  0.23590463815E+02 -0.16956929679E+02 -0.11947931454E+03  0.17540483807E+03  0.12508998029E+03 0.  0.
          5    1    3    3  502    0  0.31721716656E+02 -0.61394819096E+02 -0.10853331206E+03  0.12873439069E+03  0.41800000000E+01 0. -1.
         -5    1    3    3    0  502 -0.81312528414E+01  0.44437889417E+02 -0.10946002479E+02  0.46670447383E+02  0.41800000000E+01 0. -1.
        -11    1    1    2    0    0 -0.40920123738E+02  0.45509353817E+02  0.79873225874E+01  0.61719973540E+02  0.00000000000E+00 0.  1.
         11    1    1    2    0    0  0.17329659923E+02 -0.28552424139E+02  0.17401156580E+01  0.33445269318E+02  0.00000000000E+00 0. -1.
</event>
<event>
 7    1  0.3151015E-009  0.1616486E+03  0.7561462E-02  0.1186848E+00
          1   -1    0    0  501    0  0.00000000000E+00  0.00000000000E+00  0.21488502880E+03  0.21488502880E+03  0.00000000000E+00 0. -1.
         -1   -1    0    0    0  501 -0.00000000000E+00 -0.00000000000E+00 -0.12630863557E+03  0.12630863557E+03  0.00000000000E+00 0.  1.
         25    2    1    2    0    0 -0.52196107907E+02  0.10766839453E+03  0.17760051768E+02  0.17402231367E+03  0.12510567275E+03 0.  0.
          5    1    3    3  502    0  0.10030312994E+02  0.10982003990E+03  0.16675653089E+02  0.11160913111E+03  0.41800000000E+01 0. -1.
         -5    1    3    3    0  502 -0.62226420901E+02 -0.21516453709E+01  0.10843986783E+01  0.62413182554E+02  0.41800000000E+01 0. -1.
        -11    1    1    2    0    0 -0.26123486001E+02 -0.19449748097E+02  0.80688313694E+01  0.33553468697E+02  0.00000000000E+00 0.  1.
         11    1    1    2    0    0  0.78319593909E+02 -0.88218646428E+02  0.62747510097E+02  0.13361788200E+03  0.00000000000E+00 0. -1.
</event>
<event>
 7    1  0.3151015E-009  0.1805993E+03  0.7561462E-02  0.1167224E+00
         -2   -1    0    0    0  501 -0.00000000000E+00  0.00000000000E+00  0.40829894314E+02  0.40829894314E+02  0.00000000000E+00 0.  1.
          2   -1    0    0  501    0  0.00000000000E+00 -0.00000000000E+00 -0.11109118797E+04  0.11109118797E+04  0.00000000000E+00 0. -1.
         25    2    1    2    0    0  0.67533160940E+02  0.15565846861E+03 -0.37050587277E+03  0.42628000566E+03  0.12509898000E+03 0.  0.
          5    1    3    3  502    0  0.72918342149E+02  0.62098725709E+02 -0.93875420138E+02  0.13417676126E+03  0.41800000000E+01 0. -1.
         -5    1    3    3    0  502 -0.53851812090E+01  0.93559742902E+02 -0.27663045263E+03  0.29210324440E+03  0.41800000000E+01 0. -1.
        -11    1    1    2    0    0 -0.61477871670E+01 -0.41066673020E+02 -0.61027425795E+02  0.73814724948E+02  0.00000000000E+00 0.  1.
         11    1    1    2    0    0 -0.61385373773E+02 -0.11459179559E+03 -0.63854868679E+03  0.65164704337E+03  0.00000000000E+00 0. -1.
</event>
<event>
 7    1  0.3151015E-009  0.1133682E+03  0.7561462E-02  0.1254457E+00
          2   -1    0    0  501    0  0.00000000000E+00  0.00000000000E+00  0.33732662577E+03  0.33732662577E+03  0.00000000000E+00 0. -1.
         -2   -1    0    0    0  501 -0.00000000000E+00 -0.00000000000E+00 -0.49300555897E+02  0.49300555897E+02  0.00000000000E+00 0.  1.
         25    2    1    2    0    0  0.44857681265E+02  0.98453272648E+01  0.76734677051E+02  0.15376337476E+03  0.12508326315E+03 0.  0.
          5    1    3    3  502    0  0.86258325968E+02  0.11630411600E+01  0.69028183538E+02  0.11056316740E+03  0.41800000000E+01 0. -1.
         -5    1    3    3    0  502 -0.41400644703E+02  0.86822861048E+01  0.77064935131E+01  0.43200207362E+02  0.41800000000E+01 0. -1.
        -11    1    1    2    0    0  0.18351307350E+02 -0.26742197731E+02  0.72442379641E+02  0.79371367563E+02  0.00000000000E+00 0.  1.
         11    1    1    2    0    0 -0.63208988615E+02  0.16896870466E+02  0.13884901318E+03  0.15349243934E+03  0.00000000000E+00 0. -1.
</event>
<event>
 7    1  0.3151015E-009  0.1001474E+03  0.7561462E-02  0.1279986E+00
         -1   -1    0    0    0  501 -0.00000000000E+00  0.00000000000E+00  0.44839347488E+02  0.44839347488E+02  0.00000000000E+00 0.  1.
          1   -1    0    0  501    0  0.00000000000E+00 -0.00000000000E+00 -0.35255124796E+03  0.35255124796E+03  0.00000000000E+00 0. -1.
         25    2    1    2    0    0 -0.45159790269E+02 -0.25543316596E+01 -0.75281669069E+02  0.15284191065E+03  0.12508952269E+03 0.  0.
          5    1    3    3  502    0  0.21655142487E+02 -0.44031662277E+02 -0.93342596503E+01  0.50123181087E+02  0.41800000000E+01 0. -1.
         -5    1    3    3    0  502 -0.66814932756E+02  0.41477330618E+02 -0.65947409419E+02  0.10271872956E+03  0.41800000000E+01 0. -1.
        -11    1    1    2    0    0  0.30002823816E+02 -0.26173024145E+02 -0.16454113695E+03  0.16928964049E+03  0.00000000000E+00 0.  1.
         11    1    1    2    0    0  0.15156966453E+02  0.28727355804E+02 -0.67889094453E+02  0.75259044302E+02  0.00000000000E+00 0. -1.
</event>
<event>
 7    1  0.3151015E-009  0.1092191E+03  0.7561462E-02  0.1262023E+00
          2   -1    0    0  501    0  0.00000000000E+00  0.00000000000E+00  0.42982845740E+02  0.42982845740E+02  0.00000000000E+00 0.  1.
         -2   -1    0    0    0  501 -0.00000000000E+00 -0.00000000000E+00 -0.36984513105E+03  0.36984513105E+03  0.00000000000E+00 0. -1.
         25    2    1    2    0    0 -0.61875050876E+02  0.17618832575E+02 -0.18563026163E+03  0.23290547022E+03  0.12508964323E+03 0.  0.
          5    1    3    3  502    0 -0.44538077099E+02 -0.51937594208E+02 -0.82928842552E+02  0.10759098164E+03  0.41800000000E+01 0. -1.
         -5    1    3    3    0  502 -0.17336973777E+02  0.69556426783E+02 -0.10270141908E+03  0.12531448857E+03  0.41800000000E+01 0. -1.
        -11    1    1    2    0    0  0.52570446711E+02  0.57965202428E+01 -0.20717128161E+02  0.56801856603E+02  0.00000000000E+00 0.  1.
         11    1    1    2    0    0  0.93046041648E+01 -0.23415352818E+02 -0.12051489552E+03  0.12312064997E+03  0.00000000000E+00 0. -1.
</event>
<event>
 7    1  0.3151015E-009  0.1331228E+03  0.7561462E-02  0.1222894E+00
          2   -1    0    0  501    0  0.00000000000E+00  0.00000000000E+00  0.68267702018E+03  0.68267702018E+03  0.00000000000E+00 0. -1.
         -2   -1    0    0    0  501 -0.00000000000E+00 -0.00000000000E+00 -0.31652795452E+02  0.31652795452E+02  0.00000000000E+00 0.  1.
         25    2    1    2    0    0 -0.84876360332E+02 -0.51891073467E+02  0.36241436450E+03  0.39608759409E+03  0.12507809781E+03 0.  0.
          5    1    3    3  502    0 -0.72168969740E+02  0.92956740846E+01  0.86305034585E+02  0.11296371605E+03  0.41800000000E+01 0. -1.
         -5    1    3    3    0  502 -0.12707390592E+02 -0.61186747552E+02  0.27610932991E+03  0.28312387804E+03  0.41800000000E+01 0. -1.
        -11    1    1    2    0    0  0.88606555210E+02  0.10564786267E+02  0.16125980155E+03  0.18430263137E+03  0.00000000000E+00 0. -1.
         11    1    1    2    0    0 -0.37301948780E+01  0.41326287200E+02  0.12735005868E+03  0.13393959017E+03  0.00000000000E+00 0.  1.
</event>
<event>
 7    1  0.3151015E-009  0.8702925E+02  0.7561462E-02  0.1310210E+00
          3   -1    0    0  501    0  0.00000000000E+00  0.00000000000E+00  0.29919449001E+03  0.29919449001E+03  0.00000000000E+00 0. -1.
         -3   -1    0    0    0  501 -0.00000000000E+00 -0.00000000000E+00 -0.63168816267E+02  0.63168816267E+02  0.00000000000E+00 0.  1.
         25    2    1    2    0    0 -0.29498731470E+02 -0.49762844462E+02  0.45547595759E+02  0.14514889406E+03  0.12508837723E+03 0.  0.
          5    1    3    3  502    0 -0.33210130651E+02 -0.13532464722E+02 -0.38908958049E+02  0.53079372601E+02  0.41800000000E+01 0.  1.
         -5    1    3    3    0  502  0.37113991808E+01 -0.36230379740E+02  0.84456553808E+02  0.92069521455E+02  0.41800000000E+01 0.  1.
        -11    1    1    2    0    0  0.49736077073E+02  0.60553562669E+02  0.16658711651E+03  0.18409692746E+03  0.00000000000E+00 0. -1.
         11    1    1    2    0    0 -0.20237345603E+02 -0.10790718207E+02  0.23890961477E+02  0.33117484759E+02  0.00000000000E+00 0.  1.
</event>
<event>
 7    1  0.3151015E-009  0.1651472E+03  0.7561462E-02  0.1183005E+00
         -1   -1    0    0    0  501 -0.00000000000E+00  0.00000000000E+00  0.16923344218E+03  0.16923344218E+03  0.00000000000E+00 0. -1.
          1   -1    0    0  501    0  0.00000000000E+00 -0.00000000000E+00 -0.28480607210E+03  0.28480607210E+03  0.00000000000E+00 0.  1.
         25    2    1    2    0    0  0.12338295589E+03  0.67854129030E+02  0.72908737326E+02  0.20196728373E+03  0.12509021979E+03 0.  0.
          5    1    3    3  502    0 -0.23386612031E+02 -0.50334267835E+01  0.68456107697E+01  0.25231008586E+02  0.41800000000E+01 0. -1.
         -5    1    3    3    0  502  0.14676956792E+03  0.72887555814E+02  0.66063126557E+02  0.17673627514E+03  0.41800000000E+01 0. -1.
        -11    1    1    2    0    0 -0.29786392324E+02 -0.74986556042E+01  0.26829990356E+01  0.30832734024E+02  0.00000000000E+00 0. -1.
         11    1    1    2    0    0 -0.93596563570E+02 -0.60355473426E+02 -0.19116436628E+03  0.22123949652E+03  0.00000000000E+00 0.  1.
</event>
<event>
 7    1  0.3151015E-009  0.2805376E+03  0.7561462E-02  0.1095396E+00
         -2   -1    0    0    0  501 -0.00000000000E+00  0.00000000000E+00  0.66051002028E+02  0.66051002028E+02  0.00000000000E+00 0.  1.
          2   -1    0    0  501    0  0.00000000000E+00 -0.00000000000E+00 -0.14902369267E+04  0.14902369267E+04  0.00000000000E+00 0. -1.
         25    2    1    2    0    0 -0.27267207277E+03 -0.46364712231E+01 -0.45268042349E+03  0.54308182237E+03  0.12508694512E+03 0.  0.
          5    1    3    3  502    0 -0.16184280830E+03 -0.12118302041E+02 -0.37152760409E+03  0.40545058989E+03  0.41800000000E+01 0.  1.
         -5    1    3    3    0  502 -0.11082926448E+03  0.74818308177E+01 -0.81152819401E+02  0.13763123248E+03  0.41800000000E+01 0.  1.
        -11    1    1    2    0    0  0.27048946151E+03 -0.12029790661E+02 -0.90744427393E+03  0.94697643843E+03  0.00000000000E+00 0.  1.
         11    1    1    2    0    0  0.21826112616E+01  0.16666261884E+02 -0.64061227233E+02  0.66229667912E+02  0.00000000000E+00 0. -1.
</event>
<event>
 7    1  0.3151015E-009  0.9378368E+02  0.7561462E-02  0.1293939E+00
          1   -1    0    0  501    0  0.00000000000E+00  0.00000000000E+00  0.13862101309E+03  0.13862101309E+03  0.00000000000E+00 0. -1.
         -1   -1    0    0    0  501 -0.00000000000E+00 -0.00000000000E+00 -0.87447349727E+02  0.87447349727E+02  0.00000000000E+00 0.  1.
         25    2    1    2    0    0 -0.13391824962E+02 -0.10145369151E+02  0.18965917535E+02  0.12762342199E+03  0.12508302171E+03 0.  0.
          5    1    3    3  502    0  0.49778065697E+02  0.28006751235E+01  0.34983896480E+02  0.61049529225E+02  0.41800000000E+01 0. -1.
         -5    1    3    3    0  502 -0.63169890658E+02 -0.12946044274E+02 -0.16017978946E+02  0.66573892763E+02  0.41800000000E+01 0. -1.
        -11    1    1    2    0    0 -0.27904972365E+02  0.14401252200E+02  0.45116402036E+02  0.54968839176E+02  0.00000000000E+00 0. -1.
         11    1    1    2    0    0  0.41296797327E+02 -0.42558830490E+01 -0.12908656207E+02  0.43476101654E+02  0.00000000000E+00 0.  1.
</event>
<event>
 7    1  0.3151015E-009  0.1297435E+03  0.7561462E-02  0.1227837E+00
          1   -1    0    0  501    0  0.00000000000E+00  0.00000000000E+00  0.66855694285E+03  0.66855694285E+03  0.00000000000E+00 0. -1.
         -1   -1    0    0    0  501 -0.00000000000E+00 -0.00000000000E+00 -0.27353019359E+02  0.27353019359E+02  0.00000000000E+00 0.  1.
         25    2    1    2    0    0  0.16939734110E+00 -0.77569435823E+02  0.40392006902E+03  0.42990184980E+03  0.12508849762E+03 0.  0.
          5    1    3    3  502    0 -0.51875393302E+02 -0.75054169129E+01  0.22119777810E+03  0.22736164397E+03  0.41800000000E+01 0. -1.
         -5    1    3    3    0  502  0.52044790643E+02 -0.70064018910E+02  0.18272229092E+03  0.20254020583E+03  0.41800000000E+01 0. -1.
        -11    1    1    2    0    0  0.45350621630E+02  0.40987533199E+02  0.10689184257E+03  0.12313619601E+03  0.00000000000E+00 0.  1.
         11    1    1    2    0    0 -0.45520018971E+02  0.36581902624E+02  0.13039201190E+03  0.14287191639E+03  0.00000000000E+00 0. -1.
</event>
<event>
 7    1  0.3151015E-009  0.1093255E+03  0.7561462E-02  0.1261824E+00
          1   -1    0    0  501    0  0.00000000000E+00  0.00000000000E+00  0.90940383490E+02  0.90940383490E+02  0.00000000000E+00 0. -1.
         -1   -1    0    0    0  501 -0.00000000000E+00 -0.00000000000E+00 -0.13302478681E+03  0.13302478681E+03  0.00000000000E+00 0.  1.
         25    2    1    2    0    0  0.13522832131E+02 -0.48752993058E+01 -0.18606124472E+02  0.12728070041E+03  0.12509018066E+03 0.  0.
          5    1    3    3  502    0 -0.16747185451E+01  0.59310244228E+02 -0.13482782248E+02  0.60989897276E+02  0.41800000000E+01 0. -1.
         -5    1    3    3    0  502  0.15197550677E+02 -0.64185543534E+02 -0.51233422239E+01  0.66290803139E+02  0.41800000000E+01 0. -1.
        -11    1    1    2    0    0  0.33811236740E+02 -0.20328146191E+02 -0.15859812337E+02  0.42520194083E+02  0.00000000000E+00 0.  1.
         11    1    1    2    0    0 -0.47334068872E+02  0.25203445497E+02 -0.76184665078E+01  0.54164275799E+02  0.00000000000E+00 0. -1.
</event>
<event>
 7    1  0.3151015E-009  0.1019348E+03  0.7561462E-02  0.1276279E+00
          2   -1    0    0  501    0  0.00000000000E+00  0.00000000000E+00  0.37353488985E+03  0.37353488985E+03  0.00000000000E+00 0. -1.
         -2   -1    0    0    0  501 -0.00000000000E+00 -0.00000000000E+00 -0.37404976703E+02  0.37404976703E+02  0.00000000000E+00 0.  1.
         25    2    1    2    0    0 -0.26531715626E+02  0.37957428587E+02  0.18463976023E+03  0.22777981468E+03  0.12508838715E+03 0.  0.
          5    1    3    3  502    0  0.13120932929E+02  0.74083236504E+02  0.78681900138E+02  0.10894401600E+03  0.41800000000E+01 0.  1.
         -5    1    3    3    0  502 -0.39652648554E+02 -0.36125807916E+02  0.10595786009E+03  0.11883579869E+03  0.41800000000E+01 0.  1.
        -11    1    1    2    0    0  0.45396668370E+02 -0.24979132502E+02  0.15165386144E+03  0.16026137479E+03  0.00000000000E+00 0. -1.
         11    1    1    2    0    0 -0.18864952745E+02 -0.12978296085E+02 -0.16370852601E+00  0.22898677076E+02  0.00000000000E+00 0.  1.
</event>
<event>
 7    1  0.3151015E-009  0.1474262E+03  0.7561462E-02  0.1203672E+00
          1   -1    0    0  501    0  0.00000000000E+00  0.00000000000E+00  0.15596720081E+03  0.15596720081E+03  0.00000000000E+00 0. -1.
         -1   -1    0    0    0  501 -0.00000000000E+00 -0.00000000000E+00 -0.19675204632E+03  0.19675204632E+03  0.00000000000E+00 0.  1.
         25    2    1    2    0    0  0.10800683101E+03  0.74548655793E+02 -0.62710491348E+02  0.19184146314E+03  0.12509022196E+03 0.  0.
          5    1    3    3  502    0  0.67288883546E+02  0.10207821285E+02  0.27670892699E+02  0.73587663145E+02  0.41800000000E+01 0.  1.
         -5    1    3    3    0  502  0.40717947461E+02  0.64340834508E+02 -0.90381384048E+02  0.11825379999E+03  0.41800000000E+01 0.  1.
        -11    1    1    2    0    0 -0.35320755302E+02 -0.68994879487E+02 -0.15329556623E+02  0.79011672915E+02  0.00000000000E+00 0.  1.
         11    1    1    2    0    0 -0.72686075706E+02 -0.55537763059E+01  0.37255202466E+02  0.81866111081E+02  0.00000000000E+00 0. -1.
</event>
<event>
 7    1  0.3151015E-009  0.1233589E+03  0.7561462E-02  0.1237657E+00
          2   -1    0    0  501    0  0.00000000000E+00  0.00000000000E+00  0.55891816365E+02  0.55891816365E+02  0.00000000000E+00 0. -1.
         -2   -1    0    0    0  501 -0.00000000000E+00 -0.00000000000E+00 -0.27747194696E+03  0.27747194696E+03  0.00000000000E+00 0.  1.
         25    2    1    2    0    0 -0.46585569836E+02 -0.28100504769E+02 -0.12002218094E+03  0.18169418081E+03  0.12509035828E+03 0.  0.
          5    1    3    3  502    0 -0.60055384983E+02 -0.69279698114E+02 -0.70296549124E+02  0.11560883641E+03  0.41800000000E+01 0. -1.
         -5    1    3    3    0  502  0.13469815148E+02  0.41179193345E+02 -0.49725631820E+02  0.66085344400E+02  0.41800000000E+01 0. -1.
        -11    1    1    2    0    0  0.74770729823E+02  0.49487427920E+01 -0.78468515452E+02  0.10850096779E+03  0.00000000000E+00 0.  1.
         11    1    1    2    0    0 -0.28185159987E+02  0.23151761977E+02 -0.23089434196E+02  0.43168614729E+02  0.00000000000E+00 0. -1.
</event>
<event>
 7    1  0.3151015E-009  0.9388679E+02  0.7561462E-02  0.1293703E+00
          1   -1    0    0  501    0  0.00000000000E+00  0.00000000000E+00  0.25570292070E+03  0.25570292070E+03  0.00000000000E+00 0. -1.
         -1   -1    0    0    0  501 -0.00000000000E+00 -0.00000000000E+00 -0.75480507701E+02  0.75480507701E+02  0.00000000000E+00 0.  1.
         25    2    1    2    0    0 -0.14860059189E+02  0.13708475607E+01  0.89962372556E+01  0.12630327387E+03  0.12509550002E+03 0.  0.
          5    1    3    3  502    0 -0.52661437898E+02 -0.25458918905E+02 -0.29737802930E+02  0.65750991753E+02  0.41800000000E+01 0.  1.
         -5    1    3    3    0  502  0.37801378710E+02  0.26829766466E+02  0.38734040186E+02  0.60552282121E+02  0.41800000000E+01 0.  1.
        -11    1    1    2    0    0 -0.32916551269E+02 -0.91927952094E+01  0.14666359355E+03  0.15059288331E+03  0.00000000000E+00 0. -1.
         11    1    1    2    0    0  0.47776610458E+02  0.78219476488E+01  0.24562582193E+02  0.54287271214E+02  0.00000000000E+00 0.  1.
</event>
<event>
 7    1  0.3151015E-009  0.1162647E+03  0.7561462E-02  0.1249390E+00
         -2   -1    0    0    0  501 -0.00000000000E+00  0.00000000000E+00  0.58492068676E+02  0.58492068676E+02  0.00000000000E+00 0.  1.
          2   -1    0    0  501    0  0.00000000000E+00 -0.00000000000E+00 -0.42895358618E+03  0.42895358618E+03  0.00000000000E+00 0. -1.
         25    2    1    2    0    0 -0.81669799233E+02  0.49696859773E+02 -0.27957301445E+03  0.32085563782E+03  0.12509011127E+03 0.  0.
          5    1    3    3  502    0 -0.47510191185E+02  0.77437413414E+02 -0.25399371788E+03  0.26978519675E+03  0.41800000000E+01 0.  1.
         -5    1    3    3    0  502 -0.34159608047E+02 -0.27740553641E+02 -0.25579296563E+02  0.51070441068E+02  0.41800000000E+01 0.  1.
        -11    1    1    2    0    0  0.51525615896E+02 -0.41449078548E+02 -0.11115763252E+03  0.12934038222E+03  0.00000000000E+00 0. -1.
         11    1    1    2    0    0  0.30144183336E+02 -0.82477812253E+01  0.20269129465E+02  0.37249634809E+02  0.00000000000E+00 0.  1.
</event>
<event>
 7    1  0.3151015E-009  0.1678060E+03  0.7561462E-02  0.1180155E+00
          2   -1    0    0  501    0  0.00000000000E+00  0.00000000000E+00  0.90074456933E+02  0.90074456933E+02  0.00000000000E+00 0. -1.
         -2   -1    0    0    0  501 -0.00000000000E+00 -0.00000000000E+00 -0.51358927815E+03  0.51358927815E+03  0.00000000000E+00 0.  1.
         25    2    1    2    0    0  0.13897634684E+03  0.30337078122E+02 -0.37039745450E+03  0.41602572411E+03  0.12509342721E+03 0.  0.
          5    1    3    3  502    0  0.14553356806E+03  0.16461378301E+02 -0.21717496692E+03  0.26197983713E+03  0.41800000000E+01 0.  1.
         -5    1    3    3    0  502 -0.65572212110E+01  0.13875699822E+02 -0.15322248758E+03  0.15404588698E+03  0.41800000000E+01 0.  1.
        -11    1    1    2    0    0 -0.15399799097E+03 -0.34035918645E+02 -0.62384510391E+02  0.16960439887E+03  0.00000000000E+00 0.  1.
         11    1    1    2    0    0  0.15021644125E+02  0.36988405224E+01  0.92671436737E+01  0.18033612098E+02  0.00000000000E+00 0. -1.
</event>
<event>
 7    1  0.3151015E-009  0.1876644E+03  0.7561462E-02  0.1160585E+00
         -3   -1    0    0    0  501 -0.00000000000E+00  0.00000000000E+00  0.15164260850E+03  0.15164260850E+03  0.00000000000E+00 0.  1.
          3   -1    0    0  501    0  0.00000000000E+00 -0.00000000000E+00 -0.24144037003E+03  0.24144037003E+03  0.00000000000E+00 0. -1.
         25    2    1    2    0    0 -0.15468140404E+03  0.23203172092E+02 -0.49714156323E+02  0.20635554896E+03  0.12508553593E+03 0.  0.
          5    1    3    3  502    0 -0.15605974458E+02  0.49934527021E+02  0.85232171698E+01  0.53170678560E+02  0.41800000000E+01 0.  1.
         -5    1    3    3    0  502 -0.13907542958E+03 -0.26731354929E+02 -0.58237373493E+02  0.15318487040E+03  0.41800000000E+01 0.  1.
        -11    1    1    2    0    0  0.42649837872E+02 -0.50253187000E+02 -0.24998863472E+02  0.70493507850E+02  0.00000000000E+00 0.  1.
         11    1    1    2    0    0  0.11203156617E+03  0.27050014908E+02 -0.15084741736E+02  0.11623392172E+03  0.00000000000E+00 0. -1.
</event>
<event>
 7    1  0.6883228E-009  0.1378285E+03  0.7561462E-02  0.1216281E+00
          1   -1    0    0  501    0  0.00000000000E+00  0.00000000000E+00  0.13828646690E+04  0.13828646690E+04  0.00000000000E+00 0. -1.
         -1   -1    0    0    0  501 -0.00000000000E+00 -0.00000000000E+00 -0.14880968776E+02  0.14880968776E+02  0.00000000000E+00 0.  1.
         25    2    1    2    0    0 -0.92436906920E+02  0.29837532233E+01  0.80734056708E+03  0.82219243874E+03  0.12509248787E+03 0.  0.
          5    1    3    3  502    0  0.97342684316E+01  0.38388393694E+02  0.12129856137E+03  0.12766846965E+03  0.41800000000E+01 0. -1.
         -5    1    3    3    0  502 -0.10217117535E+03 -0.35404640471E+02  0.68604200572E+03  0.69452396910E+03  0.41800000000E+01 0. -1.
        -11    1    1    2    0    0  0.36578991909E+02  0.42149303980E+02  0.30261752198E+03  0.30772057306E+03  0.00000000000E+00 0. -1.
         11    1    1    2    0    0  0.55857915011E+02 -0.45133057204E+02  0.25802561117E+03  0.26783262599E+03  0.00000000000E+00 0.  1.
</event>
<event>
 7    1  0.3151015E-009  0.1301795E+03  0.7561462E-02  0.1227190E+00
          1   -1    0    0  501    0  0.00000000000E+00  0.00000000000E+00  0.46758466601E+02  0.46758466601E+02  0.00000000000E+00 0. -1.
         -1   -1    0    0    0  501 -0.00000000000E+00 -0.00000000000E+00 -0.39982395153E+03  0.39982395153E+03  0.00000000000E+00 0.  1.
         25    2    1    2    0    0 -0.51550675674E+02  0.65704077869E+02 -0.19781458570E+03  0.24849952101E+03  0.12508758378E+03 0.  0.
          5    1    3    3  502    0 -0.65702998862E+02  0.95730506843E+02 -0.14259015850E+03  0.18393107323E+03  0.41800000000E+01 0. -1.
         -5    1    3    3    0  502  0.14152323188E+02 -0.30026428974E+02 -0.55224427207E+02  0.64568447781E+02  0.41800000000E+01 0. -1.
        -11    1    1    2    0    0  0.42855781754E+02  0.15702916022E+01 -0.10573040772E+03  0.11409646341E+03  0.00000000000E+00 0.  1.
         11    1    1    2    0    0  0.86948939205E+01 -0.67274369471E+02 -0.49520491499E+02  0.83986433704E+02  0.00000000000E+00 0. -1.
</event>
<event>
 7    1  0.3151015E-009  0.1990102E+03  0.7561462E-02  0.1150577E+00
          1   -1    0    0  501    0  0.00000000000E+00  0.00000000000E+00  0.14639312551E+04  0.14639312551E+04  0.00000000000E+00 0. -1.
         -1   -1    0    0    0  501 -0.00000000000E+00 -0.00000000000E+00 -0.31986226144E+02  0.31986226144E+02  0.00000000000E+00 0.  1.
         25    2    1    2    0    0  0.17917176954E+03 -0.82390417950E+01  0.93696794023E+03  0.96214731337E+03  0.12509247298E+03 0.  0.
          5    1    3    3  502    0 -0.71788014673E+00  0.32897952722E+02  0.11360667820E+03  0.11835007552E+03  0.41800000000E+01 0.  1.
         -5    1    3    3    0  502  0.17988964968E+03 -0.41136994517E+02  0.82336126203E+03  0.84379723784E+03  0.41800000000E+01 0.  1.
        -11    1    1    2    0    0 -0.38207892434E+02 -0.56487675677E+01  0.33779276145E+02  0.51310731004E+02  0.00000000000E+00 0.  1.
         11    1    1    2    0    0 -0.14096387710E+03  0.13887809363E+02  0.46119781260E+03  0.48245943689E+03  0.00000000000E+00 0. -1.
</event>
<event>
 7    1  0.3151015E-009  0.4502178E+03  0.7561462E-02  0.1027657E+00
         -1   -1    0    0    0  501 -0.00000000000E+00  0.00000000000E+00  0.27502540633E+03  0.27502540633E+03  0.00000000000E+00 0.  1.
          1   -1    0    0  501    0  0.00000000000E+00 -0.00000000000E+00 -0.83991477978E+03  0.83991477978E+03  0.00000000000E+00 0. -1.
         25    2    1    2    0    0 -0.98590134734E+02 -0.43472681490E+03 -0.45049891625E+03  0.64599137416E+03  0.12509262041E+03 0.  0.
          5    1    3    3  502    0 -0.36144697933E+02 -0.10006458576E+03 -0.42613970282E+02  0.11468558486E+03  0.41800000000E+01 0.  1.
         -5    1    3    3    0  502 -0.62445436801E+02 -0.33466222914E+03 -0.40788494597E+03  0.53130578930E+03  0.41800000000E+01 0.  1.
        -11    1    1    2    0    0 -0.14784130014E+02  0.70474322612E+02 -0.54711668636E+01  0.72215886858E+02  0.00000000000E+00 0.  1.
         11    1    1    2    0    0  0.11337426475E+03  0.36425249229E+03 -0.10891929034E+03  0.39673292510E+03  0.00000000000E+00 0. -1.
</event>
<event>
 7    1  0.3151015E-009  0.8849822E+02  0.7561462E-02  0.1306530E+00
         -1   -1    0    0    0  501 -0.00000000000E+00  0.00000000000E+00  0.38991216201E+02  0.38991216201E+02  0.00000000000E+00 0.  1.
          1   -1    0    0  501    0  0.00000000000E+00 -0.00000000000E+00 -0.30795455185E+03  0.30795455185E+03  0.00000000000E+00 0. -1.
         25    2    1    2    0    0  0.17754523127E+02 -0.10527332778E+02 -0.14746339549E+03  0.19446705147E+03  0.12508370507E+03 0.  0.
          5    1    3    3  502    0  0.48835151233E+02 -0.53725153699E+02 -0.75050673702E+02  0.10450521594E+03  0.41800000000E+01 0.  1.
         -5    1    3    3    0  502 -0.31080628106E+02  0.43197820921E+02 -0.72412721786E+02  0.89961835532E+02  0.41800000000E+01 0.  1.
        -11    1    1    2    0    0 -0.40759045912E+01  0.28228552094E+02  0.41905726024E+00  0.28524371344E+02  0.00000000000E+00 0.  1.
         11    1    1    2    0    0 -0.13678618536E+02 -0.17701219316E+02 -0.12191899742E+03  0.12395434523E+03  0.00000000000E+00 0. -1.
</event>
<event>
 7    1  0.3151015E-009  0.2328635E+03  0.7561462E-02  0.1124640E+00
          3   -1    0    0  501    0  0.00000000000E+00  0.00000000000E+00  0.93553964065E+03  0.93553964065E+03  0.00000000000E+00 0. -1.
         -3   -1    0    0    0  501 -0.00000000000E+00 -0.00000000000E+00 -0.72053005526E+02  0.72053005526E+02  0.00000000000E+00 0.  1.
         25    2    1    2    0    0 -0.71027197292E+02  0.19661132094E+03  0.23331803220E+03  0.33732303530E+03  0.12509457110E+03 0.  0.
          5    1    3    3  502    0 -0.97428763068E+02  0.10138022004E+03  0.16644873974E+03  0.21792881464E+03  0.41800000000E+01 0.  1.
         -5    1    3    3    0  502  0.26401565775E+02  0.95231100905E+02  0.66869292456E+02  0.11939422067E+03  0.41800000000E+01 0.  1.
        -11    1    1    2    0    0  0.90421349626E+02 -0.14357794448E+03  0.42933302794E+03  0.46164650490E+03  0.00000000000E+00 0.  1.
         11    1    1    2    0    0 -0.19394152334E+02 -0.53033376467E+02  0.20083557499E+03  0.20862310597E+03  0.00000000000E+00 0. -1.
</event>
<event>
 7    1  0.3151015E-009  0.1204644E+03  0.7561462E-02  0.1242333E+00
          2   -1    0    0  501    0  0.00000000000E+00  0.00000000000E+00  0.43546243526E+03  0.43546243526E+03  0.00000000000E+00 0.  1.
         -2   -1    0    0    0  501 -0.00000000000E+00 -0.00000000000E+00 -0.52502854375E+02  0.52502854375E+02  0.00000000000E+00 0. -1.
         25    2    1    2    0    0 -0.46305704662E+02  0.17282154069E+02  0.32940818363E+03  0.35580832661E+03  0.12508766010E+03 0.  0.
          5    1    3    3  502    0 -0.16303343033E+02 -0.49297609150E+02  0.20476461199E+03  0.21128670565E+03  0.41800000000E+01 0.  1.
         -5    1    3    3    0  502 -0.30002361629E+02  0.66579763219E+02  0.12464357164E+03  0.14452162096E+03  0.41800000000E+01 0.  1.
        -11    1    1    2    0    0  0.56732615311E+02 -0.53513195798E+02  0.53285943661E+02  0.94454452285E+02  0.00000000000E+00 0.  1.
         11    1    1    2    0    0 -0.10426910649E+02  0.36231041729E+02  0.26545359479E+00  0.37702510740E+02  0.00000000000E+00 0. -1.
</event>
<event>
 7    1  0.3151015E-009  0.1282925E+03  0.7561462E-02  0.1230012E+00
          2   -1    0    0  501    0  0.00000000000E+00  0.00000000000E+00  0.99846933723E+03  0.99846933723E+03  0.00000000000E+00 0. -1.
         -2   -1    0    0    0  501 -0.00000000000E+00 -0.00000000000E+00 -0.24107905691E+02  0.24107905691E+02  0.00000000000E+00 0.  1.
         25    2    1    2    0    0 -0.20522939019E+02 -0.74883578896E+02  0.78648160720E+03  0.80014359403E+03  0.12509081178E+03 0.  0.
          5    1    3    3  502    0 -0.43207816529E+02 -0.10099965681E+03  0.52791946438E+03  0.53924417415E+03  0.41800000000E+01 0.  1.
         -5    1    3    3    0  502  0.22684877511E+02  0.26116077917E+02  0.25856214282E+03  0.26089941988E+03  0.41800000000E+01 0.  1.
        -11    1    1    2    0    0  0.46449091311E+02  0.72053050027E+02  0.17123191966E+03  0.19149289912E+03  0.00000000000E+00 0. -1.
         11    1    1    2    0    0 -0.25926152292E+02  0.28305288694E+01  0.16647904678E+02  0.30940749773E+02  0.00000000000E+00 0.  1.
</event>
<event>
 7    1  0.3151015E-009  0.6036039E+02  0.7561462E-02  0.1396326E+00
         -1   -1    0    0    0  501 -0.00000000000E+00  0.00000000000E+00  0.16986801554E+03  0.16986801554E+03  0.00000000000E+00 0.  1.
          1   -1    0    0  501    0  0.00000000000E+00 -0.00000000000E+00 -0.81124102635E+02  0.81124102635E+02  0.00000000000E+00 0. -1.
         25    2    1    2    0    0 -0.29603939695E+01 -0.46042421236E+02  0.55471626073E+02  0.14440682432E+03  0.12509021195E+03 0.  0.
          5    1    3    3  502    0  0.40063365133E+01 -0.52060963732E+02  0.92347819911E+02  0.10616961392E+03  0.41800000000E+01 0. -1.
         -5    1    3    3    0  502 -0.69667304828E+01  0.60185424961E+01 -0.36876193839E+02  0.38237210403E+02  0.41800000000E+01 0. -1.
        -11    1    1    2    0    0  0.19073099984E+02  0.20265042356E+02 -0.27192676290E+02  0.38908825843E+02  0.00000000000E+00 0. -1.
         11    1    1    2    0    0 -0.16112706014E+02  0.25777378880E+02  0.60464963126E+02  0.67676468014E+02  0.00000000000E+00 0.  1.
</event>
<event>
 7    1  0.3151015E-009  0.1181950E+03  0.7561462E-02  0.1246105E+00
          1   -1    0    0  501    0  0.00000000000E+00  0.00000000000E+00  0.76793914715E+03  0.76793914715E+03  0.00000000000E+00 0. -1.
         -1   -1    0    0    0  501 -0.00000000000E+00 -0.00000000000E+00 -0.24526108909E+02  0.24526108909E+02  0.00000000000E+00 0.  1.
         25    2    1    2    0    0 -0.81084510913E+02  0.22725157485E+02  0.38319371365E+03  0.41179409248E+03  0.12508325919E+03 0.  0.
          5    1    3    3  502    0 -0.33010697453E+02 -0.44825264199E+02  0.80781299607E+02  0.98194201575E+02  0.41800000000E+01 0.  1.
         -5    1    3    3    0  502 -0.48073813460E+02  0.67550421684E+02  0.30241241404E+03  0.31359989091E+03  0.41800000000E+01 0.  1.
        -11    1    1    2    0    0  0.64384060275E+02 -0.38130485199E+02  0.34570403800E+03  0.35370965920E+03  0.00000000000E+00 0. -1.
         11    1    1    2    0    0  0.16700450639E+02  0.15405327714E+02  0.14515286589E+02  0.26961504377E+02  0.00000000000E+00 0.  1.
</event>
<event>
 7    1  0.3421024E-009  0.1313387E+03  0.7561462E-02  0.1225483E+00
         -1   -1    0    0    0  501 -0.00000000000E+00  0.00000000000E+00  0.30146859738E+02  0.30146859738E+02  0.00000000000E+00 0.  1.
          1   -1    0    0  501    0  0.00000000000E+00 -0.00000000000E+00 -0.75947119460E+03  0.75947119460E+03  0.00000000000E+00 0. -1.
         25    2    1    2    0    0 -0.44566603627E+02 -0.86709998635E+02 -0.29155736944E+03  0.33190125332E+03  0.12509171137E+03 0.  0.
          5    1    3    3  502    0  0.41682621532E+02 -0.10125900782E+02 -0.74670778669E+02  0.86215847681E+02  0.41800000000E+01 0.  1.
         -5    1    3    3    0  502 -0.86249225159E+02 -0.76584097854E+02 -0.21688659078E+03  0.24568540564E+03  0.41800000000E+01 0.  1.
        -11    1    1    2    0    0 -0.36607593523E+01  0.27741439522E+02 -0.23608959063E+02  0.36611085395E+02  0.00000000000E+00 0.  1.
         11    1    1    2    0    0  0.48227362979E+02  0.58968559113E+02 -0.41415800636E+03  0.42110571563E+03  0.00000000000E+00 0. -1.
</event>
<event>
 7    1  0.3151015E-009  0.1285306E+03  0.7561462E-02  0.1229652E+00
          2   -1    0    0  501    0  0.00000000000E+00  0.00000000000E+00  0.16784278680E+03  0.16784278680E+03  0.00000000000E+00 0. -1.
         -2   -1    0    0    0  501 -0.00000000000E+00 -0.00000000000E+00 -0.12484814984E+03  0.12484814984E+03  0.00000000000E+00 0.  1.
         25    2    1    2    0    0  0.76504089051E+02 -0.46617266877E+02  0.55952600546E+02  0.16372043225E+03  0.12509053208E+03 0.  0.
          5    1    3    3  502    0  0.79019325510E+02 -0.83379728376E+02  0.52814188641E+02  0.12650313763E+03  0.41800000000E+01 0. -1.
         -5    1    3    3    0  502 -0.25152364589E+01  0.36762461499E+02  0.31384119049E+01  0.37217294625E+02  0.41800000000E+01 0. -1.
        -11    1    1    2    0    0 -0.45555819001E+02  0.56462700533E+02 -0.43331101803E+02  0.84504163092E+02  0.00000000000E+00 0.  1.
         11    1    1    2    0    0 -0.30948270050E+02 -0.98454336562E+01  0.30373138212E+02  0.44466341291E+02  0.00000000000E+00 0. -1.
</event>
<event>
 7    1  0.3151015E-009  0.8667936E+02  0.7561462E-02  0.1311098E+00
          1   -1    0    0  501    0  0.00000000000E+00  0.00000000000E+00  0.16357142484E+03  0.16357142484E+03  0.00000000000E+00 0. -1.
         -1   -1    0    0    0  501 -0.00000000000E+00 -0.00000000000E+00 -0.78335424525E+02  0.78335424525E+02  0.00000000000E+00 0.  1.
         25    2    1    2    0    0 -0.41934069838E+01  0.31822648146E+01  0.13341858820E+02  0.12591338367E+03  0.12509381886E+03 0.  0.
          5    1    3    3  502    0  0.18154893661E+02 -0.52807991004E+02 -0.16689805239E+02  0.58432063772E+02  0.41800000000E+01 0. -1.
         -5    1    3    3    0  502 -0.22348300644E+02  0.55990255819E+02  0.30031664060E+02  0.67481319894E+02  0.41800000000E+01 0. -1.
        -11    1    1    2    0    0  0.21209697050E+02  0.19339557343E+02  0.81317553944E+02  0.86234646788E+02  0.00000000000E+00 0. -1.
         11    1    1    2    0    0 -0.17016290066E+02 -0.22521822158E+02 -0.94234124475E+01  0.29758818913E+02  0.00000000000E+00 0.  1.
</event>
<event>
 7    1  0.3151015E-009  0.1462060E+03  0.7561462E-02  0.1205214E+00
         -2   -1    0    0    0  501 -0.00000000000E+00  0.00000000000E+00  0.21068954457E+03  0.21068954457E+03  0.00000000000E+00 0.  1.
          2   -1    0    0  501    0  0.00000000000E+00 -0.00000000000E+00 -0.18130018909E+03  0.18130018909E+03  0.00000000000E+00 0. -1.
         25    2    1    2    0    0  0.54393027010E+02 -0.11076586216E+03 -0.88947791330E+02  0.19695121192E+03  0.12510152952E+03 0.  0.
          5    1    3    3  502    0  0.70685686173E+01 -0.12011790975E+03 -0.37043424800E+02  0.12596810956E+03  0.41800000000E+01 0.  1.
         -5    1    3    3    0  502  0.47324458392E+02  0.93520475876E+01 -0.51904366530E+02  0.70983102363E+02  0.41800000000E+01 0.  1.
        -11    1    1    2    0    0 -0.13464120385E+02  0.21129444289E+02 -0.15030221917E+02  0.29217178586E+02  0.00000000000E+00 0. -1.
         11    1    1    2    0    0 -0.40928906625E+02  0.89636417872E+02  0.13336736872E+03  0.16582134315E+03  0.00000000000E+00 0.  1.
</event>
<event>
 7    1  0.3151015E-009  0.6909594E+02  0.7561462E-02  0.1363195E+00
          2   -1    0    0  501    0  0.00000000000E+00  0.00000000000E+00  0.40422973079E+03  0.40422973079E+03  0.00000000000E+00 0. -1.
         -2   -1    0    0    0  501 -0.00000000000E+00 -0.00000000000E+00 -0.33182152180E+02  0.33182152180E+02  0.00000000000E+00 0.  1.
         25    2    1    2    0    0 -0.26419203959E+02 -0.30491742363E+02  0.21847563844E+03  0.25496467252E+03  0.12509060297E+03 0.  0.
          5    1    3    3  502    0  0.19130654265E+01 -0.22426332126E+02  0.22360409994E+03  0.22477292120E+03  0.41800000000E+01 0.  1.
         -5    1    3    3    0  502 -0.28332269386E+02 -0.80654102373E+01 -0.51284615002E+01  0.30191751327E+02  0.41800000000E+01 0.  1.
        -11    1    1    2    0    0  0.17782083142E+02  0.55926289749E+02  0.52194875633E+02  0.78538254426E+02  0.00000000000E+00 0.  1.
         11    1    1    2    0    0  0.86371208172E+01 -0.25434547386E+02  0.10037706454E+03  0.10390895602E+03  0.00000000000E+00 0. -1.
</event>
<event>
 7    1  0.3151015E-009  0.6534962E+02  0.7561462E-02  0.1376661E+00
          2   -1    0    0  501    0  0.00000000000E+00  0.00000000000E+00  0.36552689975E+03  0.36552689975E+03  0.00000000000E+00 0. -1.
         -2   -1    0    0    0  501 -0.00000000000E+00 -0.00000000000E+00 -0.32713451076E+02  0.32713451076E+02  0.00000000000E+00 0.  1.
         25    2    1    2    0    0  0.12332142367E+02  0.22682010712E+01  0.19529756512E+03  0.23226196893E+03  0.12508899552E+03 0.  0.
          5    1    3    3  502    0  0.29451830083E+02 -0.13543719440E+02 -0.27533471868E+01  0.32800852919E+02  0.41800000000E+01 0.  1.
         -5    1    3    3    0  502 -0.17119687715E+02  0.15811920511E+02  0.19805091230E+03  0.19946111602E+03  0.41800000000E+01 0.  1.
        -11    1    1    2    0    0  0.28992283296E+02  0.10888382382E+02  0.12054360521E+02  0.33232769508E+02  0.00000000000E+00 0.  1.
         11    1    1    2    0    0 -0.41324425664E+02 -0.13156583453E+02  0.12546152304E+03  0.13274561238E+03  0.00000000000E+00 0. -1.
</event>
<event>
 7    1  0.3151015E-009  0.8401036E+02  0.7561462E-02  0.1318041E+00
          2   -1    0    0  501    0  0.00000000000E+00  0.00000000000E+00  0.58012008202E+02  0.58012008202E+02  0.00000000000E+00 0. -1.
         -2   -1    0    0    0  501 -0.00000000000E+00 -0.00000000000E+00 -0.20906267155E+03  0.20906267155E+03  0.00000000000E+00 0.  1.
         25    2    1    2    0    0  0.95608411482E+01 -0.97613055521E+01 -0.82810269804E+02  0.15064215509E+03  0.12509526503E+03 0.  0.
          5    1    3    3  502    0 -0.49116525459E+02 -0.22959567605E+02 -0.86412020041E+01  0.55061035132E+02  0.41800000000E+01 0. -1.
         -5    1    3    3    0  502  0.58677366607E+02  0.13198262053E+02 -0.74169067800E+02  0.95581119953E+02  0.41800000000E+01 0. -1.
        -11    1    1    2    0    0 -0.17231670870E+02 -0.17782308597E+02 -0.81308811682E+02  0.84995669520E+02  0.00000000000E+00 0.  1.
         11    1    1    2    0    0  0.76708297220E+01  0.27543614150E+02  0.13068418137E+02  0.31436855149E+02  0.00000000000E+00 0. -1.
</event>
<event>
 7    1  0.3151015E-009  0.6658414E+02  0.7561462E-02  0.1372110E+00
          2   -1    0    0  501    0  0.00000000000E+00  0.00000000000E+00  0.66793374532E+03  0.66793374532E+03  0.00000000000E+00 0. -1.
         -2   -1    0    0    0  501 -0.00000000000E+00 -0.00000000000E+00 -0.21903637069E+02  0.21903637069E+02  0.00000000000E+00 0.  1.
         25    2    1    2    0    0 -0.23586168810E+02 -0.32629910015E+02  0.26355028280E+03  0.29449558724E+03  0.12509149034E+03 0.  0.
          5    1    3    3  502    0 -0.17074221517E+02 -0.12835802558E+02  0.27107687717E+03  0.27194931992E+03  0.41800000000E+01 0. -1.
         -5    1    3    3    0  502 -0.65119472926E+01 -0.19794107457E+02 -0.75265943702E+01  0.22546267327E+02  0.41800000000E+01 0. -1.
        -11    1    1    2    0    0 -0.18053753527E+02 -0.17389237998E+02  0.43801810502E+02  0.50467040906E+02  0.00000000000E+00 0.  1.
         11    1    1    2    0    0  0.41639922337E+02  0.50019148013E+02  0.33867801495E+03  0.34487475424E+03  0.00000000000E+00 0. -1.
</event>
<event>
 7    1  0.3151015E-009  0.1243256E+03  0.7561462E-02  0.1236127E+00
          1   -1    0    0  501    0  0.00000000000E+00  0.00000000000E+00  0.42612167328E+02  0.42612167328E+02  0.00000000000E+00 0. -1.
         -1   -1    0    0    0  501 -0.00000000000E+00 -0.00000000000E+00 -0.76630647033E+03  0.76630647033E+03  0.00000000000E+00 0.  1.
         25    2    1    2    0    0  0.81042022597E+02  0.65409357283E+02 -0.60457767066E+03  0.62610523933E+03  0.12508963749E+03 0.  0.
          5    1    3    3  502    0  0.25573972589E+02  0.42580665103E+02 -0.59057040373E+02  0.77280964877E+02  0.41800000000E+01 0.  1.
         -5    1    3    3    0  502  0.55468050008E+02  0.22828692180E+02 -0.54552063029E+03  0.54882427445E+03  0.41800000000E+01 0.  1.
        -11    1    1    2    0    0  0.90273209167E+01 -0.45561829926E+02 -0.40314855747E+02  0.61503337008E+02  0.00000000000E+00 0.  1.
         11    1    1    2    0    0 -0.90069343514E+02 -0.19847527357E+02 -0.78801776591E+02  0.12131006132E+03  0.00000000000E+00 0. -1.
</event>
<event>
 7    1  0.3151015E-009  0.1182861E+03  0.7561462E-02  0.1245952E+00
          2   -1    0    0  501    0  0.00000000000E+00  0.00000000000E+00  0.11146461834E+04  0.11146461834E+04  0.00000000000E+00 0.  1.
         -2   -1    0    0    0  501 -0.00000000000E+00 -0.00000000000E+00 -0.24845530912E+02  0.24845530912E+02  0.00000000000E+00 0. -1.
         25    2    1    2    0    0 -0.54367124656E+02 -0.59014285959E+02  0.91500494192E+03  0.92699441438E+03  0.12508449286E+03 0.  0.
          5    1    3    3  502    0 -0.91393963076E+02 -0.54741113775E+02  0.76390459325E+03  0.77130872290E+03  0.41800000000E+01 0.  1.
         -5    1    3    3    0  502  0.37026838420E+02 -0.42731721839E+01  0.15110034867E+03  0.15568569148E+03  0.41800000000E+01 0.  1.
        -11    1    1    2    0    0  0.31132950014E+02  0.23664798109E+01  0.45201895780E+01  0.31548263298E+02  0.00000000000E+00 0. -1.
         11    1    1    2    0    0  0.23234174642E+02  0.56647806148E+02  0.17027552102E+03  0.18094903667E+03  0.00000000000E+00 0.  1.
</event>
<event>
 7    1  0.3151015E-009  0.1061081E+03  0.7561462E-02  0.1267952E+00
          2   -1    0    0  501    0  0.00000000000E+00  0.00000000000E+00  0.48935901747E+03  0.48935901747E+03  0.00000000000E+00 0.  1.
         -2   -1    0    0    0  501 -0.00000000000E+00 -0.00000000000E+00 -0.45085325934E+02  0.45085325934E+02  0.00000000000E+00 0. -1.
         25    2    1    2    0    0 -0.56461556677E+02 -0.60889329862E+02  0.34594804372E+03  0.37712489075E+03  0.12509083257E+03 0.  0.
          5    1    3    3  502    0 -0.41505215794E+02 -0.75556503396E+02  0.34511970751E+03  0.35574787849E+03  0.41800000000E+01 0.  1.
         -5    1    3    3    0  502 -0.14956340883E+02  0.14667173534E+02  0.82833621830E+00  0.21377012256E+02  0.41800000000E+01 0.  1.
        -11    1    1    2    0    0  0.28808815373E+02  0.69786626033E+02  0.10319583739E+03  0.12786517067E+03  0.00000000000E+00 0.  1.
         11    1    1    2    0    0  0.27652741305E+02 -0.88972961707E+01 -0.48701895753E+01  0.29454281986E+02  0.00000000000E+00 0. -1.
</event>
<event>
 7    1  0.3151015E-009  0.1071907E+03  0.7561462E-02  0.1265863E+00
          1   -1    0    0  501    0  0.00000000000E+00  0.00000000000E+00  0.25581797017E+03  0.25581797017E+03  0.00000000000E+00 0. -1.
         -1   -1    0    0    0  501 -0.00000000000E+00 -0.00000000000E+00 -0.78689572140E+02  0.78689572140E+02  0.00000000000E+00 0.  1.
         25    2    1    2    0    0  0.17750089896E+02 -0.70044476840E+02  0.29364781985E+02  0.14740889345E+03  0.12508316042E+03 0.  0.
          5    1    3    3  502    0 -0.46212100789E+02 -0.33796469510E+02  0.44004230822E+02  0.72329830229E+02  0.41800000000E+01 0.  1.
         -5    1    3    3    0  502  0.63962190685E+02 -0.36248007330E+02 -0.14639448837E+02  0.75079063226E+02  0.41800000000E+01 0.  1.
        -11    1    1    2    0    0 -0.27038212487E+02  0.23335266585E+02  0.43439193885E+01  0.35978733117E+02  0.00000000000E+00 0.  1.
         11    1    1    2    0    0  0.92881225909E+01  0.46709210255E+02  0.14341969666E+03  0.15111991574E+03  0.00000000000E+00 0. -1.
</event>
<event>
 7    1  0.3151015E-009  0.1055471E+03  0.7561462E-02  0.1269045E+00
          2   -1    0    0  501    0  0.00000000000E+00  0.00000000000E+00  0.59469454757E+03  0.59469454757E+03  0.00000000000E+00 0. -1.
         -2   -1    0    0    0  501 -0.00000000000E+00 -0.00000000000E+00 -0.28807207906E+02  0.28807207906E+02  0.00000000000E+00 0.  1.
         25    2    1    2    0    0 -0.24001604150E+02  0.54939522573E+02  0.42208608215E+03  0.44429638380E+03  0.12509271669E+03 0.  0.
          5    1    3    3  502    0  0.23968154643E+02  0.60235272014E+02  0.10456881920E+03  0.12310512086E+03  0.41800000000E+01 0. -1.
         -5    1    3    3    0  502 -0.47969758793E+02 -0.52957494410E+01  0.31751726294E+03  0.32119126294E+03  0.41800000000E+01 0. -1.
        -11    1    1    2    0    0  0.16992922533E+02  0.17802116020E+02  0.96383432610E+01  0.26430520461E+02  0.00000000000E+00 0. -1.
         11    1    1    2    0    0  0.70086816169E+01 -0.72741638594E+02  0.13416291425E+03  0.15277485122E+03  0.00000000000E+00 0.  1.
</event>
<event>
 7    1  0.3151015E-009  0.1062350E+03  0.7561462E-02  0.1267705E+00
          1   -1    0    0  501    0  0.00000000000E+00  0.00000000000E+00  0.19743589231E+03  0.19743589231E+03  0.00000000000E+00 0. -1.
         -1   -1    0    0    0  501 -0.00000000000E+00 -0.00000000000E+00 -0.83779988798E+02  0.83779988798E+02  0.00000000000E+00 0.  1.
         25    2    1    2    0    0 -0.16269309509E+02 -0.66222836300E+02  0.90377499394E+02  0.16872005481E+03  0.12509280563E+03 0.  0.
          5    1    3    3  502    0  0.27682588057E+02  0.25349234606E+02  0.40863027870E+02  0.55643228010E+02  0.41800000000E+01 0. -1.
         -5    1    3    3    0  502 -0.43951897567E+02 -0.91572070906E+02  0.49514471524E+02  0.11307682680E+03  0.41800000000E+01 0. -1.
        -11    1    1    2    0    0  0.19633794883E+02  0.25507248940E+02 -0.30913801551E+02  0.44629236789E+02  0.00000000000E+00 0.  1.
         11    1    1    2    0    0 -0.33644853738E+01  0.40715587360E+02  0.54192205667E+02  0.67866589504E+02  0.00000000000E+00 0. -1.
</event>
<event>
 7    1  0.3151015E-009  0.1097447E+03  0.7561462E-02  0.1261043E+00
         -1   -1    0    0    0  501 -0.00000000000E+00  0.00000000000E+00  0.49618623120E+02  0.49618623120E+02  0.00000000000E+00 0.  1.
          1   -1    0    0  501    0  0.00000000000E+00 -0.00000000000E+00 -0.28416752100E+03  0.28416752100E+03  0.00000000000E+00 0. -1.
         25    2    1    2    0    0 -0.42865869524E+02 -0.12431618104E+01 -0.10264872444E+03  0.16740134774E+03  0.12508965734E+03 0.  0.
          5    1    3    3  502    0 -0.14156655938E+01 -0.59893350167E+02 -0.41698609280E+02  0.73112679606E+02  0.41800000000E+01 0. -1.
         -5    1    3    3    0  502 -0.41450203930E+02  0.58650188357E+02 -0.60950115157E+02  0.94288668130E+02  0.41800000000E+01 0. -1.
        -11    1    1    2    0    0  0.49240768546E+02 -0.28622091150E+02 -0.40145539834E+02  0.69681717526E+02  0.00000000000E+00 0.  1.
         11    1    1    2    0    0 -0.63748990226E+01  0.29865252961E+02 -0.91754633613E+02  0.96703078862E+02  0.00000000000E+00 0. -1.
</event>
<event>
 7    1  0.3151015E-009  0.1131311E+03  0.7561462E-02  0.1254879E+00
          1   -1    0    0  501    0  0.00000000000E+00  0.00000000000E+00  0.52037389079E+02  0.52037389079E+02  0.00000000000E+00 0. -1.
         -1   -1    0    0    0  501 -0.00000000000E+00 -0.00000000000E+00 -0.39435469899E+03  0.39435469899E+03  0.00000000000E+00 0.  1.
         25    2    1    2    0    0 -0.33337526124E+02  0.72690496841E+02 -0.11061280907E+03  0.18515822296E+03  0.12511224969E+03 0.  0.
          5    1    3    3  502    0  0.43592255218E+02  0.64796607112E+01 -0.50347924903E+02  0.67042200590E+02  0.41800000000E+01 0. -1.
         -5    1    3    3    0  502 -0.76929781342E+02  0.66210836129E+02 -0.60264884164E+02  0.11811602237E+03  0.41800000000E+01 0. -1.
        -11    1    1    2    0    0  0.14866366584E+02 -0.42391453594E+02 -0.21897324358E+03  0.22353372362E+03  0.00000000000E+00 0.  1.
         11    1    1    2    0    0  0.18471159540E+02 -0.30299043246E+02 -0.12731257271E+02  0.37700141486E+02  0.00000000000E+00 0. -1.
</event>
<event>
 7    1  0.3151015E-009  0.1259364E+03  0.7561462E-02  0.1233613E+00
          1   -1    0    0  501    0  0.00000000000E+00  0.00000000000E+00  0.17605082215E+03  0.17605082215E+03  0.00000000000E+00 0. -1.
         -1   -1    0    0    0  501 -0.00000000000E+00 -0.00000000000E+00 -0.12312245591E+03  0.12312245591E+03  0.00000000000E+00 0.  1.
         25    2    1    2    0    0  0.51566753492E+02  0.81747896099E+02  0.55008794209E+02  0.16737018561E+03  0.12507982655E+03 0.  0.
          5    1    3    3  502    0  0.77414297779E+02  0.17306096795E+02  0.12259987676E+01  0.79444634556E+02  0.41800000000E+01 0.  1.
         -5    1    3    3    0  502 -0.25847544287E+02  0.64441799304E+02  0.53782795442E+02  0.87925551057E+02  0.41800000000E+01 0.  1.
        -11    1    1    2    0    0 -0.47714210007E+02 -0.43903008162E+02  0.39120267723E+02  0.75726582578E+02  0.00000000000E+00 0. -1.
         11    1    1    2    0    0 -0.38525434853E+01 -0.37844887936E+02 -0.41200695689E+02  0.56076509872E+02  0.00000000000E+00 0.  1.
</event>
<event>
 7    1  0.3151015E-009  0.1072382E+03  0.7561462E-02  0.1265771E+00
          1   -1    0    0  501    0  0.00000000000E+00  0.00000000000E+00  0.51305159007E+03  0.51305159007E+03  0.00000000000E+00 0. -1.
         -1   -1    0    0    0  501 -0.00000000000E+00 -0.00000000000E+00 -0.29446274680E+02  0.29446274680E+02  0.00000000000E+00 0.  1.
         25    2    1    2    0    0  0.53720246207E+02  0.17722113355E+02  0.26640094161E+03  0.29969234696E+03  0.12508438346E+03 0.  0.
          5    1    3    3  502    0  0.87103496296E+02 -0.17095377754E+02  0.17201574926E+03  0.19361343290E+03  0.41800000000E+01 0.  1.
         -5    1    3    3    0  502 -0.33383250089E+02  0.34817491109E+02  0.94385192346E+02  0.10607891406E+03  0.41800000000E+01 0.  1.
        -11    1    1    2    0    0 -0.39635517640E+02  0.14361449025E+02  0.28526579878E+02  0.50901780286E+02  0.00000000000E+00 0.  1.
         11    1    1    2    0    0 -0.14084728566E+02 -0.32083562379E+02  0.18867779390E+03  0.19190373750E+03  0.00000000000E+00 0. -1.
</event>
<event>
 7    1  0.3151015E-009  0.6619778E+02  0.7561462E-02  0.1373522E+00
         -1   -1    0    0    0  501 -0.00000000000E+00  0.00000000000E+00  0.76605551217E+02  0.76605551217E+02  0.00000000000E+00 0.  1.
          1   -1    0    0  501    0  0.00000000000E+00 -0.00000000000E+00 -0.15754003188E+03  0.15754003188E+03  0.00000000000E+00 0. -1.
         25    2    1    2    0    0  0.18251398429E+02  0.14920972652E+01 -0.51061121539E+02  0.13634616854E+03  0.12509076562E+03 0.  0.
          5    1    3    3  502    0 -0.98399623387E+01  0.28706439574E+02  0.32088245520E+02  0.44362286149E+02  0.41800000000E+01 0.  1.
         -5    1    3    3    0  502  0.28091360767E+02 -0.27214342308E+02 -0.83149367060E+02  0.91983882389E+02  0.41800000000E+01 0.  1.
        -11    1    1    2    0    0  0.22006400457E+02 -0.25705166360E+01 -0.48580510889E+02  0.53394337294E+02  0.00000000000E+00 0. -1.
         11    1    1    2    0    0 -0.40257798886E+02  0.10784193708E+01  0.18707151766E+02  0.44405077262E+02  0.00000000000E+00 0.  1.
</event>
<event>
 7    1  0.3151015E-009  0.1147948E+03  0.7561462E-02  0.1251940E+00
         -1   -1    0    0    0  501 -0.00000000000E+00  0.00000000000E+00  0.97960340927E+02  0.97960340927E+02  0.00000000000E+00 0.  1.
          1   -1    0    0  501    0  0.00000000000E+00 -0.00000000000E+00 -0.30067552595E+03  0.30067552595E+03  0.00000000000E+00 0. -1.
         25    2    1    2    0    0  0.12738287988E+02 -0.10610246394E+03 -0.24694383591E+02  0.16636600323E+03  0.12509131711E+03 0.  0.
          5    1    3    3  502    0  0.16946136393E+02 -0.52105039761E+02 -0.74563422170E+02  0.92624419204E+02  0.41800000000E+01 0. -1.
         -5    1    3    3    0  502 -0.42078484046E+01 -0.53997424180E+02  0.49869038579E+02  0.73741584029E+02  0.41800000000E+01 0. -1.
        -11    1    1    2    0    0 -0.33116022378E+02  0.44765204917E+02 -0.16158470085E+02  0.57980088521E+02  0.00000000000E+00 0.  1.
         11    1    1    2    0    0  0.20377734389E+02  0.61337259024E+02 -0.16186233134E+03  0.17428977512E+03  0.00000000000E+00 0. -1.
</event>
<event>
 7    1  0.3151015E-009  0.1089290E+03  0.7561462E-02  0.1262566E+00
          4   -1    0    0  501    0  0.00000000000E+00  0.00000000000E+00  0.14036939899E+03  0.14036939899E+03  0.00000000000E+00 0.  1.
         -4   -1    0    0    0  501 -0.00000000000E+00 -0.00000000000E+00 -0.18477262932E+03  0.18477262932E+03  0.00000000000E+00 0. -1.
         25    2    1    2    0    0  0.48073449091E+02 -0.76635324546E+02  0.52059559522E+02  0.16291605102E+03  0.12508961774E+03 0.  0.
          5    1    3    3  502    0  0.71530657746E+02 -0.43868778349E+02 -0.14244303094E+02  0.85214302098E+02  0.41800000000E+01 0.  1.
         -5    1    3    3    0  502 -0.23457208655E+02 -0.32766546197E+02  0.66303862616E+02  0.77701748921E+02  0.41800000000E+01 0.  1.
        -11    1    1    2    0    0 -0.28574504620E+02  0.24406722849E+02  0.12686935582E+02  0.39662939490E+02  0.00000000000E+00 0.  1.
         11    1    1    2    0    0 -0.19498944470E+02  0.52228601698E+02 -0.10914972544E+03  0.12256303780E+03  0.00000000000E+00 0. -1.
</event>
<event>
 7    1  0.3151015E-009  0.1059519E+03  0.7561462E-02  0.1268255E+00
         -1   -1    0    0    0  501 -0.00000000000E+00  0.00000000000E+00  0.11372383865E+03  0.11372383865E+03  0.00000000000E+00 0.  1.
          1   -1    0    0  501    0  0.00000000000E+00 -0.00000000000E+00 -0.12896843120E+03  0.12896843120E+03  0.00000000000E+00 0. -1.
         25    2    1    2    0    0  0.42193177889E+02 -0.33233457185E+02 -0.87395691953E+00  0.13613259791E+03  0.12508634409E+03 0.  0.
          5    1    3    3  502    0  0.66648629050E+02 -0.62618070435E+02  0.17992098641E+02  0.93296572889E+02  0.41800000000E+01 0. -1.
         -5    1    3    3    0  502 -0.24455451161E+02  0.29384613250E+02 -0.18866055561E+02  0.42836025023E+02  0.41800000000E+01 0. -1.
        -11    1    1    2    0    0 -0.44497468287E+02  0.48871321490E+02  0.19727974104E+02  0.68975529795E+02  0.00000000000E+00 0.  1.
         11    1    1    2    0    0  0.23042903980E+01 -0.15637864305E+02 -0.34098609741E+02  0.37584142142E+02  0.00000000000E+00 0. -1.
</event>
<event>
 7    1  0.3151015E-009  0.1193943E+03  0.7561462E-02  0.1244100E+00
          1   -1    0    0  501    0  0.00000000000E+00  0.00000000000E+00  0.73123343778E+03  0.73123343778E+03  0.00000000000E+00 0. -1.
         -1   -1    0    0    0  501 -0.00000000000E+00 -0.00000000000E+00 -0.30412057152E+02  0.30412057152E+02  0.00000000000E+00 0.  1.
         25    2    1    2    0    0  0.64554206895E+02  0.74904431291E+02  0.43537420150E+03  0.46365562255E+03  0.12509165253E+03 0.  0.
          5    1    3    3  502    0  0.49197675336E+02  0.33407671757E+02  0.56342174472E+02  0.82026805466E+02  0.41800000000E+01 0.  1.
         -5    1    3    3    0  502  0.15356531559E+02  0.41496759534E+02  0.37903202703E+03  0.38162881708E+03  0.41800000000E+01 0.  1.
        -11    1    1    2    0    0  0.16854423195E+02 -0.44914104459E+02  0.80608940265E+02  0.93803782500E+02  0.00000000000E+00 0.  1.
         11    1    1    2    0    0 -0.81408630090E+02 -0.29990326832E+02  0.18483823886E+03  0.20418608988E+03  0.00000000000E+00 0. -1.
</event>
<event>
 7    1  0.3151015E-009  0.1393957E+03  0.7561462E-02  0.1214144E+00
         -1   -1    0    0    0  501 -0.00000000000E+00  0.00000000000E+00  0.14302018393E+02  0.14302018393E+02  0.00000000000E+00 0.  1.
          1   -1    0    0  501    0  0.00000000000E+00 -0.00000000000E+00 -0.14941498059E+04  0.14941498059E+04  0.00000000000E+00 0. -1.
         25    2    1    2    0    0 -0.20826444800E+02 -0.95333232524E+02 -0.89179709931E+03  0.90580102655E+03  0.12510502523E+03 0.  0.
          5    1    3    3  502    0 -0.63823428365E+02 -0.30211846110E+02 -0.58271481849E+03  0.58699251932E+03  0.41800000000E+01 0.  1.
         -5    1    3    3    0  502  0.42996983565E+02 -0.65121386415E+02 -0.30908228082E+03  0.31880850723E+03  0.41800000000E+01 0.  1.
        -11    1    1    2    0    0  0.53251140086E+02  0.73713918274E+02 -0.45555911783E+03  0.46454659132E+03  0.00000000000E+00 0.  1.
         11    1    1    2    0    0 -0.32424695286E+02  0.21619314250E+02 -0.13249157034E+03  0.13810420640E+03  0.00000000000E+00 0. -1.
</event>
<event>
 7    1  0.3151015E-009  0.9798001E+02  0.7561462E-02  0.1284602E+00
         -1   -1    0    0    0  501 -0.00000000000E+00  0.00000000000E+00  0.28967115078E+03  0.28967115078E+03  0.00000000000E+00 0.  1.
          1   -1    0    0  501    0  0.00000000000E+00 -0.00000000000E+00 -0.49412343293E+02  0.49412343293E+02  0.00000000000E+00 0. -1.
         25    2    1    2    0    0 -0.36148959042E+02 -0.35003167912E+02  0.14096742584E+03  0.19506813107E+03  0.12509113321E+03 0.  0.
          5    1    3    3  502    0  0.22646084761E+02 -0.48560052610E+02  0.15742548648E+02  0.56002000879E+02  0.41800000000E+01 0. -1.
         -5    1    3    3    0  502 -0.58795043803E+02  0.13556884698E+02  0.12522487719E+03  0.13906613019E+03  0.41800000000E+01 0. -1.
        -11    1    1    2    0    0  0.12421805935E+02 -0.19027287257E+02  0.78062150200E+02  0.81302141527E+02  0.00000000000E+00 0.  1.
         11    1    1    2    0    0  0.23727153107E+02  0.54030455169E+02  0.21229231451E+02  0.62713221480E+02  0.00000000000E+00 0. -1.
</event>
<event>
 7    1  0.3151015E-009  0.1020054E+03  0.7561462E-02  0.1276134E+00
         -1   -1    0    0    0  501 -0.00000000000E+00  0.00000000000E+00  0.83254071899E+02  0.83254071899E+02  0.00000000000E+00 0.  1.
          1   -1    0    0  501    0  0.00000000000E+00 -0.00000000000E+00 -0.29952518931E+03  0.29952518931E+03  0.00000000000E+00 0. -1.
         25    2    1    2    0    0 -0.23705455050E+02  0.71142192607E+02 -0.22077718380E+03  0.26460039299E+03  0.12509053887E+03 0.  0.
          5    1    3    3  502    0  0.23152637847E+02 -0.98317606518E+01 -0.79116896460E+00  0.25510909532E+02  0.41800000000E+01 0.  1.
         -5    1    3    3    0  502 -0.46858092897E+02  0.80973953259E+02 -0.21998601483E+03  0.23908948346E+03  0.41800000000E+01 0.  1.
        -11    1    1    2    0    0  0.34084075592E+02 -0.43004912954E+02  0.42762423278E+02  0.69568466936E+02  0.00000000000E+00 0.  1.
         11    1    1    2    0    0 -0.10378620543E+02 -0.28137279652E+02 -0.38256356890E+02  0.48610401285E+02  0.00000000000E+00 0. -1.
</event>
<event>
 7    1  0.3151015E-009  0.1261206E+03  0.7561462E-02  0.1233328E+00
         -2   -1    0    0    0  501 -0.00000000000E+00  0.00000000000E+00  0.19239305677E+03  0.19239305677E+03  0.00000000000E+00 0. -1.
          2   -1    0    0  501    0  0.00000000000E+00 -0.00000000000E+00 -0.15736242097E+03  0.15736242097E+03  0.00000000000E+00 0.  1.
         25    2    1    2    0    0  0.11506520454E+03 -0.23684074095E+01 -0.53011502293E+02  0.17802358765E+03  0.12504626238E+03 0.  0.
          5    1    3    3  502    0  0.92028510080E+02  0.89276463387E+01  0.24936315028E+02  0.95855316722E+02  0.41800000000E+01 0.  1.
         -5    1    3    3    0  502  0.23036694460E+02 -0.11296053748E+02 -0.77947817321E+02  0.82168270926E+02  0.41800000000E+01 0.  1.
        -11    1    1    2    0    0 -0.42768085996E+02  0.34137290941E+02  0.17356402660E+01  0.54749212412E+02  0.00000000000E+00 0.  1.
         11    1    1    2    0    0 -0.72297118543E+02 -0.31768883531E+02  0.86306497830E+02  0.11698267768E+03  0.00000000000E+00 0. -1.
</event>
<event>
 7    1  0.3151015E-009  0.7751448E+02  0.7561462E-02  0.1336257E+00
         -1   -1    0    0    0  501 -0.00000000000E+00  0.00000000000E+00  0.73870651168E+02  0.73870651168E+02  0.00000000000E+00 0.  1.
          1   -1    0    0  501    0  0.00000000000E+00 -0.00000000000E+00 -0.16687090641E+03  0.16687090641E+03  0.00000000000E+00 0. -1.
         25    2    1    2    0    0  0.20232356020E+02 -0.18581299672E+00 -0.65810364612E+02  0.14278072012E+03  0.12508376070E+03 0.  0.
          5    1    3    3  502    0 -0.13516023409E+02  0.54769694152E+02 -0.10111041772E+02  0.57463970034E+02  0.41800000000E+01 0.  1.
         -5    1    3    3    0  502  0.33748379428E+02 -0.54955507149E+02 -0.55699322840E+02  0.85316750084E+02  0.41800000000E+01 0.  1.
        -11    1    1    2    0    0 -0.41969861923E+00 -0.11050409617E+02 -0.58336012661E+02  0.59374894298E+02  0.00000000000E+00 0. -1.
         11    1    1    2    0    0 -0.19812657400E+02  0.11236222614E+02  0.31146122033E+02  0.38585943161E+02  0.00000000000E+00 0.  1.
</event>
<event>
 7    1  0.3151015E-009  0.1282949E+03  0.7561462E-02  0.1230008E+00
          3   -1    0    0  501    0  0.00000000000E+00  0.00000000000E+00  0.20265487065E+03  0.20265487065E+03  0.00000000000E+00 0. -1.
         -3   -1    0    0    0  501 -0.00000000000E+00 -0.00000000000E+00 -0.10724112216E+03  0.10724112216E+03  0.00000000000E+00 0.  1.
         25    2    1    2    0    0 -0.55192458791E+02 -0.61033945771E+02 -0.52887898845E+01  0.14979812183E+03  0.12506060915E+03 0.  0.
          5    1    3    3  502    0 -0.68253807826E+01  0.31516935258E+02 -0.27926890709E+02  0.42863581926E+02  0.41800000000E+01 0.  1.
         -5    1    3    3    0  502 -0.48367078008E+02 -0.92550881030E+02  0.22638100824E+02  0.10693453990E+03  0.41800000000E+01 0.  1.
        -11    1    1    2    0    0  0.50570306088E+01  0.68663173883E+02  0.35400593960E+02  0.77417097976E+02  0.00000000000E+00 0.  1.
         11    1    1    2    0    0  0.50135428182E+02 -0.76292281119E+01  0.65301944411E+02  0.82680773004E+02  0.00000000000E+00 0. -1.
</event>
<event>
 7    1  0.3151015E-009  0.1208266E+03  0.7561462E-02  0.1241740E+00
         -2   -1    0    0    0  501 -0.00000000000E+00  0.00000000000E+00  0.45602168667E+02  0.45602168667E+02  0.00000000000E+00 0.  1.
          2   -1    0    0  501    0  0.00000000000E+00 -0.00000000000E+00 -0.51022890515E+03  0.51022890515E+03  0.00000000000E+00 0. -1.
         25    2    1    2    0    0  0.17129043361E+02 -0.11369416179E+02 -0.40144652881E+03  0.42098484298E+03  0.12508499018E+03 0.  0.
          5    1    3    3  502    0 -0.52646289065E+02 -0.14259810526E+02 -0.21484169379E+03  0.22169663899E+03  0.41800000000E+01 0. -1.
         -5    1    3    3    0  502  0.69775332426E+02  0.28903943467E+01 -0.18660483502E+03  0.19928820399E+03  0.41800000000E+01 0. -1.
        -11    1    1    2    0    0 -0.16099232693E+02 -0.51578924645E+02 -0.41950917020E+02  0.68406506998E+02  0.00000000000E+00 0. -1.
         11    1    1    2    0    0 -0.10298106682E+01  0.62948340824E+02 -0.21229290649E+02  0.66439723841E+02  0.00000000000E+00 0.  1.
</event>
<event>
 7    1  0.3151015E-009  0.3093955E+03  0.7561462E-02  0.1080636E+00
         -2   -1    0    0    0  501 -0.00000000000E+00  0.00000000000E+00  0.38392947746E+03  0.38392947746E+03  0.00000000000E+00 0.  1.
          2   -1    0    0  501    0  0.00000000000E+00 -0.00000000000E+00 -0.25052676063E+03  0.25052676063E+03  0.00000000000E+00 0. -1.
         25    2    1    2    0    0  0.27426476884E+03  0.93997436516E+02  0.84702583560E+02  0.32692116321E+03  0.12508492234E+03 0.  0.
          5    1    3    3  502    0  0.11870949113E+03 -0.23070278795E+02  0.30463041633E+02  0.12477840500E+03  0.41800000000E+01 0. -1.
         -5    1    3    3    0  502  0.15555527771E+03  0.11706771531E+03  0.54239541927E+02  0.20214275821E+03  0.41800000000E+01 0. -1.
        -11    1    1    2    0    0 -0.23716367182E+03 -0.44667055142E+02  0.46490874031E+02  0.24577053203E+03  0.00000000000E+00 0. -1.
         11    1    1    2    0    0 -0.37101097015E+02 -0.49330381374E+02  0.22092592365E+01  0.61764542843E+02  0.00000000000E+00 0.  1.
</event>
<event>
 7    1  0.3151015E-009  0.2182441E+03  0.7561462E-02  0.1135199E+00
         -2   -1    0    0    0  501 -0.00000000000E+00  0.00000000000E+00  0.43658552886E+02  0.43658552886E+02  0.00000000000E+00 0.  1.
          2   -1    0    0  501    0  0.00000000000E+00 -0.00000000000E+00 -0.18892406255E+04  0.18892406255E+04  0.00000000000E+00 0. -1.
         25    2    1    2    0    0  0.20074821845E+02 -0.19632197693E+03 -0.15429750738E+04  0.15605653494E+04  0.12508722604E+03 0.  0.
          5    1    3    3  502    0  0.21181765891E+02 -0.21141870611E+03 -0.13161410120E+04  0.13331883484E+04  0.41800000000E+01 0. -1.
         -5    1    3    3    0  502 -0.11069440462E+01  0.15096729179E+02 -0.22683406189E+03  0.22737700101E+03  0.41800000000E+01 0. -1.
        -11    1    1    2    0    0 -0.36741721534E+02  0.56124445067E+02 -0.52713427223E+02  0.85314786790E+02  0.00000000000E+00 0.  1.
         11    1    1    2    0    0  0.16666899689E+02  0.14019753187E+03 -0.24989357154E+03  0.28701904220E+03  0.00000000000E+00 0. -1.
</event>
<event>
 7    1  0.3151015E-009  0.1375666E+03  0.7561462E-02  0.1216641E+00
          2   -1    0    0  501    0  0.00000000000E+00  0.00000000000E+00  0.60729721916E+03  0.60729721916E+03  0.00000000000E+00 0. -1.
         -2   -1    0    0    0  501 -0.00000000000E+00 -0.00000000000E+00 -0.32889357090E+02  0.32889357090E+02  0.00000000000E+00 0.  1.
         25    2    1    2    0    0  0.61194109173E+02 -0.62878945134E+02  0.36124759529E+03  0.39223062769E+03  0.12508620809E+03 0.  0.
          5    1    3    3  502    0  0.95049341795E+02 -0.25963232237E+02  0.19452560779E+03  0.21809665584E+03  0.41800000000E+01 0.  1.
         -5    1    3    3    0  502 -0.33855232622E+02 -0.36915712897E+02  0.16672198750E+03  0.17413397185E+03  0.41800000000E+01 0.  1.
        -11    1    1    2    0    0 -0.28255063021E+02  0.82982030811E+02  0.13844725235E+03  0.16386582226E+03  0.00000000000E+00 0.  1.
         11    1    1    2    0    0 -0.32939046151E+02 -0.20103085677E+02  0.74713014437E+02  0.84090126301E+02  0.00000000000E+00 0. -1.
</event>
<event>
 7    1  0.3151015E-009  0.8629412E+02  0.7561462E-02  0.1312083E+00
         -1   -1    0    0    0  501 -0.00000000000E+00  0.00000000000E+00  0.69935579180E+02  0.69935579180E+02  0.00000000000E+00 0.  1.
          1   -1    0    0  501    0  0.00000000000E+00 -0.00000000000E+00 -0.19753751663E+03  0.19753751663E+03  0.00000000000E+00 0. -1.
         25    2    1    2    0    0 -0.40113795653E+02  0.19836609554E+02 -0.85092719798E+02  0.15776762135E+03  0.12508894317E+03 0.  0.
          5    1    3    3  502    0 -0.55020207013E+02  0.59956710378E+02 -0.80463324425E+02  0.11451571629E+03  0.41800000000E+01 0. -1.
         -5    1    3    3    0  502  0.14906411360E+02 -0.40120100825E+02 -0.46293953726E+01  0.43251905060E+02  0.41800000000E+01 0. -1.
        -11    1    1    2    0    0  0.19303593744E+02  0.69582532827E-01  0.27732601597E+02  0.33789506722E+02  0.00000000000E+00 0.  1.
         11    1    1    2    0    0  0.20810201908E+02 -0.19906192087E+02 -0.70241819250E+02  0.75915967743E+02  0.00000000000E+00 0. -1.
</event>
<event>
 7    1  0.3151015E-009  0.1783294E+03  0.7561462E-02  0.1169430E+00
         -2   -1    0    0    0  501 -0.00000000000E+00  0.00000000000E+00  0.43716760191E+02  0.43716760191E+02  0.00000000000E+00 0.  1.
          2   -1    0    0  501    0  0.00000000000E+00 -0.00000000000E+00 -0.92759661567E+03  0.92759661567E+03  0.00000000000E+00 0. -1.
         25    2    1    2    0    0 -0.15869084659E+03  0.53746278912E+02 -0.52576155272E+03  0.56581303875E+03  0.12509091582E+03 0.  0.
          5    1    3    3  502    0 -0.31800373909E+02 -0.24124822675E+02 -0.36028917716E+02  0.53933534667E+02  0.41800000000E+01 0. -1.
         -5    1    3    3    0  502 -0.12689047268E+03  0.77871101588E+02 -0.48973263500E+03  0.51187950409E+03  0.41800000000E+01 0. -1.
        -11    1    1    2    0    0  0.61762471224E+02 -0.19006245365E+02 -0.53315716577E+02  0.83775926427E+02  0.00000000000E+00 0.  1.
         11    1    1    2    0    0  0.96928375367E+02 -0.34740033547E+02 -0.30480258619E+03  0.32172441068E+03  0.00000000000E+00 0. -1.
</event>
<event>
 7    1  0.3151015E-009  0.1056278E+03  0.7561462E-02  0.1268888E+00
         -2   -1    0    0    0  501 -0.00000000000E+00  0.00000000000E+00  0.18943034281E+03  0.18943034281E+03  0.00000000000E+00 0.  1.
          2   -1    0    0  501    0  0.00000000000E+00 -0.00000000000E+00 -0.68893509427E+02  0.68893509427E+02  0.00000000000E+00 0. -1.
         25    2    1    2    0    0  0.91368680037E+01 -0.34820204092E+02  0.77366707007E+02  0.15141985988E+03  0.12508572118E+03 0.  0.
          5    1    3    3  502    0 -0.27153850862E+02  0.34318822994E+02  0.54355501170E+02  0.69907840302E+02  0.41800000000E+01 0.  1.
         -5    1    3    3    0  502  0.36290718866E+02 -0.69139027086E+02  0.23011205837E+02  0.81512019581E+02  0.41800000000E+01 0.  1.
        -11    1    1    2    0    0  0.34648176706E+02  0.28490811567E+02  0.43749946365E+02  0.62660037501E+02  0.00000000000E+00 0.  1.
         11    1    1    2    0    0 -0.43785044710E+02  0.63293925257E+01 -0.57981998621E+00  0.44243954855E+02  0.00000000000E+00 0. -1.
</event>
<event>
 7    1  0.3151015E-009  0.1027797E+03  0.7561462E-02  0.1274557E+00
         -1   -1    0    0    0  501 -0.00000000000E+00  0.00000000000E+00  0.47224432254E+02  0.47224432254E+02  0.00000000000E+00 0.  1.
          1   -1    0    0  501    0  0.00000000000E+00 -0.00000000000E+00 -0.30209798312E+03  0.30209798312E+03  0.00000000000E+00 0. -1.
         25    2    1    2    0    0 -0.13683159021E+02  0.62913920150E+02 -0.18138222151E+03  0.22954181253E+03  0.12507814849E+03 0.  0.
          5    1    3    3  502    0 -0.19946784270E+02 -0.36057889403E+02 -0.53351354955E+02  0.67541728335E+02  0.41800000000E+01 0. -1.
         -5    1    3    3    0  502  0.62636252490E+01  0.98971809553E+02 -0.12803086656E+03  0.16200008419E+03  0.41800000000E+01 0. -1.
        -11    1    1    2    0    0  0.78395562195E+01 -0.18590862380E+02  0.11878458777E+02  0.23413171264E+02  0.00000000000E+00 0.  1.
         11    1    1    2    0    0  0.58436028019E+01 -0.44323057770E+02 -0.85369788132E+02  0.96367431581E+02  0.00000000000E+00 0. -1.
</event>
<event>
 7    1  0.3151015E-009  0.3651436E+03  0.7561462E-02  0.1056566E+00
         -2   -1    0    0    0  501 -0.00000000000E+00  0.00000000000E+00  0.11633263373E+03  0.11633263373E+03  0.00000000000E+00 0.  1.
          2   -1    0    0  501    0  0.00000000000E+00 -0.00000000000E+00 -0.13103542409E+04  0.13103542409E+04  0.00000000000E+00 0. -1.
         25    2    1    2    0    0  0.32663534748E+03  0.13390153398E+03 -0.37445579270E+03  0.52960800575E+03  0.12508888059E+03 0.  0.
          5    1    3    3  502    0  0.31947635266E+03  0.15242317306E+03 -0.35817514416E+03  0.50359196766E+03  0.41800000000E+01 0. -1.
         -5    1    3    3    0  502  0.71589948139E+01 -0.18521639085E+02 -0.16280648537E+02  0.26016038091E+02  0.41800000000E+01 0. -1.
        -11    1    1    2    0    0 -0.15054737566E+03 -0.86546193114E+02 -0.30245380084E+03  0.34875931171E+03  0.00000000000E+00 0.  1.
         11    1    1    2    0    0 -0.17608797182E+03 -0.47355340863E+02 -0.51711201362E+03  0.54831955716E+03  0.00000000000E+00 0. -1.
</event>
<event>
 7    1  0.3151015E-009  0.1378232E+03  0.7561462E-02  0.1216288E+00
          1   -1    0    0  501    0  0.00000000000E+00  0.00000000000E+00  0.14759878741E+04  0.14759878741E+04  0.00000000000E+00 0. -1.
         -1   -1    0    0    0  501 -0.00000000000E+00 -0.00000000000E+00 -0.18881224453E+02  0.18881224453E+02  0.00000000000E+00 0.  1.
         25    2    1    2    0    0 -0.10743727094E+03 -0.44858774002E+02  0.97396764827E+03  0.98884565012E+03  0.12509061953E+03 0.  0.
          5    1    3    3  502    0 -0.68112033605E+02 -0.51180883414E+02  0.90562281284E+03  0.90963117992E+03  0.41800000000E+01 0.  1.
         -5    1    3    3    0  502 -0.39325237338E+02  0.63221094120E+01  0.68344835432E+02  0.79214470202E+02  0.41800000000E+01 0.  1.
        -11    1    1    2    0    0 -0.11928884328E+01  0.41600777131E+02  0.12365717010E+03  0.13047276864E+03  0.00000000000E+00 0.  1.
         11    1    1    2    0    0  0.10863015938E+03  0.32579968713E+01  0.35948183127E+03  0.37555067978E+03  0.00000000000E+00 0. -1.
</event>
<event>
 7    1  0.3151015E-009  0.1646611E+03  0.7561462E-02  0.1183533E+00
          2   -1    0    0  501    0  0.00000000000E+00  0.00000000000E+00  0.48094633975E+03  0.48094633975E+03  0.00000000000E+00 0. -1.
         -2   -1    0    0    0  501 -0.00000000000E+00 -0.00000000000E+00 -0.68169243183E+02  0.68169243183E+02  0.00000000000E+00 0.  1.
         25    2    1    2    0    0 -0.13264540684E+03 -0.38337009731E+02  0.28029234856E+03  0.33656061251E+03  0.12507883499E+03 0.  0.
          5    1    3    3  502    0 -0.10306185365E+03  0.33541751783E+02  0.16314210895E+03  0.19590715889E+03  0.41800000000E+01 0.  1.
         -5    1    3    3    0  502 -0.29583553185E+02 -0.71878761513E+02  0.11715023961E+03  0.14065345362E+03  0.41800000000E+01 0.  1.
        -11    1    1    2    0    0  0.89281060501E+02  0.70772666922E+01  0.25762185041E+02  0.93192733870E+02  0.00000000000E+00 0.  1.
         11    1    1    2    0    0  0.43364346337E+02  0.31259743038E+02  0.10672256297E+03  0.11936223655E+03  0.00000000000E+00 0. -1.
</event>
<event>
 7    1  0.3151015E-009  0.1185940E+03  0.7561462E-02  0.1245435E+00
          1   -1    0    0  501    0  0.00000000000E+00  0.00000000000E+00  0.23779979108E+03  0.23779979108E+03  0.00000000000E+00 0. -1.
         -1   -1    0    0    0  501 -0.00000000000E+00 -0.00000000000E+00 -0.66127964088E+02  0.66127964088E+02  0.00000000000E+00 0.  1.
         25    2    1    2    0    0 -0.42295280148E+02  0.28702384473E+02  0.14095693365E+03  0.19526673746E+03  0.12509006363E+03 0.  0.
          5    1    3    3  502    0 -0.86074235189E+02  0.11916378366E+02  0.79465393890E+02  0.11782612301E+03  0.41800000000E+01 0. -1.
         -5    1    3    3    0  502  0.43778955041E+02  0.16786006106E+02  0.61491539759E+02  0.77440614457E+02  0.41800000000E+01 0. -1.
        -11    1    1    2    0    0 -0.24091666040E+02 -0.27718996542E+02  0.34515585976E+01  0.36887184748E+02  0.00000000000E+00 0.  1.
         11    1    1    2    0    0  0.66386946188E+02 -0.98338793095E+00  0.27263334747E+02  0.71773832958E+02  0.00000000000E+00 0. -1.
</event>
<event>
 7    1  0.3151015E-009  0.1293161E+03  0.7561462E-02  0.1228474E+00
          4   -1    0    0  501    0  0.00000000000E+00  0.00000000000E+00  0.71552814408E+03  0.71552814408E+03  0.00000000000E+00 0.  1.
         -4   -1    0    0    0  501 -0.00000000000E+00 -0.00000000000E+00 -0.40809770285E+02  0.40809770285E+02  0.00000000000E+00 0. -1.
         25    2    1    2    0    0  0.42922693829E+02  0.72915460210E+02  0.54590924217E+03  0.56641165968E+03  0.12508495335E+03 0.  0.
          5    1    3    3  502    0  0.53664070149E+02  0.10284153051E+03  0.37625561574E+03  0.39375369661E+03  0.41800000000E+01 0. -1.
         -5    1    3    3    0  502 -0.10741376320E+02 -0.29926070303E+02  0.16965362643E+03  0.17265796307E+03  0.41800000000E+01 0. -1.
        -11    1    1    2    0    0 -0.22242390068E+02  0.10464295323E+02  0.94126406926E+02  0.97283122243E+02  0.00000000000E+00 0.  1.
         11    1    1    2    0    0 -0.20680303761E+02 -0.83379755533E+02  0.34682724703E+02  0.92643132445E+02  0.00000000000E+00 0. -1.
</event>
<event>
 7    1  0.3151015E-009  0.1415909E+03  0.7561462E-02  0.1211204E+00
          2   -1    0    0  501    0  0.00000000000E+00  0.00000000000E+00  0.78181202266E+03  0.78181202266E+03  0.00000000000E+00 0. -1.
         -2   -1    0    0    0  501 -0.00000000000E+00 -0.00000000000E+00 -0.37820259958E+02  0.37820259958E+02  0.00000000000E+00 0.  1.
         25    2    1    2    0    0  0.12671631585E+03  0.31710517632E+02  0.48005181941E+03  0.51299071462E+03  0.12508853802E+03 0.  0.
          5    1    3    3  502    0  0.34994092731E+02  0.44808247775E+02  0.34173215795E+03  0.34645447865E+03  0.41800000000E+01 0.  1.
         -5    1    3    3    0  502  0.91722223124E+02 -0.13097730143E+02  0.13831966145E+03  0.16653623598E+03  0.41800000000E+01 0.  1.
        -11    1    1    2    0    0 -0.72421383595E+02 -0.41554804795E+01  0.21973711911E+03  0.23140122371E+03  0.00000000000E+00 0.  1.
         11    1    1    2    0    0 -0.54294932260E+02 -0.27555037152E+02  0.44202824185E+02  0.75240344281E+02  0.00000000000E+00 0. -1.
</event>
<event>
 7    1  0.3151015E-009  0.6738823E+02  0.7561462E-02  0.1369207E+00
         -1   -1    0    0    0  501 -0.00000000000E+00  0.00000000000E+00  0.13337187410E+03  0.13337187410E+03  0.00000000000E+00 0.  1.
          1   -1    0    0  501    0  0.00000000000E+00 -0.00000000000E+00 -0.12377966758E+03  0.12377966758E+03  0.00000000000E+00 0. -1.
         25    2    1    2    0    0  0.30295311462E+02 -0.52388917478E+00  0.66912070472E+02  0.14506418111E+03  0.12509320969E+03 0.  0.
          5    1    3    3  502    0 -0.70605174798E+01 -0.27690960855E+01 -0.35189829667E+02  0.36239692497E+02  0.41800000000E+01 0. -1.
         -5    1    3    3    0  502  0.37355828942E+02  0.22452069107E+01  0.10210190014E+03  0.10882448861E+03  0.41800000000E+01 0. -1.
        -11    1    1    2    0    0 -0.58269165754E+02 -0.88941155632E+01 -0.57817142760E+02  0.82566476044E+02  0.00000000000E+00 0. -1.
         11    1    1    2    0    0  0.27973854292E+02  0.94180047380E+01  0.49727881454E+00  0.29520884530E+02  0.00000000000E+00 0.  1.
</event>
<event>
 7    1  0.3151015E-009  0.9654930E+02  0.7561462E-02  0.1287724E+00
         -1   -1    0    0    0  501 -0.00000000000E+00  0.00000000000E+00  0.48749384003E+03  0.48749384003E+03  0.00000000000E+00 0.  1.
          1   -1    0    0  501    0  0.00000000000E+00 -0.00000000000E+00 -0.39772499969E+02  0.39772499969E+02  0.00000000000E+00 0. -1.
         25    2    1    2    0    0 -0.37950629401E+02 -0.39447125781E+02  0.11617377806E+03  0.17927551487E+03  0.12508811902E+03 0.  0.
          5    1    3    3  502    0 -0.77099750000E+01  0.19347455971E+02 -0.19153808744E+02  0.28602597023E+02  0.41800000000E+01 0. -1.
         -5    1    3    3    0  502 -0.30240654401E+02 -0.58794581753E+02  0.13532758681E+03  0.15067291785E+03  0.41800000000E+01 0. -1.
        -11    1    1    2    0    0  0.10644029207E+02 -0.29547693489E+02  0.91874466171E+02  0.97094176357E+02  0.00000000000E+00 0.  1.
         11    1    1    2    0    0  0.27306600194E+02  0.68994819270E+02  0.23967309583E+03  0.25089664877E+03  0.00000000000E+00 0. -1.
</event>
<event>
 7    1  0.3151015E-009  0.7981377E+02  0.7561462E-02  0.1329581E+00
          1   -1    0    0  501    0  0.00000000000E+00  0.00000000000E+00  0.20222162658E+03  0.20222162658E+03  0.00000000000E+00 0. -1.
         -1   -1    0    0    0  501 -0.00000000000E+00 -0.00000000000E+00 -0.66481235232E+02  0.66481235232E+02  0.00000000000E+00 0.  1.
         25    2    1    2    0    0 -0.32558043453E+02 -0.31528557791E+02  0.72064293612E+02  0.15130941936E+03  0.12508877577E+03 0.  0.
          5    1    3    3  502    0 -0.20624046886E+02  0.73645732558E+01 -0.32283325414E+02  0.39233579355E+02  0.41800000000E+01 0.  1.
         -5    1    3    3    0  502 -0.11933996566E+02 -0.38893131047E+02  0.10434761903E+03  0.11207584001E+03  0.41800000000E+01 0.  1.
        -11    1    1    2    0    0 -0.25109126342E+02 -0.81930394488E+01  0.29098755163E+02  0.39297985612E+02  0.00000000000E+00 0. -1.
         11    1    1    2    0    0  0.57667169795E+02  0.39721597240E+02  0.34577342569E+02  0.78095456837E+02  0.00000000000E+00 0.  1.
</event>
<event>
 7    1  0.3151015E-009  0.1483230E+03  0.7561462E-02  0.1202549E+00
          1   -1    0    0  501    0  0.00000000000E+00  0.00000000000E+00  0.21793747998E+03  0.21793747998E+03  0.00000000000E+00 0. -1.
         -1   -1    0    0    0  501 -0.00000000000E+00 -0.00000000000E+00 -0.19518626936E+03  0.19518626936E+03  0.00000000000E+00 0.  1.
         25    2    1    2    0    0  0.16654499173E+02  0.12802884534E+03 -0.10606953385E+03  0.20872792599E+03  0.12509134060E+03 0.  0.
          5    1    3    3  502    0  0.29071157960E+02  0.35469043429E+02 -0.10564395787E+03  0.11524453783E+03  0.41800000000E+01 0.  1.
         -5    1    3    3    0  502 -0.12416658787E+02  0.92559801914E+02 -0.42557598059E+00  0.93483388153E+02  0.41800000000E+01 0.  1.
        -11    1    1    2    0    0 -0.46381986593E+02 -0.31391102657E+02  0.32502302524E+02  0.64754070727E+02  0.00000000000E+00 0.  1.
         11    1    1    2    0    0  0.29727487420E+02 -0.96637742686E+02  0.96318441944E+02  0.13964175263E+03  0.00000000000E+00 0. -1.
</event>
<event>
 7    1  0.3151015E-009  0.8652042E+02  0.7561462E-02  0.1311504E+00
         -3   -1    0    0    0  501 -0.00000000000E+00  0.00000000000E+00  0.93832826041E+02  0.93832826041E+02  0.00000000000E+00 0.  1.
          3   -1    0    0  501    0  0.00000000000E+00 -0.00000000000E+00 -0.21170883000E+03  0.21170883000E+03  0.00000000000E+00 0. -1.
         25    2    1    2    0    0  0.45829385803E+02 -0.35579685078E+02  0.97953198435E+01  0.13823422950E+03  0.12508599971E+03 0.  0.
          5    1    3    3  502    0  0.53953399381E+02 -0.35565279593E+02 -0.47440307683E+02  0.80273990871E+02  0.41800000000E+01 0. -1.
         -5    1    3    3    0  502 -0.81240135779E+01 -0.14405485710E-01  0.57235627526E+02  0.57960238633E+02  0.41800000000E+01 0. -1.
        -11    1    1    2    0    0 -0.43097893577E+02 -0.17123249343E+02 -0.27052306128E+02  0.53688558983E+02  0.00000000000E+00 0. -1.
         11    1    1    2    0    0 -0.27314922263E+01  0.52702934421E+02 -0.10061901767E+03  0.11361886755E+03  0.00000000000E+00 0.  1.
</event>
<event>
 7    1  0.3151015E-009  0.1101093E+03  0.7561462E-02  0.1260368E+00
         -2   -1    0    0    0  501 -0.00000000000E+00  0.00000000000E+00  0.58071046805E+02  0.58071046805E+02  0.00000000000E+00 0. -1.
          2   -1    0    0  501    0  0.00000000000E+00 -0.00000000000E+00 -0.38835659584E+03  0.38835659584E+03  0.00000000000E+00 0.  1.
         25    2    1    2    0    0 -0.63264592829E+02  0.53776812638E+02 -0.27255516497E+03  0.31117279980E+03  0.12509132305E+03 0.  0.
          5    1    3    3  502    0 -0.61918835713E+02  0.16730383124E+02 -0.40133258873E+02  0.75775977745E+02  0.41800000000E+01 0.  1.
         -5    1    3    3    0  502 -0.13457571166E+01  0.37046429514E+02 -0.23242190610E+03  0.23539682206E+03  0.41800000000E+01 0.  1.
        -11    1    1    2    0    0  0.60106174496E+02 -0.75602681888E+02 -0.58975740650E+02  0.11316649551E+03  0.00000000000E+00 0.  1.
         11    1    1    2    0    0  0.31584183333E+01  0.21825869249E+02  0.12453565814E+01  0.22088347332E+02  0.00000000000E+00 0. -1.
</event>
<event>
 7    1  0.3151015E-009  0.8424584E+02  0.7561462E-02  0.1317417E+00
          2   -1    0    0  501    0  0.00000000000E+00  0.00000000000E+00  0.82479559507E+03  0.82479559507E+03  0.00000000000E+00 0. -1.
         -2   -1    0    0    0  501 -0.00000000000E+00 -0.00000000000E+00 -0.14248062347E+02  0.14248062347E+02  0.00000000000E+00 0.  1.
         25    2    1    2    0    0 -0.87310457376E+01  0.22607193874E+01  0.49630545126E+03  0.51190641911E+03  0.12509092277E+03 0.  0.
          5    1    3    3  502    0  0.90402670059E+01 -0.34824441301E+02  0.44287342874E+03  0.44435212886E+03  0.41800000000E+01 0.  1.
         -5    1    3    3    0  502 -0.17771312743E+02  0.37085160689E+02  0.53432022525E+02  0.67554290249E+02  0.41800000000E+01 0.  1.
        -11    1    1    2    0    0  0.11583847237E+02  0.43535750392E+02  0.15356674446E+03  0.16003840815E+03  0.00000000000E+00 0. -1.
         11    1    1    2    0    0 -0.28528014991E+01 -0.45796469780E+02  0.16067533701E+03  0.16709883017E+03  0.00000000000E+00 0.  1.
</event>
<event>
 7    1  0.3151015E-009  0.8320032E+02  0.7561462E-02  0.1320207E+00
          2   -1    0    0  501    0  0.00000000000E+00  0.00000000000E+00  0.59836419470E+02  0.59836419470E+02  0.00000000000E+00 0. -1.
         -2   -1    0    0    0  501 -0.00000000000E+00 -0.00000000000E+00 -0.21454539246E+03  0.21454539246E+03  0.00000000000E+00 0.  1.
         25    2    1    2    0    0 -0.17949420408E+02  0.29510511928E+02 -0.78257537032E+02  0.15154498955E+03  0.12509432340E+03 0.  0.
          5    1    3    3  502    0 -0.66354143149E+01 -0.23789718322E+02  0.24576609388E+02  0.35092186451E+02  0.41800000000E+01 0. -1.
         -5    1    3    3    0  502 -0.11314006094E+02  0.53300230250E+02 -0.10283414642E+03  0.11645280309E+03  0.41800000000E+01 0. -1.
        -11    1    1    2    0    0  0.43588956463E+02 -0.39848542919E+02 -0.74574944339E+02  0.95127944482E+02  0.00000000000E+00 0. -1.
         11    1    1    2    0    0 -0.25639536055E+02  0.10338030991E+02 -0.18764916209E+01  0.27708877903E+02  0.00000000000E+00 0.  1.
</event>
<event>
 7    1  0.3151015E-009  0.2239845E+03  0.7561462E-02  0.1130947E+00
         -2   -1    0    0    0  501 -0.00000000000E+00  0.00000000000E+00  0.75868089227E+02  0.75868089227E+02  0.00000000000E+00 0.  1.
          2   -1    0    0  501    0  0.00000000000E+00 -0.00000000000E+00 -0.82386605432E+03  0.82386605432E+03  0.00000000000E+00 0. -1.
         25    2    1    2    0    0  0.13781445057E+03 -0.14320806305E+03 -0.19537055841E+03  0.30547758169E+03  0.12508207591E+03 0.  0.
          5    1    3    3  502    0  0.15062610599E+03 -0.90734985327E+02 -0.12111199888E+03  0.21355713531E+03  0.41800000000E+01 0. -1.
         -5    1    3    3    0  502 -0.12811655420E+02 -0.52473077724E+02 -0.74258559527E+02  0.91920446385E+02  0.41800000000E+01 0. -1.
        -11    1    1    2    0    0 -0.14007018715E+03  0.94109405872E+02 -0.44561464980E+03  0.47649622634E+03  0.00000000000E+00 0. -1.
         11    1    1    2    0    0  0.22557365796E+01  0.49098657179E+02 -0.10701275689E+03  0.11776033552E+03  0.00000000000E+00 0.  1.
</event>
<event>
 7    1  0.3151015E-009  0.1196240E+03  0.7561462E-02  0.1243719E+00
          2   -1    0    0  501    0  0.00000000000E+00  0.00000000000E+00  0.53137851636E+03  0.53137851636E+03  0.00000000000E+00 0.  1.
         -2   -1    0    0    0  501 -0.00000000000E+00 -0.00000000000E+00 -0.89415656853E+02  0.89415656853E+02  0.00000000000E+00 0. -1.
         25    2    1    2    0    0  0.61620826787E+02  0.88915451390E+02  0.92292811715E+01  0.16564059841E+03  0.12509414223E+03 0.  0.
          5    1    3    3  502    0  0.48043973562E+02  0.54314234979E+02  0.65677405719E+02  0.97924734050E+02  0.41800000000E+01 0.  1.
         -5    1    3    3    0  502  0.13576853226E+02  0.34601216411E+02 -0.56448124547E+02  0.67715864356E+02  0.41800000000E+01 0.  1.
        -11    1    1    2    0    0  0.11907449272E+02 -0.37874973934E+02  0.60900671841E+02  0.72699331698E+02  0.00000000000E+00 0. -1.
         11    1    1    2    0    0 -0.73528276059E+02 -0.51040477456E+02  0.37183290650E+03  0.38245424311E+03  0.00000000000E+00 0.  1.
</event>
<event>
 7    1  0.3151015E-009  0.1543363E+03  0.7561462E-02  0.1195244E+00
          3   -1    0    0  501    0  0.00000000000E+00  0.00000000000E+00  0.70021999458E+02  0.70021999458E+02  0.00000000000E+00 0. -1.
         -3   -1    0    0    0  501 -0.00000000000E+00 -0.00000000000E+00 -0.43599673950E+03  0.43599673950E+03  0.00000000000E+00 0.  1.
         25    2    1    2    0    0  0.13611857100E+03  0.27473841971E+02 -0.20628486121E+03  0.27836010785E+03  0.12509127991E+03 0.  0.
          5    1    3    3  502    0  0.43956389510E+02 -0.30318912850E+02 -0.14238943082E+03  0.15213028319E+03  0.41800000000E+01 0. -1.
         -5    1    3    3    0  502  0.92162181493E+02  0.57792754821E+02 -0.63895430396E+02  0.12622982466E+03  0.41800000000E+01 0. -1.
        -11    1    1    2    0    0 -0.55332154349E+02 -0.34416989294E+02 -0.12184987879E+03  0.13817948262E+03  0.00000000000E+00 0.  1.
         11    1    1    2    0    0 -0.80786416654E+02  0.69431473230E+01 -0.37840000034E+02  0.89479148483E+02  0.00000000000E+00 0. -1.
</event>
<event>
 7    1  0.3151015E-009  0.1439692E+03  0.7561462E-02  0.1208086E+00
         -2   -1    0    0    0  501 -0.00000000000E+00  0.00000000000E+00  0.20079915732E+03  0.20079915732E+03  0.00000000000E+00 0.  1.
          2   -1    0    0  501    0  0.00000000000E+00 -0.00000000000E+00 -0.13581009763E+03  0.13581009763E+03  0.00000000000E+00 0. -1.
         25    2    1    2    0    0 -0.72129925140E+02 -0.96840009456E+02 -0.15927412797E+02  0.17458604213E+03  0.12508353248E+03 0.  0.
          5    1    3    3  502    0 -0.63172340825E+02  0.60771890607E+01 -0.29857410809E+02  0.70261043633E+02  0.41800000000E+01 0. -1.
         -5    1    3    3    0  502 -0.89575843154E+01 -0.10291719852E+03  0.13929998012E+02  0.10432499850E+03  0.41800000000E+01 0. -1.
        -11    1    1    2    0    0  0.55296891918E+01  0.10879251459E+02  0.46334430137E+02  0.47914663632E+02  0.00000000000E+00 0.  1.
         11    1    1    2    0    0  0.66600235948E+02  0.85960757997E+02  0.34582042352E+02  0.11410854918E+03  0.00000000000E+00 0. -1.
</event>
<event>
 7    1  0.3151015E-009  0.8681599E+02  0.7561462E-02  0.1310751E+00
         -3   -1    0    0    0  501 -0.00000000000E+00  0.00000000000E+00  0.45591716289E+03  0.45591716289E+03  0.00000000000E+00 0. -1.
          3   -1    0    0  501    0  0.00000000000E+00 -0.00000000000E+00 -0.25532608123E+02  0.25532608123E+02  0.00000000000E+00 0.  1.
         25    2    1    2    0    0  0.71080141615E+00 -0.18605516876E+02  0.24692974430E+03  0.27742912201E+03  0.12508376642E+03 0.  0.
          5    1    3    3  502    0 -0.51052968880E+02  0.23674804652E+02  0.83179887038E+02  0.10051501388E+03  0.41800000000E+01 0. -1.
         -5    1    3    3    0  502  0.51763770297E+02 -0.42280321527E+02  0.16374985726E+03  0.17691410814E+03  0.41800000000E+01 0. -1.
        -11    1    1    2    0    0  0.15252084994E+02 -0.94596165520E+01  0.20542348542E+00  0.17948611110E+02  0.00000000000E+00 0.  1.
         11    1    1    2    0    0 -0.15962886410E+02  0.28065133428E+02  0.18324938698E+03  0.18607203789E+03  0.00000000000E+00 0. -1.
</event>
<event>
 7    1  0.3585889E-009  0.9817010E+02  0.7561462E-02  0.1284192E+00
          2   -1    0    0  501    0  0.00000000000E+00  0.00000000000E+00  0.93680778647E+02  0.93680778647E+02  0.00000000000E+00 0. -1.
         -2   -1    0    0    0  501 -0.00000000000E+00 -0.00000000000E+00 -0.15070237970E+03  0.15070237970E+03  0.00000000000E+00 0.  1.
         25    2    1    2    0    0  0.34244255194E+01  0.57671916623E+01 -0.82229467750E+02  0.14984731247E+03  0.12509014549E+03 0.  0.
          5    1    3    3  502    0 -0.57616417195E+02 -0.14424140583E+02 -0.28773323586E+02  0.66129296928E+02  0.41800000000E+01 0.  1.
         -5    1    3    3    0  502  0.61040842714E+02  0.20191332246E+02 -0.53456144164E+02  0.83718015540E+02  0.41800000000E+01 0.  1.
        -11    1    1    2    0    0 -0.37098512486E+02 -0.10019882251E+02 -0.15585949544E+02  0.41468295024E+02  0.00000000000E+00 0.  1.
         11    1    1    2    0    0  0.33674086967E+02  0.42526905883E+01  0.40793816241E+02  0.53067550855E+02  0.00000000000E+00 0. -1.
</event>
<event>
 7    1  0.3151015E-009  0.1068896E+03  0.7561462E-02  0.1266441E+00
         -1   -1    0    0    0  501 -0.00000000000E+00  0.00000000000E+00  0.41341168223E+02  0.41341168223E+02  0.00000000000E+00 0.  1.
          1   -1    0    0  501    0  0.00000000000E+00 -0.00000000000E+00 -0.35532504160E+03  0.35532504160E+03  0.00000000000E+00 0. -1.
         25    2    1    2    0    0 -0.33433209389E+02  0.32263394415E+02 -0.22107731467E+03  0.25822362106E+03  0.12508218618E+03 0.  0.
          5    1    3    3  502    0 -0.79265383873E+02  0.33711826596E+02 -0.12742206362E+03  0.15386144102E+03  0.41800000000E+01 0. -1.
         -5    1    3    3    0  502  0.45832174484E+02 -0.14484321815E+01 -0.93655251050E+02  0.10436218004E+03  0.41800000000E+01 0. -1.
        -11    1    1    2    0    0  0.11703464972E+02  0.20960936340E+02  0.53570053818E+01  0.24597346427E+02  0.00000000000E+00 0.  1.
         11    1    1    2    0    0  0.21729744417E+02 -0.53224330754E+02 -0.98263564084E+02  0.11384524234E+03  0.00000000000E+00 0. -1.
</event>
<event>
 7    1  0.3151015E-009  0.1641293E+03  0.7561462E-02  0.1184112E+00
         -2   -1    0    0    0  501 -0.00000000000E+00  0.00000000000E+00  0.14398666193E+03  0.14398666193E+03  0.00000000000E+00 0. -1.
          2   -1    0    0  501    0  0.00000000000E+00 -0.00000000000E+00 -0.23936002779E+03  0.23936002779E+03  0.00000000000E+00 0.  1.
         25    2    1    2    0    0  0.38749244544E+02 -0.12443022824E+03  0.26826119322E+02  0.18261811878E+03  0.12508137742E+03 0.  0.
          5    1    3    3  502    0 -0.12817646837E+01  0.19577932425E+02 -0.17541137078E+02  0.26647743784E+02  0.41800000000E+01 0. -1.
         -5    1    3    3    0  502  0.40031009228E+02 -0.14400816066E+03  0.44367256400E+02  0.15597037500E+03  0.41800000000E+01 0. -1.
        -11    1    1    2    0    0  0.26665159618E+02  0.65137559369E+02 -0.62717328243E+02  0.94272984677E+02  0.00000000000E+00 0. -1.
         11    1    1    2    0    0 -0.65414404162E+02  0.59292668867E+02 -0.59482156932E+02  0.10645558626E+03  0.00000000000E+00 0.  1.
</event>
<event>
 7    1  0.3151015E-009  0.1239619E+03  0.7561462E-02  0.1236701E+00
         -2   -1    0    0    0  501 -0.00000000000E+00  0.00000000000E+00  0.30731471507E+02  0.30731471507E+02  0.00000000000E+00 0.  1.
          2   -1    0    0  501    0  0.00000000000E+00 -0.00000000000E+00 -0.64829092494E+03  0.64829092494E+03  0.00000000000E+00 0. -1.
         25    2    1    2    0    0 -0.29537031254E+02 -0.83954609208E+02 -0.38790030244E+03  0.41717529792E+03  0.12509105461E+03 0.  0.
          5    1    3    3  502    0 -0.54732622897E+02 -0.28908245711E+02 -0.70000206762E+02  0.93535276907E+02  0.41800000000E+01 0.  1.
         -5    1    3    3    0  502  0.25195591643E+02 -0.55046363497E+02 -0.31790009568E+03  0.32364002102E+03  0.41800000000E+01 0.  1.
        -11    1    1    2    0    0 -0.27904222984E+02  0.53132233510E+02 -0.12264902630E+03  0.13654473095E+03  0.00000000000E+00 0.  1.
         11    1    1    2    0    0  0.57441254238E+02  0.30822375698E+02 -0.10701012470E+03  0.12530236758E+03  0.00000000000E+00 0. -1.
</event>
<event>
 7    1  0.3151015E-009  0.7855539E+02  0.7561462E-02  0.1333202E+00
         -2   -1    0    0    0  501 -0.00000000000E+00  0.00000000000E+00  0.10982624410E+04  0.10982624410E+04  0.00000000000E+00 0.  1.
          2   -1    0    0  501    0  0.00000000000E+00 -0.00000000000E+00 -0.18631730177E+02  0.18631730177E+02  0.00000000000E+00 0. -1.
         25    2    1    2    0    0 -0.20473612363E+02 -0.49413662623E+01  0.93528996092E+03  0.94385267434E+03  0.12508786497E+03 0.  0.
          5    1    3    3  502    0 -0.23464208498E+02 -0.41417523238E+02  0.14431918045E+03  0.15202459853E+03  0.41800000000E+01 0.  1.
         -5    1    3    3    0  502  0.29905961349E+01  0.36476156976E+02  0.79097078047E+03  0.79182807582E+03  0.41800000000E+01 0.  1.
        -11    1    1    2    0    0  0.32579504798E+02 -0.24429234156E+02  0.13334577980E+03  0.13942492103E+03  0.00000000000E+00 0.  1.
         11    1    1    2    0    0 -0.12105892435E+02  0.29370600418E+02  0.10994970092E+02  0.33616575791E+02  0.00000000000E+00 0. -1.
</event>
<event>
 7    1  0.3151015E-009  0.1969719E+03  0.7561462E-02  0.1152319E+00
         -2   -1    0    0    0  501 -0.00000000000E+00  0.00000000000E+00  0.64919073384E+02  0.64919073384E+02  0.00000000000E+00 0. -1.
          2   -1    0    0  501    0  0.00000000000E+00 -0.00000000000E+00 -0.76688043977E+03  0.76688043977E+03  0.00000000000E+00 0.  1.
         25    2    1    2    0    0 -0.16786008899E+03  0.20601324254E+02 -0.18449196552E+03  0.27979777143E+03  0.12509230000E+03 0.  0.
          5    1    3    3  502    0 -0.51526908283E+02  0.66936427315E+02 -0.83790029573E+02  0.11905355532E+03  0.41800000000E+01 0.  1.
         -5    1    3    3    0  502 -0.11633318070E+03 -0.46335103060E+02 -0.10070193594E+03  0.16074421610E+03  0.41800000000E+01 0.  1.
        -11    1    1    2    0    0  0.15377074577E+03 -0.41132481955E+02 -0.48861255155E+03  0.51388670819E+03  0.00000000000E+00 0.  1.
         11    1    1    2    0    0  0.14089343212E+02  0.20531157701E+02 -0.28856849325E+02  0.38115033539E+02  0.00000000000E+00 0. -1.
</event>
<event>
 7    1  0.3151015E-009  0.1174096E+03  0.7561462E-02  0.1247433E+00
         -1   -1    0    0    0  501 -0.00000000000E+00  0.00000000000E+00  0.32673943872E+02  0.32673943872E+02  0.00000000000E+00 0.  1.
          1   -1    0    0  501    0  0.00000000000E+00 -0.00000000000E+00 -0.51777446576E+03  0.51777446576E+03  0.00000000000E+00 0. -1.
         25    2    1    2    0    0 -0.29429296621E+02 -0.46663416417E+02 -0.17004008992E+03  0.21818470096E+03  0.12508946247E+03 0.  0.
          5    1    3    3  502    0 -0.57399921792E+02 -0.72469326852E+02 -0.88239779261E+02  0.12786823452E+03  0.41800000000E+01 0. -1.
         -5    1    3    3    0  502  0.27970625170E+02  0.25805910435E+02 -0.81800310654E+02  0.90316466433E+02  0.41800000000E+01 0. -1.
        -11    1    1    2    0    0  0.52455312754E+00 -0.25888602273E+02 -0.10527846495E+03  0.10841609689E+03  0.00000000000E+00 0. -1.
         11    1    1    2    0    0  0.28904743494E+02  0.72552018690E+02 -0.20978196702E+03  0.22384761178E+03  0.00000000000E+00 0.  1.
</event>
<event>
 7    1  0.3151015E-009  0.1354656E+03  0.7561462E-02  0.1219564E+00
         -3   -1    0    0    0  501 -0.00000000000E+00  0.00000000000E+00  0.16666147434E+03  0.16666147434E+03  0.00000000000E+00 0. -1.
          3   -1    0    0  501    0  0.00000000000E+00 -0.00000000000E+00 -0.11577499244E+03  0.11577499244E+03  0.00000000000E+00 0.  1.
         25    2    1    2    0    0  0.60926212336E+02 -0.57587385546E+02  0.54443177167E+01  0.15068238916E+03  0.12508889433E+03 0.  0.
          5    1    3    3  502    0  0.16284984503E+02  0.39888985355E+02  0.19783801017E+01  0.43332646593E+02  0.41800000000E+01 0. -1.
         -5    1    3    3    0  502  0.44641227832E+02 -0.97476370901E+02  0.34659376150E+01  0.10734974257E+03  0.41800000000E+01 0. -1.
        -11    1    1    2    0    0  0.11001539283E+02  0.46242359237E+02  0.33600057453E+01  0.47651645228E+02  0.00000000000E+00 0.  1.
         11    1    1    2    0    0 -0.71927751618E+02  0.11345026309E+02  0.42082158441E+02  0.84102432390E+02  0.00000000000E+00 0. -1.
</event>
<event>
 7    1  0.3151015E-009  0.1833891E+03  0.7561462E-02  0.1164563E+00
         -2   -1    0    0    0  501 -0.00000000000E+00  0.00000000000E+00  0.29437523683E+03  0.29437523683E+03  0.00000000000E+00 0.  1.
          2   -1    0    0  501    0  0.00000000000E+00 -0.00000000000E+00 -0.14823127975E+03  0.14823127975E+03  0.00000000000E+00 0. -1.
         25    2    1    2    0    0  0.11980996740E+03 -0.11136584240E+03  0.16311767567E+01  0.20592768110E+03  0.12508704955E+03 0.  0.
          5    1    3    3  502    0  0.99941790483E+02 -0.16118538280E+02  0.27841341107E+02  0.10507512282E+03  0.41800000000E+01 0.  1.
         -5    1    3    3    0  502  0.19868176917E+02 -0.95247304122E+02 -0.26210164351E+02  0.10085255828E+03  0.41800000000E+01 0.  1.
        -11    1    1    2    0    0 -0.76367159106E+01  0.26032861930E+02 -0.87082848460E+01  0.28493219459E+02  0.00000000000E+00 0. -1.
         11    1    1    2    0    0 -0.11217325149E+03  0.85332980472E+02  0.15322106517E+03  0.20818561602E+03  0.00000000000E+00 0.  1.
</event>
<event>
 7    1  0.3151015E-009  0.1620365E+03  0.7561462E-02  0.1186417E+00
         -2   -1    0    0    0  501 -0.00000000000E+00  0.00000000000E+00  0.24367743994E+02  0.24367743994E+02  0.00000000000E+00 0.  1.
          2   -1    0    0  501    0  0.00000000000E+00 -0.00000000000E+00 -0.14053252058E+04  0.14053252058E+04  0.00000000000E+00 0. -1.
         25    2    1    2    0    0  0.75683830738E+02 -0.11576143423E+03 -0.50263397874E+03  0.53611304543E+03  0.12509008359E+03 0.  0.
          5    1    3    3  502    0 -0.38533690949E+01  0.96282452051E+01  0.81037853298E+00  0.11210739158E+02  0.41800000000E+01 0. -1.
         -5    1    3    3    0  502  0.79537199833E+02 -0.12538967943E+03 -0.50344435727E+03  0.52490230628E+03  0.41800000000E+01 0. -1.
        -11    1    1    2    0    0  0.18461471547E+02  0.37962584236E+02 -0.21422038949E+03  0.21834000780E+03  0.00000000000E+00 0.  1.
         11    1    1    2    0    0 -0.94145302285E+02  0.77798849993E+02 -0.66410309356E+03  0.67523989654E+03  0.00000000000E+00 0. -1.
</event>
<event>
 7    1  0.3151015E-009  0.9107092E+02  0.7561462E-02  0.1300279E+00
          1   -1    0    0  501    0  0.00000000000E+00  0.00000000000E+00  0.10462249580E+03  0.10462249580E+03  0.00000000000E+00 0. -1.
         -1   -1    0    0    0  501 -0.00000000000E+00 -0.00000000000E+00 -0.12426350474E+03  0.12426350474E+03  0.00000000000E+00 0.  1.
         25    2    1    2    0    0 -0.13739418406E+02 -0.24602957127E+02 -0.34974374677E+02  0.13290926647E+03  0.12509032382E+03 0.  0.
          5    1    3    3  502    0  0.56429052219E+00  0.31093760058E+02  0.31808803267E+02  0.44681234357E+02  0.41800000000E+01 0.  1.
         -5    1    3    3    0  502 -0.14303708928E+02 -0.55696717185E+02 -0.66783177945E+02  0.88228032114E+02  0.41800000000E+01 0.  1.
        -11    1    1    2    0    0 -0.13609433402E+00  0.57449900977E+02  0.18042302620E+02  0.60216561906E+02  0.00000000000E+00 0. -1.
         11    1    1    2    0    0  0.13875512740E+02 -0.32846943850E+02 -0.27089368773E+01  0.35760172163E+02  0.00000000000E+00 0.  1.
</event>
<event>
 7    1  0.3151015E-009  0.1992297E+03  0.7561462E-02  0.1150391E+00
         -2   -1    0    0    0  501 -0.00000000000E+00  0.00000000000E+00  0.11542008492E+03  0.11542008492E+03  0.00000000000E+00 0.  1.
          2   -1    0    0  501    0  0.00000000000E+00 -0.00000000000E+00 -0.41345695059E+03  0.41345695059E+03  0.00000000000E+00 0. -1.
         25    2    1    2    0    0 -0.17872138053E+03 -0.58492292384E+02 -0.12585788029E+03  0.25855599109E+03  0.12509322271E+03 0.  0.
          5    1    3    3  502    0 -0.15297874242E+03 -0.11057715595E+02 -0.42583850395E+02  0.15923449821E+03  0.41800000000E+01 0.  1.
         -5    1    3    3    0  502 -0.25742638111E+02 -0.47434576788E+02 -0.83274029897E+02  0.99321492877E+02  0.41800000000E+01 0.  1.
        -11    1    1    2    0    0  0.84886045325E+02  0.10607909599E+02 -0.13256763399E+03  0.15777308395E+03  0.00000000000E+00 0. -1.
         11    1    1    2    0    0  0.93835335202E+02  0.47884382785E+02 -0.39611351388E+02  0.11254796047E+03  0.00000000000E+00 0.  1.
</event>
<event>
 7    1  0.3151015E-009  0.1040440E+03  0.7561462E-02  0.1272015E+00
         -1   -1    0    0    0  501 -0.00000000000E+00  0.00000000000E+00  0.29611417587E+02  0.29611417587E+02  0.00000000000E+00 0.  1.
          1   -1    0    0  501    0  0.00000000000E+00 -0.00000000000E+00 -0.55777523839E+03  0.55777523839E+03  0.00000000000E+00 0. -1.
         25    2    1    2    0    0  0.41618767547E+02  0.14775062890E+02 -0.40047489478E+03  0.42187523573E+03  0.12509256124E+03 0.  0.
          5    1    3    3  502    0 -0.20343762051E+02  0.43727936537E+02 -0.75003300072E+02  0.89269079248E+02  0.41800000000E+01 0.  1.
         -5    1    3    3    0  502  0.61962529597E+02 -0.28952873647E+02 -0.32547159471E+03  0.33260615648E+03  0.41800000000E+01 0.  1.
        -11    1    1    2    0    0  0.20888227206E+02 -0.19363464268E+02 -0.85088213232E+02  0.89728846060E+02  0.00000000000E+00 0. -1.
         11    1    1    2    0    0 -0.62506994752E+02  0.45884013777E+01 -0.42600712787E+02  0.75782574185E+02  0.00000000000E+00 0.  1.
</event>
<event>
 7    1  0.3151015E-009  0.1632103E+03  0.7561462E-02  0.1185119E+00
          2   -1    0    0  501    0  0.00000000000E+00  0.00000000000E+00  0.15635397156E+04  0.15635397156E+04  0.00000000000E+00 0. -1.
         -2   -1    0    0    0  501 -0.00000000000E+00 -0.00000000000E+00 -0.22571413349E+02  0.22571413349E+02  0.00000000000E+00 0.  1.
         25    2    1    2    0    0  0.96637335303E+00  0.14516665167E+03  0.68792136842E+03  0.71411381822E+03  0.12509374730E+03 0.  0.
          5    1    3    3  502    0  0.11585348469E+02  0.41554830737E+02  0.47574190657E+03  0.47771210820E+03  0.41800000000E+01 0. -1.
         -5    1    3    3    0  502 -0.10618975116E+02  0.10361182093E+03  0.21217946186E+03  0.23640171003E+03  0.41800000000E+01 0. -1.
        -11    1    1    2    0    0 -0.52567207637E+02 -0.79863058754E+02  0.51934888091E+03  0.52807639559E+03  0.00000000000E+00 0.  1.
         11    1    1    2    0    0  0.51600834284E+02 -0.65303592918E+02  0.33369805291E+03  0.34392091513E+03  0.00000000000E+00 0. -1.
</event>
<event>
 7    1  0.3151015E-009  0.6556426E+02  0.7561462E-02  0.1375861E+00
         -2   -1    0    0    0  501 -0.00000000000E+00  0.00000000000E+00  0.14579586825E+03  0.14579586825E+03  0.00000000000E+00 0.  1.
          2   -1    0    0  501    0  0.00000000000E+00 -0.00000000000E+00 -0.11726045361E+03  0.11726045361E+03  0.00000000000E+00 0. -1.
         25    2    1    2    0    0 -0.27291771178E+02  0.20699943436E+00  0.78138274090E+02  0.14999483697E+03  0.12509187670E+03 0.  0.
          5    1    3    3  502    0  0.97351015764E+01  0.28592135358E+02  0.95337579901E+02  0.10009499962E+03  0.41800000000E+01 0.  1.
         -5    1    3    3    0  502 -0.37026872754E+02 -0.28385135923E+02 -0.17199305812E+02  0.49899837352E+02  0.41800000000E+01 0.  1.
        -11    1    1    2    0    0  0.27374642659E+02  0.19801665154E+02  0.20931357331E+02  0.39744165903E+02  0.00000000000E+00 0.  1.
         11    1    1    2    0    0 -0.82871481886E-01 -0.20008664589E+02 -0.70534216782E+02  0.73317318986E+02  0.00000000000E+00 0. -1.
</event>
<event>
 7    1  0.3151015E-009  0.1264051E+03  0.7561462E-02  0.1232889E+00
         -3   -1    0    0    0  501 -0.00000000000E+00  0.00000000000E+00  0.77616214782E+03  0.77616214782E+03  0.00000000000E+00 0.  1.
          3   -1    0    0  501    0  0.00000000000E+00 -0.00000000000E+00 -0.33869866723E+02  0.33869866723E+02  0.00000000000E+00 0. -1.
         25    2    1    2    0    0  0.84504547304E+02 -0.53306929634E+02  0.56632750581E+03  0.58852137002E+03  0.12509161392E+03 0.  0.
          5    1    3    3  502    0  0.48559538113E+02  0.32842275777E+02  0.31389718510E+03  0.31935177944E+03  0.41800000000E+01 0.  1.
         -5    1    3    3    0  502  0.35945009191E+02 -0.86149205410E+02  0.25243032071E+03  0.26916959058E+03  0.41800000000E+01 0.  1.
        -11    1    1    2    0    0 -0.32801967950E+02  0.27539763923E+02  0.15377431579E+03  0.15962752862E+03  0.00000000000E+00 0.  1.
         11    1    1    2    0    0 -0.51702579354E+02  0.25767165710E+02  0.22190459504E+02  0.61883115901E+02  0.00000000000E+00 0. -1.
</event>
<event>
 7    1  0.3151015E-009  0.1762819E+03  0.7561462E-02  0.1171451E+00
          1   -1    0    0  501    0  0.00000000000E+00  0.00000000000E+00  0.89569198799E+03  0.89569198799E+03  0.00000000000E+00 0. -1.
         -1   -1    0    0    0  501 -0.00000000000E+00 -0.00000000000E+00 -0.45436660393E+02  0.45436660393E+02  0.00000000000E+00 0.  1.
         25    2    1    2    0    0  0.15252915551E+03 -0.32222283040E+02  0.60219560011E+03  0.63449964626E+03  0.12508733548E+03 0.  0.
          5    1    3    3  502    0  0.17280282131E+03 -0.29537751082E+02  0.49131787009E+03  0.52167424286E+03  0.41800000000E+01 0. -1.
         -5    1    3    3    0  502 -0.20273665798E+02 -0.26845319579E+01  0.11087773002E+03  0.11282540340E+03  0.41800000000E+01 0. -1.
        -11    1    1    2    0    0 -0.56327621982E+02  0.17678547393E+02  0.26626406011E+02  0.64763396553E+02  0.00000000000E+00 0.  1.
         11    1    1    2    0    0 -0.96201533532E+02  0.14543735647E+02  0.22143332147E+03  0.24186560557E+03  0.00000000000E+00 0. -1.
</event>
<event>
 7    1  0.3151015E-009  0.1508741E+03  0.7561462E-02  0.1199403E+00
          1   -1    0    0  501    0  0.00000000000E+00  0.00000000000E+00  0.59999899949E+03  0.59999899949E+03  0.00000000000E+00 0. -1.
         -1   -1    0    0    0  501 -0.00000000000E+00 -0.00000000000E+00 -0.44272617077E+02  0.44272617077E+02  0.00000000000E+00 0.  1.
         25    2    1    2    0    0 -0.63664392626E+02  0.98070079960E+02  0.36327385030E+03  0.40160453246E+03  0.12508962670E+03 0.  0.
          5    1    3    3  502    0  0.31586167311E+02  0.23979520686E+02  0.39846614908E+02  0.56373118570E+02  0.41800000000E+01 0. -1.
         -5    1    3    3    0  502 -0.95250559937E+02  0.74090559274E+02  0.32342723539E+03  0.34523141389E+03  0.41800000000E+01 0. -1.
        -11    1    1    2    0    0 -0.18553290852E+02 -0.11995085487E+02  0.87314552930E+01  0.23755946388E+02  0.00000000000E+00 0.  1.
         11    1    1    2    0    0  0.82217683478E+02 -0.86074994473E+02  0.18372107682E+03  0.21891113772E+03  0.00000000000E+00 0. -1.
</event>
<event>
 7    1  0.3151015E-009  0.9477895E+02  0.7561462E-02  0.1291675E+00
          1   -1    0    0  501    0  0.00000000000E+00  0.00000000000E+00  0.15008456040E+03  0.15008456040E+03  0.00000000000E+00 0. -1.
         -1   -1    0    0    0  501 -0.00000000000E+00 -0.00000000000E+00 -0.11800743533E+03  0.11800743533E+03  0.00000000000E+00 0.  1.
         25    2    1    2    0    0 -0.23264824076E+02 -0.70978079980E+02  0.55386005573E+02  0.15587167654E+03  0.12509688269E+03 0.  0.
          5    1    3    3  502    0  0.12782018048E+02 -0.17793883174E+02 -0.37036302050E+02  0.43233810072E+02  0.41800000000E+01 0. -1.
         -5    1    3    3    0  502 -0.36046842124E+02 -0.53184196807E+02  0.92422307623E+02  0.11263786647E+03  0.41800000000E+01 0. -1.
        -11    1    1    2    0    0 -0.12518603808E+02 -0.88880375952E+01  0.10283437513E+02  0.18478683413E+02  0.00000000000E+00 0. -1.
         11    1    1    2    0    0  0.35783427884E+02  0.79866117575E+02 -0.33592318018E+02  0.93741635774E+02  0.00000000000E+00 0.  1.
</event>
<event>
 7    1  0.3151015E-009  0.2317809E+03  0.7561462E-02  0.1125393E+00
         -1   -1    0    0    0  501 -0.00000000000E+00  0.00000000000E+00  0.47142835661E+02  0.47142835661E+02  0.00000000000E+00 0.  1.
          1   -1    0    0  501    0  0.00000000000E+00 -0.00000000000E+00 -0.14479397575E+04  0.14479397575E+04  0.00000000000E+00 0. -1.
         25    2    1    2    0    0  0.13255431567E+03  0.17930910502E+03 -0.48715782929E+03  0.55017507251E+03  0.12508979985E+03 0.  0.
          5    1    3    3  502    0  0.12704552670E+03  0.13296698966E+03 -0.46137576115E+03  0.49669492807E+03  0.41800000000E+01 0.  1.
         -5    1    3    3    0  502  0.55087889683E+01  0.46342115361E+02 -0.25782068147E+02  0.53480144446E+02  0.41800000000E+01 0.  1.
        -11    1    1    2    0    0 -0.91558900098E+02 -0.16613564575E+03 -0.82273833359E+03  0.84432366456E+03  0.00000000000E+00 0. -1.
         11    1    1    2    0    0 -0.40995415570E+02 -0.13173459273E+02 -0.90900758954E+02  0.10058385609E+03  0.00000000000E+00 0.  1.
</event>
<event>
 7    1  0.3151015E-009  0.1075398E+03  0.7561462E-02  0.1265195E+00
          2   -1    0    0  501    0  0.00000000000E+00  0.00000000000E+00  0.87897412115E+02  0.87897412115E+02  0.00000000000E+00 0. -1.
         -2   -1    0    0    0  501 -0.00000000000E+00 -0.00000000000E+00 -0.21480308232E+03  0.21480308232E+03  0.00000000000E+00 0.  1.
         25    2    1    2    0    0 -0.64411647704E+02  0.37829025249E+02 -0.11238222957E+03  0.18400469180E+03  0.12509222825E+03 0.  0.
          5    1    3    3  502    0 -0.20675509314E+02 -0.30510030859E+02  0.87877777913E+01  0.38118710719E+02  0.41800000000E+01 0. -1.
         -5    1    3    3    0  502 -0.43736138391E+02  0.68339056108E+02 -0.12117000736E+03  0.14588598108E+03  0.41800000000E+01 0. -1.
        -11    1    1    2    0    0  0.69837448742E+02 -0.48326111055E+02 -0.37515928385E+02  0.92844639797E+02  0.00000000000E+00 0.  1.
         11    1    1    2    0    0 -0.54258010373E+01  0.10497085805E+02  0.22992487751E+02  0.25851162842E+02  0.00000000000E+00 0. -1.
</event>
<event>
 7    1  0.3151015E-009  0.9572332E+02  0.7561462E-02  0.1289555E+00
         -1   -1    0    0    0  501 -0.00000000000E+00  0.00000000000E+00  0.37050578826E+02  0.37050578826E+02  0.00000000000E+00 0.  1.
          1   -1    0    0  501    0  0.00000000000E+00 -0.00000000000E+00 -0.43441646393E+03  0.43441646393E+03  0.00000000000E+00 0. -1.
         25    2    1    2    0    0  0.36634742739E+02 -0.18679748653E+01 -0.31609849326E+03  0.34192290715E+03  0.12508966099E+03 0.  0.
          5    1    3    3  502    0 -0.23829621052E+02 -0.22734819765E+02 -0.19554576580E+02  0.38530205481E+02  0.41800000000E+01 0.  1.
         -5    1    3    3    0  502  0.60464363791E+02  0.20866844900E+02 -0.29654391668E+03  0.30339270167E+03  0.41800000000E+01 0.  1.
        -11    1    1    2    0    0 -0.27930708159E+02 -0.41439530559E+02 -0.19581868093E+02  0.53673165634E+02  0.00000000000E+00 0.  1.
         11    1    1    2    0    0 -0.87040345797E+01  0.43307505424E+02 -0.61685523746E+02  0.75870969968E+02  0.00000000000E+00 0. -1.
</event>
<event>
 6    1  0.3151015E-009  0.8944998E+02  0.7561462E-02  0.1304189E+00
         -2   -1    0    0    0  501 -0.00000000000E+00  0.00000000000E+00  0.10487476875E+03  0.10487476875E+03  0.00000000000E+00 0.  1.
          2   -1    0    0  501    0  0.00000000000E+00 -0.00000000000E+00 -0.12194756705E+03  0.12194756705E+03  0.00000000000E+00 0. -1.
          5    1    1    2  502    0 -0.51150138188E+02 -0.56300774725E+02  0.78351811833E+01  0.76583133492E+02  0.41800000000E+01 0.  1.
         -5    1    1    2    0  502  0.21456251127E+02  0.40414414485E+02 -0.29402804429E+02  0.54549912181E+02  0.41800000000E+01 0.  1.
        -11    1    1    2    0    0 -0.16442851434E+01 -0.13625527057E+02 -0.34797488833E+02  0.37406201228E+02  0.00000000000E+00 0. -1.
         11    1    1    2    0    0  0.31338172204E+02  0.29511887297E+02  0.39292313776E+02  0.58283088892E+02  0.00000000000E+00 0.  1.
</event>
<event>
 7    1  0.3151015E-009  0.2349592E+03  0.7561462E-02  0.1123197E+00
         -1   -1    0    0    0  501 -0.00000000000E+00  0.00000000000E+00  0.21841286462E+03  0.21841286462E+03  0.00000000000E+00 0.  1.
          1   -1    0    0  501    0  0.00000000000E+00 -0.00000000000E+00 -0.32520200917E+03  0.32520200917E+03  0.00000000000E+00 0. -1.
         25    2    1    2    0    0 -0.23232505530E+03 -0.42613156529E+01 -0.12706022892E+03  0.29289136939E+03  0.12509181572E+03 0.  0.
          5    1    3    3  502    0 -0.15408622748E+03  0.18633601355E+02 -0.17473753509E+02  0.15624525932E+03  0.41800000000E+01 0. -1.
         -5    1    3    3    0  502 -0.78238827813E+02 -0.22894917008E+02 -0.10958647541E+03  0.13664611006E+03  0.41800000000E+01 0. -1.
        -11    1    1    2    0    0  0.58863857440E+02  0.87289031053E+01  0.46123346053E+02  0.75289511310E+02  0.00000000000E+00 0.  1.
         11    1    1    2    0    0  0.17346119786E+03 -0.44675874524E+01 -0.25852261680E+02  0.17543399309E+03  0.00000000000E+00 0. -1.
</event>
<event>
 7    1  0.3151015E-009  0.1212504E+03  0.7561462E-02  0.1241048E+00
          1   -1    0    0  501    0  0.00000000000E+00  0.00000000000E+00  0.94406830891E+02  0.94406830891E+02  0.00000000000E+00 0. -1.
         -1   -1    0    0    0  501 -0.00000000000E+00 -0.00000000000E+00 -0.24056136882E+03  0.24056136882E+03  0.00000000000E+00 0.  1.
         25    2    1    2    0    0 -0.10280136632E+03 -0.20585543313E+02 -0.95764602453E+02  0.18924282842E+03  0.12510037376E+03 0.  0.
          5    1    3    3  502    0 -0.24264186048E+02 -0.15659885068E+02  0.29345392753E+02  0.41383658620E+02  0.41800000000E+01 0. -1.
         -5    1    3    3    0  502 -0.78537180271E+02 -0.49256582441E+01 -0.12510999521E+03  0.14785916980E+03  0.41800000000E+01 0. -1.
        -11    1    1    2    0    0  0.10104642812E+03  0.44591883371E+02 -0.50983663489E+02  0.12164764955E+03  0.00000000000E+00 0.  1.
         11    1    1    2    0    0  0.17549381960E+01 -0.24006340059E+02  0.59372801293E+00  0.24077721737E+02  0.00000000000E+00 0. -1.
</event>
<event>
 6    1  0.3151015E-009  0.1020866E+03  0.7561462E-02  0.1275968E+00
          1   -1    0    0  501    0  0.00000000000E+00  0.00000000000E+00  0.49867157845E+03  0.49867157845E+03  0.00000000000E+00 0. -1.
         -1   -1    0    0    0  501 -0.00000000000E+00 -0.00000000000E+00 -0.27228723689E+02  0.27228723689E+02  0.00000000000E+00 0.  1.
          5    1    1    2  502    0  0.22752992962E+02  0.43933189927E+02  0.14804873199E+03  0.15615288441E+03  0.41800000000E+01 0.  1.
         -5    1    1    2    0  502  0.37939085827E+01 -0.61903929599E+02  0.47890853867E+02  0.78469717255E+02  0.41800000000E+01 0.  1.
        -11    1    1    2    0    0 -0.51948229355E+02 -0.11753665299E+02  0.18874554843E+03  0.19611641755E+03  0.00000000000E+00 0.  1.
         11    1    1    2    0    0  0.25401327811E+02  0.29724404970E+02  0.86757720481E+02  0.95161282928E+02  0.00000000000E+00 0. -1.
</event>
<event>
 7    1  0.3151015E-009  0.1230149E+03  0.7561462E-02  0.1238205E+00
         -1   -1    0    0    0  501 -0.00000000000E+00  0.00000000000E+00  0.21978616276E+03  0.21978616276E+03  0.00000000000E+00 0.  1.
          1   -1    0    0  501    0  0.00000000000E+00 -0.00000000000E+00 -0.90689091999E+02  0.90689091999E+02  0.00000000000E+00 0. -1.
         25    2    1    2    0    0  0.54082300731E+02 -0.71409510160E+02  0.78042568190E+02  0.17251754668E+03  0.12508976005E+03 0.  0.
          5    1    3    3  502    0  0.54788224423E+02 -0.51445042587E+01  0.89488854945E+02  0.10513773356E+03  0.41800000000E+01 0.  1.
         -5    1    3    3    0  502 -0.70592369123E+00 -0.66265005902E+02 -0.11446286755E+02  0.67379813119E+02  0.41800000000E+01 0.  1.
        -11    1    1    2    0    0 -0.47126121769E+02  0.91640637382E+02  0.28599609308E+02  0.10694304758E+03  0.00000000000E+00 0. -1.
         11    1    1    2    0    0 -0.69561789621E+01 -0.20231127221E+02  0.22454893264E+02  0.31014660499E+02  0.00000000000E+00 0.  1.
</event>
<event>
 7    1  0.3151015E-009  0.9892666E+02  0.7561462E-02  0.1282569E+00
          3   -1    0    0  501    0  0.00000000000E+00  0.00000000000E+00  0.38941839425E+03  0.38941839425E+03  0.00000000000E+00 0. -1.
         -3   -1    0    0    0  501 -0.00000000000E+00 -0.00000000000E+00 -0.32039013235E+02  0.32039013235E+02  0.00000000000E+00 0.  1.
         25    2    1    2    0    0 -0.15180995709E+02  0.21954778237E+02  0.18411993908E+03  0.22418557314E+03  0.12508614760E+03 0.  0.
          5    1    3    3  502    0  0.42971830928E+02  0.16239904707E+02  0.20656653160E+02  0.50541888350E+02  0.41800000000E+01 0. -1.
         -5    1    3    3    0  502 -0.58152826637E+02  0.57148735302E+01  0.16346328592E+03  0.17364368479E+03  0.41800000000E+01 0. -1.
        -11    1    1    2    0    0  0.81739420129E+01 -0.56909237626E+02  0.91292640061E+02  0.10788800111E+03  0.00000000000E+00 0.  1.
         11    1    1    2    0    0  0.70070536957E+01  0.34954459389E+02  0.81966801878E+02  0.89383833229E+02  0.00000000000E+00 0. -1.
</event>
<event>
 7    1  0.3151015E-009  0.7474854E+02  0.7561462E-02  0.1344651E+00
          1   -1    0    0  501    0  0.00000000000E+00  0.00000000000E+00  0.52157292065E+03  0.52157292065E+03  0.00000000000E+00 0. -1.
         -1   -1    0    0    0  501 -0.00000000000E+00 -0.00000000000E+00 -0.27334363619E+02  0.27334363619E+02  0.00000000000E+00 0.  1.
         25    2    1    2    0    0 -0.14283548611E+02 -0.45891383702E+02  0.31305641501E+03  0.34053342995E+03  0.12509460049E+03 0.  0.
          5    1    3    3  502    0  0.13729893414E+01 -0.39045488010E+02  0.15156340551E+02  0.42114395313E+02  0.41800000000E+01 0.  1.
         -5    1    3    3    0  502 -0.15656537952E+02 -0.68458956924E+01  0.29790007446E+03  0.29841903463E+03  0.41800000000E+01 0.  1.
        -11    1    1    2    0    0  0.12244306330E+02  0.68664982448E+02  0.87266830347E+02  0.11171527438E+03  0.00000000000E+00 0.  1.
         11    1    1    2    0    0  0.20392422805E+01 -0.22773598745E+02  0.93915311674E+02  0.96658579938E+02  0.00000000000E+00 0. -1.
</event>
<event>
 7    1  0.3151015E-009  0.5858753E+02  0.7561462E-02  0.1403857E+00
         -1   -1    0    0    0  501 -0.00000000000E+00  0.00000000000E+00  0.24576975039E+03  0.24576975039E+03  0.00000000000E+00 0.  1.
          1   -1    0    0  501    0  0.00000000000E+00 -0.00000000000E+00 -0.69805194129E+02  0.69805194129E+02  0.00000000000E+00 0. -1.
         25    2    1    2    0    0  0.48000309711E+02 -0.29104992094E+01  0.32708954323E+02  0.13796987477E+03  0.12511318841E+03 0.  0.
          5    1    3    3  502    0  0.50680930182E+02 -0.39032383276E+01 -0.40165662869E+02  0.64919525778E+02  0.41800000000E+01 0. -1.
         -5    1    3    3    0  502 -0.26806204711E+01  0.99273911819E+00  0.72874617191E+02  0.73050348992E+02  0.41800000000E+01 0. -1.
        -11    1    1    2    0    0 -0.22786865780E+02 -0.17449794559E+02  0.14231867875E+03  0.14518382452E+03  0.00000000000E+00 0.  1.
         11    1    1    2    0    0 -0.25213443932E+02  0.20360293769E+02  0.93692319411E+00  0.32421245231E+02  0.00000000000E+00 0. -1.
</event>
<event>
 7    1  0.3151015E-009  0.8789466E+02  0.7561462E-02  0.1308032E+00
          1   -1    0    0  501    0  0.00000000000E+00  0.00000000000E+00  0.16386999925E+03  0.16386999925E+03  0.00000000000E+00 0. -1.
         -1   -1    0    0    0  501 -0.00000000000E+00 -0.00000000000E+00 -0.72493711826E+02  0.72493711826E+02  0.00000000000E+00 0.  1.
         25    2    1    2    0    0  0.33280132380E+02 -0.34839372397E+02  0.29738474468E+02  0.13730886608E+03  0.12509196122E+03 0.  0.
          5    1    3    3  502    0  0.13041581131E+02  0.28756548856E+02  0.56840321263E+02  0.65156093052E+02  0.41800000000E+01 0.  1.
         -5    1    3    3    0  502  0.20238551249E+02 -0.63595921253E+02 -0.27101846795E+02  0.72152773033E+02  0.41800000000E+01 0.  1.
        -11    1    1    2    0    0  0.11101676241E+02  0.30521071943E+02  0.20641819097E+02  0.38482044430E+02  0.00000000000E+00 0.  1.
         11    1    1    2    0    0 -0.44381808621E+02  0.43183004535E+01  0.40995993858E+02  0.60572800560E+02  0.00000000000E+00 0. -1.
</event>
<event>
 7    1  0.3192701E-009  0.1029202E+03  0.7561462E-02  0.1274272E+00
         -1   -1    0    0    0  501 -0.00000000000E+00  0.00000000000E+00  0.16453878207E+02  0.16453878207E+02  0.00000000000E+00 0.  1.
          1   -1    0    0  501    0  0.00000000000E+00 -0.00000000000E+00 -0.11966299851E+04  0.11966299851E+04  0.00000000000E+00 0. -1.
         25    2    1    2    0    0 -0.79725257294E+02 -0.41369524502E+01 -0.81699946570E+03  0.83036732805E+03  0.12509413063E+03 0.  0.
          5    1    3    3  502    0 -0.83277609663E+02  0.15295980328E+02 -0.79848263166E+03  0.80297018173E+03  0.41800000000E+01 0. -1.
         -5    1    3    3    0  502  0.35523523686E+01 -0.19432932779E+02 -0.18516834038E+02  0.27397146320E+02  0.41800000000E+01 0. -1.
        -11    1    1    2    0    0  0.17342183739E+02  0.28942299819E+02 -0.38590408534E+02  0.51260391010E+02  0.00000000000E+00 0.  1.
         11    1    1    2    0    0  0.62383073555E+02 -0.24805347369E+02 -0.32458623262E+03  0.33145614420E+03  0.00000000000E+00 0. -1.
</event>
<event>
 7    1  0.3151015E-009  0.1095171E+03  0.7561462E-02  0.1261467E+00
          2   -1    0    0  501    0  0.00000000000E+00  0.00000000000E+00  0.28947586993E+03  0.28947586993E+03  0.00000000000E+00 0. -1.
         -2   -1    0    0    0  501 -0.00000000000E+00 -0.00000000000E+00 -0.48058537658E+02  0.48058537658E+02  0.00000000000E+00 0.  1.
         25    2    1    2    0    0  0.23284137470E+02 -0.33706431131E+02  0.12317044371E+03  0.18026960619E+03  0.12509155908E+03 0.  0.
          5    1    3    3  502    0  0.70243436199E+02 -0.21250073263E+00  0.46950374488E+02  0.84593117629E+02  0.41800000000E+01 0.  1.
         -5    1    3    3    0  502 -0.46959298729E+02 -0.33493930398E+02  0.76220069223E+02  0.95676488559E+02  0.41800000000E+01 0.  1.
        -11    1    1    2    0    0 -0.23426531635E+02  0.60067038702E+02  0.42906008305E+02  0.77445316653E+02  0.00000000000E+00 0.  1.
         11    1    1    2    0    0  0.14239416462E+00 -0.26360607571E+02  0.75340880253E+02  0.79819484745E+02  0.00000000000E+00 0. -1.
</event>
<event>
 7    1  0.3151015E-009  0.1212079E+03  0.7561462E-02  0.1241118E+00
         -2   -1    0    0    0  501 -0.00000000000E+00  0.00000000000E+00  0.13725292308E+03  0.13725292308E+03  0.00000000000E+00 0.  1.
          2   -1    0    0  501    0  0.00000000000E+00 -0.00000000000E+00 -0.18966217690E+03  0.18966217690E+03  0.00000000000E+00 0. -1.
         25    2    1    2    0    0  0.32707374685E+02 -0.11015039418E+03  0.27584986158E+01  0.16987689644E+03  0.12509064287E+03 0.  0.
          5    1    3    3  502    0  0.18598696609E+02 -0.84596232577E+02 -0.56629960910E+02  0.10357055061E+03  0.41800000000E+01 0. -1.
         -5    1    3    3    0  502  0.14108678076E+02 -0.25554161603E+02  0.59388459526E+02  0.66306345829E+02  0.41800000000E+01 0. -1.
        -11    1    1    2    0    0  0.27831963009E+01  0.78820634178E+02  0.66797093559E+01  0.79152113496E+02  0.00000000000E+00 0.  1.
         11    1    1    2    0    0 -0.35490570986E+02  0.31329760002E+02 -0.61847461799E+02  0.77886090039E+02  0.00000000000E+00 0. -1.
</event>
<event>
 7    1  0.3151015E-009  0.1049110E+03  0.7561462E-02  0.1270295E+00
          2   -1    0    0  501    0  0.00000000000E+00  0.00000000000E+00  0.54514324302E+03  0.54514324302E+03  0.00000000000E+00 0. -1.
         -2   -1    0    0    0  501 -0.00000000000E+00 -0.00000000000E+00 -0.29780645674E+02  0.29780645674E+02  0.00000000000E+00 0.  1.
         25    2    1    2    0    0  0.66428114224E+02  0.55655959567E+01  0.30675129930E+03  0.33791599655E+03  0.12508873205E+03 0.  0.
          5    1    3    3  502    0  0.72319011427E+01 -0.44519278016E+02  0.20485324612E+03  0.20980131400E+03  0.41800000000E+01 0. -1.
         -5    1    3    3    0  502  0.59196213082E+02  0.50084873973E+02  0.10189805317E+03  0.12811468255E+03  0.41800000000E+01 0. -1.
        -11    1    1    2    0    0  0.21257717059E+01  0.15117107370E+02 -0.12010249796E+01  0.15313010860E+02  0.00000000000E+00 0.  1.
         11    1    1    2    0    0 -0.68553885930E+02 -0.20682703327E+02  0.20981232303E+03  0.22169488129E+03  0.00000000000E+00 0. -1.
</event>
<event>
 7    1  0.3528231E-009  0.1270661E+03  0.7561462E-02  0.1231875E+00
          3   -1    0    0  501    0  0.00000000000E+00  0.00000000000E+00  0.40556800776E+03  0.40556800776E+03  0.00000000000E+00 0. -1.
         -3   -1    0    0    0  501 -0.00000000000E+00 -0.00000000000E+00 -0.66476482643E+02  0.66476482643E+02  0.00000000000E+00 0.  1.
         25    2    1    2    0    0  0.22763340056E+01 -0.10511288846E+03  0.89066201570E+02  0.18610633993E+03  0.12509548546E+03 0.  0.
          5    1    3    3  502    0  0.35463881994E+02  0.11941823072E+01 -0.98848344963E+01  0.37071489725E+02  0.41800000000E+01 0. -1.
         -5    1    3    3    0  502 -0.33187547988E+02 -0.10630707077E+03  0.98951036067E+02  0.14903485020E+03  0.41800000000E+01 0. -1.
        -11    1    1    2    0    0  0.67623475281E+01  0.15773567578E+02 -0.30263175119E+01  0.17426800507E+02  0.00000000000E+00 0.  1.
         11    1    1    2    0    0 -0.90386815338E+01  0.89339320880E+02  0.25305164106E+03  0.26851134997E+03  0.00000000000E+00 0. -1.
</event>
<event>
 7    1  0.3151015E-009  0.1409433E+03  0.7561462E-02  0.1212065E+00
         -1   -1    0    0    0  501 -0.00000000000E+00  0.00000000000E+00  0.65813161332E+03  0.65813161332E+03  0.00000000000E+00 0.  1.
          1   -1    0    0  501    0  0.00000000000E+00 -0.00000000000E+00 -0.47724866377E+02  0.47724866377E+02  0.00000000000E+00 0. -1.
         25    2    1    2    0    0 -0.12485272561E+03 -0.25377413710E+01  0.19729824527E+03  0.26489661556E+03  0.12509586775E+03 0.  0.
          5    1    3    3  502    0 -0.13548128648E+03 -0.17086100246E+02  0.20374526724E+03  0.24530943750E+03  0.41800000000E+01 0.  1.
         -5    1    3    3    0  502  0.10628560869E+02  0.14548358874E+02 -0.64470219670E+01  0.19587178059E+02  0.41800000000E+01 0.  1.
        -11    1    1    2    0    0  0.73925283479E+02 -0.92412482995E+01  0.35528361275E+03  0.36301073496E+03  0.00000000000E+00 0.  1.
         11    1    1    2    0    0  0.50927442132E+02  0.11778989670E+02  0.57824888922E+02  0.77949129171E+02  0.00000000000E+00 0. -1.
</event>
<event>
 7    1  0.4300021E-009  0.1415065E+03  0.7561462E-02  0.1211316E+00
         -1   -1    0    0    0  501 -0.00000000000E+00  0.00000000000E+00  0.12500405082E+03  0.12500405082E+03  0.00000000000E+00 0.  1.
          1   -1    0    0  501    0  0.00000000000E+00 -0.00000000000E+00 -0.20283676430E+03  0.20283676430E+03  0.00000000000E+00 0. -1.
         25    2    1    2    0    0 -0.24422782973E+02 -0.11181180304E+03 -0.63040676322E+02  0.18088667442E+03  0.12509000953E+03 0.  0.
          5    1    3    3  502    0 -0.43534652588E+02 -0.13259998265E+03 -0.43323848753E+02  0.14619319288E+03  0.41800000000E+01 0.  1.
         -5    1    3    3    0  502  0.19111869614E+02  0.20788179611E+02 -0.19716827569E+02  0.34693481536E+02  0.41800000000E+01 0.  1.
        -11    1    1    2    0    0  0.64613036805E+01  0.51715193590E+02 -0.52330513459E+02  0.73855888947E+02  0.00000000000E+00 0. -1.
         11    1    1    2    0    0  0.17961479293E+02  0.60096609446E+02  0.37538476302E+02  0.73098251746E+02  0.00000000000E+00 0.  1.
</event>
<event>
 7    1  0.3151015E-009  0.1439304E+03  0.7561462E-02  0.1208136E+00
          2   -1    0    0  501    0  0.00000000000E+00  0.00000000000E+00  0.20709842751E+03  0.20709842751E+03  0.00000000000E+00 0. -1.
         -2   -1    0    0    0  501 -0.00000000000E+00 -0.00000000000E+00 -0.10764106077E+03  0.10764106077E+03  0.00000000000E+00 0.  1.
         25    2    1    2    0    0  0.38515021216E+02 -0.94198606497E+02  0.50905570356E+02  0.16910433654E+03  0.12509242670E+03 0.  0.
          5    1    3    3  502    0  0.58489354421E+02 -0.11068773988E+03  0.17268688496E+02  0.12644548368E+03  0.41800000000E+01 0. -1.
         -5    1    3    3    0  502 -0.19974333205E+02  0.16489133380E+02  0.33636881860E+02  0.42658852866E+02  0.41800000000E+01 0. -1.
        -11    1    1    2    0    0 -0.64957015010E+02  0.40610222713E+02  0.18792930442E+02  0.78878249362E+02  0.00000000000E+00 0. -1.
         11    1    1    2    0    0  0.26441993794E+02  0.53588383784E+02  0.29758865946E+02  0.66756902376E+02  0.00000000000E+00 0.  1.
</event>
<event>
 7    1  0.3151015E-009  0.1071902E+03  0.7561462E-02  0.1265864E+00
         -1   -1    0    0    0  501 -0.00000000000E+00  0.00000000000E+00  0.11457605249E+02  0.11457605249E+02  0.00000000000E+00 0.  1.
          1   -1    0    0  501    0  0.00000000000E+00 -0.00000000000E+00 -0.16986589368E+04  0.16986589368E+04  0.00000000000E+00 0. -1.
         25    2    1    2    0    0 -0.85883361076E+02  0.88458961517E+01 -0.10377651164E+04  0.10488373335E+04  0.12509641812E+03 0.  0.
          5    1    3    3  502    0 -0.37971476612E+02  0.16106682772E+02 -0.82462619985E+02  0.92297423370E+02  0.41800000000E+01 0.  1.
         -5    1    3    3    0  502 -0.47911884464E+02 -0.72607866203E+01 -0.95530249639E+03  0.95653991015E+03  0.41800000000E+01 0.  1.
        -11    1    1    2    0    0  0.12686799544E+02  0.36185159565E+02 -0.22240347227E+03  0.22568479154E+03  0.00000000000E+00 0.  1.
         11    1    1    2    0    0  0.73196561532E+02 -0.45031055716E+02 -0.42703274293E+03  0.43559441701E+03  0.00000000000E+00 0. -1.
</event>
<event>
 7    1  0.3151015E-009  0.6385267E+02  0.7561462E-02  0.1382340E+00
          3   -1    0    0  501    0  0.00000000000E+00  0.00000000000E+00  0.21046294892E+03  0.21046294892E+03  0.00000000000E+00 0. -1.
         -3   -1    0    0    0  501 -0.00000000000E+00 -0.00000000000E+00 -0.62733537029E+02  0.62733537029E+02  0.00000000000E+00 0.  1.
         25    2    1    2    0    0 -0.27619043311E+02 -0.22205811349E+02  0.10191981106E+03  0.16520172733E+03  0.12509217888E+03 0.  0.
          5    1    3    3  502    0 -0.30271707566E+02  0.26662772399E+02 -0.11034416448E+02  0.42029875771E+02  0.41800000000E+01 0.  1.
         -5    1    3    3    0  502  0.26526642555E+01 -0.48868583748E+02  0.11295422751E+03  0.12317185156E+03  0.41800000000E+01 0.  1.
        -11    1    1    2    0    0  0.98901855101E+01  0.16802396717E+02  0.72737355854E+02  0.75305107672E+02  0.00000000000E+00 0. -1.
         11    1    1    2    0    0  0.17728857800E+02  0.54034146321E+01 -0.26927755021E+02  0.32689650947E+02  0.00000000000E+00 0.  1.
</event>
<event>
 7    1  0.3151015E-009  0.1009887E+03  0.7561462E-02  0.1278231E+00
          2   -1    0    0  501    0  0.00000000000E+00  0.00000000000E+00  0.20924703905E+03  0.20924703905E+03  0.00000000000E+00 0.  1.
         -2   -1    0    0    0  501 -0.00000000000E+00 -0.00000000000E+00 -0.88618698143E+02  0.88618698143E+02  0.00000000000E+00 0. -1.
         25    2    1    2    0    0  0.73172891137E+02  0.34767862220E+02  0.58191535484E+02  0.15999445831E+03  0.12509554608E+03 0.  0.
          5    1    3    3  502    0 -0.16031476069E+00 -0.17446879634E+02  0.67079375918E+02  0.69437269411E+02  0.41800000000E+01 0.  1.
         -5    1    3    3    0  502  0.73333205898E+02  0.52214741854E+02 -0.88878404340E+01  0.90557188902E+02  0.41800000000E+01 0.  1.
        -11    1    1    2    0    0 -0.70870871703E+01  0.11313786136E+02 -0.19062215863E+02  0.23272228834E+02  0.00000000000E+00 0. -1.
         11    1    1    2    0    0 -0.66085803967E+02 -0.46081648356E+02  0.81499021291E+02  0.11459905005E+03  0.00000000000E+00 0.  1.
</event>
<event>
 7    1  0.3151015E-009  0.8462069E+02  0.7561462E-02  0.1316427E+00
          2   -1    0    0  501    0  0.00000000000E+00  0.00000000000E+00  0.17399259131E+03  0.17399259131E+03  0.00000000000E+00 0. -1.
         -2   -1    0    0    0  501 -0.00000000000E+00 -0.00000000000E+00 -0.76853005323E+02  0.76853005323E+02  0.00000000000E+00 0.  1.
         25    2    1    2    0    0 -0.18392270367E+02  0.34603503862E+02  0.54241388814E+02  0.14185879362E+03  0.12508441541E+03 0.  0.
          5    1    3    3  502    0  0.30495366411E+02  0.64303559749E+01 -0.27953117440E+02  0.42073341026E+02  0.41800000000E+01 0.  1.
         -5    1    3    3    0  502 -0.48887636778E+02  0.28173147887E+02  0.82194506253E+02  0.99785452596E+02  0.41800000000E+01 0.  1.
        -11    1    1    2    0    0 -0.24925566593E+02 -0.27851468356E+02  0.52169128423E+02  0.64176367301E+02  0.00000000000E+00 0. -1.
         11    1    1    2    0    0  0.43317836961E+02 -0.67520355064E+01 -0.92709312476E+01  0.44810435711E+02  0.00000000000E+00 0.  1.
</event>
<event>
 7    1  0.3151015E-009  0.1007856E+03  0.7561462E-02  0.1278653E+00
         -3   -1    0    0    0  501 -0.00000000000E+00  0.00000000000E+00  0.10020172506E+03  0.10020172506E+03  0.00000000000E+00 0.  1.
          3   -1    0    0  501    0  0.00000000000E+00 -0.00000000000E+00 -0.14502135223E+03  0.14502135223E+03  0.00000000000E+00 0. -1.
         25    2    1    2    0    0 -0.33490256095E+02  0.39617130907E+02 -0.42932159990E+02  0.14206085681E+03  0.12508797848E+03 0.  0.
          5    1    3    3  502    0 -0.13619346109E+02  0.74302113570E+02  0.92234637925E+01  0.76215715924E+02  0.41800000000E+01 0. -1.
         -5    1    3    3    0  502 -0.19870909986E+02 -0.34684982663E+02 -0.52155623782E+02  0.65845140885E+02  0.41800000000E+01 0. -1.
        -11    1    1    2    0    0  0.53580498401E+02 -0.37757810696E+02  0.24472222080E+02  0.69967218974E+02  0.00000000000E+00 0.  1.
         11    1    1    2    0    0 -0.20090242306E+02 -0.18593202104E+01 -0.26359689255E+02  0.33195001509E+02  0.00000000000E+00 0. -1.
</event>
<event>
 7    1  0.3151015E-009  0.8532175E+02  0.7561462E-02  0.1314593E+00
         -2   -1    0    0    0  501 -0.00000000000E+00  0.00000000000E+00  0.19908461704E+03  0.19908461704E+03  0.00000000000E+00 0.  1.
          2   -1    0    0  501    0  0.00000000000E+00 -0.00000000000E+00 -0.85231178690E+02  0.85231178690E+02  0.00000000000E+00 0. -1.
         25    2    1    2    0    0 -0.15874426955E+02  0.48908407156E+02  0.72160832839E+01  0.13543725540E+03  0.12508856291E+03 0.  0.
          5    1    3    3  502    0 -0.39567820247E+02  0.57410844023E+02 -0.40921395707E+02  0.80954619616E+02  0.41800000000E+01 0. -1.
         -5    1    3    3    0  502  0.23693393292E+02 -0.85024368667E+01  0.48137478991E+02  0.54482635784E+02  0.41800000000E+01 0. -1.
        -11    1    1    2    0    0 -0.21896071832E+01  0.11766629254E+02 -0.10374352567E+02  0.15839038317E+02  0.00000000000E+00 0. -1.
         11    1    1    2    0    0  0.18064034138E+02 -0.60675036410E+02  0.11701170763E+03  0.13303950201E+03  0.00000000000E+00 0.  1.
</event>
<event>
 7    1  0.3151015E-009  0.2225018E+03  0.7561462E-02  0.1132031E+00
         -2   -1    0    0    0  501 -0.00000000000E+00  0.00000000000E+00  0.72232253458E+02  0.72232253458E+02  0.00000000000E+00 0.  1.
          2   -1    0    0  501    0  0.00000000000E+00 -0.00000000000E+00 -0.74974573982E+03  0.74974573982E+03  0.00000000000E+00 0. -1.
         25    2    1    2    0    0 -0.19877301641E+03  0.29350791168E+02 -0.27478708315E+03  0.36266565763E+03  0.12508499976E+03 0.  0.
          5    1    3    3  502    0 -0.64639389692E+01  0.41553413201E+02 -0.67309636400E+02  0.79476589056E+02  0.41800000000E+01 0. -1.
         -5    1    3    3    0  502 -0.19230907744E+03 -0.12202622034E+02 -0.20747744675E+03  0.28318906857E+03  0.41800000000E+01 0. -1.
        -11    1    1    2    0    0  0.16569329779E+03 -0.47371797175E+02 -0.26172828027E+03  0.31336887018E+03  0.00000000000E+00 0.  1.
         11    1    1    2    0    0  0.33079718614E+02  0.18021006007E+02 -0.14099812294E+03  0.14594346547E+03  0.00000000000E+00 0. -1.
</event>
<event>
 7    1  0.3151015E-009  0.1135643E+03  0.7561462E-02  0.1254108E+00
         -2   -1    0    0    0  501 -0.00000000000E+00  0.00000000000E+00  0.29170614215E+03  0.29170614215E+03  0.00000000000E+00 0.  1.
          2   -1    0    0  501    0  0.00000000000E+00 -0.00000000000E+00 -0.61418086318E+02  0.61418086318E+02  0.00000000000E+00 0. -1.
         25    2    1    2    0    0  0.26838865311E+02  0.31792414353E+02  0.21546434294E+03  0.25259097063E+03  0.12508490341E+03 0.  0.
          5    1    3    3  502    0  0.72903796974E+01  0.79108392481E+02  0.14503477960E+03  0.16542021367E+03  0.41800000000E+01 0. -1.
         -5    1    3    3    0  502  0.19548485614E+02 -0.47315978127E+02  0.70429563340E+02  0.87170756955E+02  0.41800000000E+01 0. -1.
        -11    1    1    2    0    0  0.12098922011E+02 -0.51265578235E+02 -0.45730210609E+01  0.52872071524E+02  0.00000000000E+00 0.  1.
         11    1    1    2    0    0 -0.38937787322E+02  0.19473163881E+02  0.19396733949E+02  0.47661186315E+02  0.00000000000E+00 0. -1.
</event>
<event>
 7    1  0.3151015E-009  0.1039117E+03  0.7561462E-02  0.1272279E+00
          2   -1    0    0  501    0  0.00000000000E+00  0.00000000000E+00  0.45706153863E+02  0.45706153863E+02  0.00000000000E+00 0. -1.
         -2   -1    0    0    0  501 -0.00000000000E+00 -0.00000000000E+00 -0.37015661054E+03  0.37015661054E+03  0.00000000000E+00 0.  1.
         25    2    1    2    0    0  0.21179378683E+02  0.15393766154E+02 -0.73435399304E+02  0.14739421546E+03  0.12508702075E+03 0.  0.
          5    1    3    3  502    0 -0.74141556064E+01  0.67018720176E+02 -0.48642253478E+02  0.83246740362E+02  0.41800000000E+01 0. -1.
         -5    1    3    3    0  502  0.28593534289E+02 -0.51624954023E+02 -0.24793145826E+02  0.64147475094E+02  0.41800000000E+01 0. -1.
        -11    1    1    2    0    0 -0.46680045481E+02 -0.26060854285E+02 -0.22219114404E+03  0.22853249060E+03  0.00000000000E+00 0.  1.
         11    1    1    2    0    0  0.25500666798E+02  0.10667088131E+02 -0.28823913341E+02  0.39936058351E+02  0.00000000000E+00 0. -1.
</event>
<event>
 7    1  0.3151015E-009  0.1667935E+03  0.7561462E-02  0.1181234E+00
          2   -1    0    0  501    0  0.00000000000E+00  0.00000000000E+00  0.14537675901E+03  0.14537675901E+03  0.00000000000E+00 0. -1.
         -2   -1    0    0    0  501 -0.00000000000E+00 -0.00000000000E+00 -0.21918502679E+03  0.21918502679E+03  0.00000000000E+00 0.  1.
         25    2    1    2    0    0 -0.13577943899E+03  0.37939514202E+02 -0.37191696538E+02  0.19211241984E+03  0.12509395178E+03 0.  0.
          5    1    3    3  502    0 -0.15787025469E+03  0.35608496695E+02 -0.45283608095E+02  0.16810431260E+03  0.41800000000E+01 0. -1.
         -5    1    3    3    0  502  0.22090815692E+02  0.23310175067E+01  0.80919115566E+01  0.24008107239E+02  0.41800000000E+01 0. -1.
        -11    1    1    2    0    0  0.15854627135E+02  0.11283405326E+02  0.22691581770E+02  0.29893014578E+02  0.00000000000E+00 0. -1.
         11    1    1    2    0    0  0.11992481186E+03 -0.49222919528E+02 -0.59308153006E+02  0.14255635138E+03  0.00000000000E+00 0.  1.
</event>
<event>
 7    1  0.3151015E-009  0.1858665E+03  0.7561462E-02  0.1162243E+00
          2   -1    0    0  501    0  0.00000000000E+00  0.00000000000E+00  0.13758387729E+04  0.13758387729E+04  0.00000000000E+00 0. -1.
         -2   -1    0    0    0  501 -0.00000000000E+00 -0.00000000000E+00 -0.28143249982E+02  0.28143249982E+02  0.00000000000E+00 0.  1.
         25    2    1    2    0    0  0.10132867821E+03 -0.11954734280E+03  0.86773873976E+03  0.89060625049E+03  0.12509957930E+03 0.  0.
          5    1    3    3  502    0  0.39569347564E+01 -0.99906544331E+02  0.39022225422E+03  0.40284966801E+03  0.41800000000E+01 0.  1.
         -5    1    3    3    0  502  0.97371743456E+02 -0.19640798465E+02  0.47751648554E+03  0.48775658248E+03  0.41800000000E+01 0.  1.
        -11    1    1    2    0    0 -0.22376849421E+02  0.81655570254E+02  0.15266930966E+03  0.17457455043E+03  0.00000000000E+00 0.  1.
         11    1    1    2    0    0 -0.78951828790E+02  0.37891772541E+02  0.32728747348E+03  0.33880122195E+03  0.00000000000E+00 0. -1.
</event>
<event>
 7    1  0.3151015E-009  0.2332333E+03  0.7561462E-02  0.1124384E+00
          2   -1    0    0  501    0  0.00000000000E+00  0.00000000000E+00  0.89319683467E+03  0.89319683467E+03  0.00000000000E+00 0. -1.
         -2   -1    0    0    0  501 -0.00000000000E+00 -0.00000000000E+00 -0.76534035740E+02  0.76534035740E+02  0.00000000000E+00 0.  1.
         25    2    1    2    0    0  0.22776123237E+03 -0.99033735499E+01  0.45698137305E+03  0.52578742561E+03  0.12508871188E+03 0.  0.
          5    1    3    3  502    0  0.18033352330E+03  0.93581813381E+01  0.43288175415E+03  0.46905419799E+03  0.41800000000E+01 0.  1.
         -5    1    3    3    0  502  0.47427709076E+02 -0.19261554888E+02  0.24099618904E+02  0.56733227620E+02  0.41800000000E+01 0.  1.
        -11    1    1    2    0    0 -0.20585214302E+03 -0.82674982386E+01  0.22004440330E+03  0.30143489469E+03  0.00000000000E+00 0.  1.
         11    1    1    2    0    0 -0.21909089355E+02  0.18170871789E+02  0.13963702258E+03  0.14250855011E+03  0.00000000000E+00 0. -1.
</event>
<event>
 7    1  0.3151015E-009  0.1904855E+03  0.7561462E-02  0.1158024E+00
         -2   -1    0    0    0  501 -0.00000000000E+00  0.00000000000E+00  0.14391873693E+03  0.14391873693E+03  0.00000000000E+00 0. -1.
          2   -1    0    0  501    0  0.00000000000E+00 -0.00000000000E+00 -0.30817149338E+03  0.30817149338E+03  0.00000000000E+00 0.  1.
         25    2    1    2    0    0 -0.16402336998E+03  0.72224652862E+02 -0.10524280846E+03  0.24257642272E+03  0.12508879145E+03 0.  0.
          5    1    3    3  502    0 -0.12361394089E+03  0.60294666582E+02 -0.13346425286E+03  0.19169254653E+03  0.41800000000E+01 0. -1.
         -5    1    3    3    0  502 -0.40409429093E+02  0.11929986280E+02  0.28221444408E+02  0.50883876196E+02  0.41800000000E+01 0. -1.
        -11    1    1    2    0    0  0.90297819070E+02 -0.87503332285E+02 -0.36903545277E+02  0.13104350783E+03  0.00000000000E+00 0. -1.
         11    1    1    2    0    0  0.73725550915E+02  0.15278679423E+02 -0.22106402717E+02  0.78470299755E+02  0.00000000000E+00 0.  1.
</event>
<event>
 7    1  0.3151015E-009  0.8364905E+02  0.7561462E-02  0.1319004E+00
          1   -1    0    0  501    0  0.00000000000E+00  0.00000000000E+00  0.88143891284E+02  0.88143891284E+02  0.00000000000E+00 0. -1.
         -1   -1    0    0    0  501 -0.00000000000E+00 -0.00000000000E+00 -0.14640258247E+03  0.14640258247E+03  0.00000000000E+00 0.  1.
         25    2    1    2    0    0 -0.72221713731E+01  0.13338667520E+02 -0.24832751500E+01  0.12601814637E+03  0.12507728310E+03 0.  0.
          5    1    3    3  502    0  0.34304732924E+02 -0.41755242720E+02  0.11724653032E+02  0.55454980699E+02  0.41800000000E+01 0. -1.
         -5    1    3    3    0  502 -0.41526904297E+02  0.55093910240E+02 -0.14207928182E+02  0.70563165670E+02  0.41800000000E+01 0. -1.
        -11    1    1    2    0    0 -0.11649424340E+01  0.14682850403E+02 -0.73075675004E+02  0.74545271239E+02  0.00000000000E+00 0.  1.
         11    1    1    2    0    0  0.83871138071E+01 -0.28021517924E+02  0.17300258967E+02  0.33983056147E+02  0.00000000000E+00 0. -1.
</event>
<event>
 7    1  0.3151015E-009  0.1344999E+03  0.7561462E-02  0.1220927E+00
         -1   -1    0    0    0  501 -0.00000000000E+00  0.00000000000E+00  0.38685018616E+03  0.38685018616E+03  0.00000000000E+00 0.  1.
          1   -1    0    0  501    0  0.00000000000E+00 -0.00000000000E+00 -0.67059417584E+02  0.67059417584E+02  0.00000000000E+00 0. -1.
         25    2    1    2    0    0 -0.84597791229E+02 -0.10561578430E+01  0.54491254782E+02  0.16055389968E+03  0.12510138330E+03 0.  0.
          5    1    3    3  502    0 -0.54107836585E+02 -0.60695046509E+02  0.44247925285E+02  0.92665516471E+02  0.41800000000E+01 0.  1.
         -5    1    3    3    0  502 -0.30489954643E+02  0.59638888666E+02  0.10243329497E+02  0.67888383209E+02  0.41800000000E+01 0.  1.
        -11    1    1    2    0    0  0.88406495711E+02 -0.26780624510E+02  0.16393124297E+03  0.18816578529E+03  0.00000000000E+00 0. -1.
         11    1    1    2    0    0 -0.38087044828E+01  0.27836782353E+02  0.10136827083E+03  0.10518991877E+03  0.00000000000E+00 0.  1.
</event>
<event>
 7    1  0.3151015E-009  0.1083514E+03  0.7561462E-02  0.1263654E+00
         -1   -1    0    0    0  501 -0.00000000000E+00  0.00000000000E+00  0.85097617296E+01  0.85097617296E+01  0.00000000000E+00 0.  1.
          1   -1    0    0  501    0  0.00000000000E+00 -0.00000000000E+00 -0.14580156226E+04  0.14580156226E+04  0.00000000000E+00 0. -1.
         25    2    1    2    0    0  0.72797542534E+01  0.28918938526E+02 -0.94153041924E+03  0.95027237714E+03  0.12509500619E+03 0.  0.
          5    1    3    3  502    0  0.37624119264E+02 -0.36393519416E+02 -0.51660717675E+03  0.51926920771E+03  0.41800000000E+01 0.  1.
         -5    1    3    3    0  502 -0.30344365011E+02  0.65312457941E+02 -0.42492324249E+03  0.43100316943E+03  0.41800000000E+01 0.  1.
        -11    1    1    2    0    0 -0.10710550764E+02 -0.59915958560E+02 -0.33018041999E+03  0.33574357437E+03  0.00000000000E+00 0.  1.
         11    1    1    2    0    0  0.34307965106E+01  0.30997020035E+02 -0.17779502160E+03  0.18050943278E+03  0.00000000000E+00 0. -1.
</event>
<event>
 7    1  0.3151015E-009  0.1548168E+03  0.7561462E-02  0.1194676E+00
         -2   -1    0    0    0  501 -0.00000000000E+00  0.00000000000E+00  0.54662441866E+02  0.54662441866E+02  0.00000000000E+00 0.  1.
          2   -1    0    0  501    0  0.00000000000E+00 -0.00000000000E+00 -0.54350604954E+03  0.54350604954E+03  0.00000000000E+00 0. -1.
         25    2    1    2    0    0  0.69710512863E+02  0.94734265396E+02 -0.14979997568E+03  0.22786464796E+03  0.12509247951E+03 0.  0.
          5    1    3    3  502    0 -0.26874541783E+02  0.50674222695E+02 -0.87484637611E+02  0.10469552072E+03  0.41800000000E+01 0.  1.
         -5    1    3    3    0  502  0.96585054646E+02  0.44060042701E+02 -0.62315338072E+02  0.12316912723E+03  0.41800000000E+01 0.  1.
        -11    1    1    2    0    0  0.13800833169E+02 -0.48497362129E+02 -0.83871898264E+02  0.97861904989E+02  0.00000000000E+00 0.  1.
         11    1    1    2    0    0 -0.83511346032E+02 -0.46236903267E+02 -0.25517173372E+03  0.27244193846E+03  0.00000000000E+00 0. -1.
</event>
<event>
 7    1  0.3718371E-009  0.7117558E+02  0.7561462E-02  0.1356140E+00
          2   -1    0    0  501    0  0.00000000000E+00  0.00000000000E+00  0.11627881256E+04  0.11627881256E+04  0.00000000000E+00 0. -1.
         -2   -1    0    0    0  501 -0.00000000000E+00 -0.00000000000E+00 -0.14421845086E+02  0.14421845086E+02  0.00000000000E+00 0.  1.
         25    2    1    2    0    0 -0.12655562603E+02 -0.48114780959E+02  0.86951574678E+03  0.87987494469E+03  0.12508832476E+03 0.  0.
          5    1    3    3  502    0 -0.37301540522E+01  0.97410387090E+01  0.33538609806E+01  0.11727005921E+02  0.41800000000E+01 0.  1.
         -5    1    3    3    0  502 -0.89254085508E+01 -0.57855819668E+02  0.86616188580E+03  0.86814793877E+03  0.41800000000E+01 0.  1.
        -11    1    1    2    0    0 -0.92511757996E+01 -0.79715665695E+01  0.15888919395E+00  0.12212918284E+02  0.00000000000E+00 0.  1.
         11    1    1    2    0    0  0.21906738403E+02  0.56086347528E+02  0.27869164457E+03  0.28512210773E+03  0.00000000000E+00 0. -1.
</event>
<event>
 7    1  0.3151015E-009  0.9838661E+02  0.7561462E-02  0.1283726E+00
          2   -1    0    0  501    0  0.00000000000E+00  0.00000000000E+00  0.91518860871E+02  0.91518860871E+02  0.00000000000E+00 0. -1.
         -2   -1    0    0    0  501 -0.00000000000E+00 -0.00000000000E+00 -0.15212545747E+03  0.15212545747E+03  0.00000000000E+00 0.  1.
         25    2    1    2    0    0  0.41409885977E+02 -0.87409756678E+01 -0.81795495754E+01  0.13230422120E+03  0.12508524535E+03 0.  0.
          5    1    3    3  502    0 -0.42191324656E+02 -0.54047828078E+01  0.15146127863E+02  0.45345310040E+02  0.41800000000E+01 0. -1.
         -5    1    3    3    0  502  0.83601210633E+02 -0.33361928599E+01 -0.23325677438E+02  0.86958911160E+02  0.41800000000E+01 0. -1.
        -11    1    1    2    0    0 -0.11452155377E+02  0.30928565393E+02  0.13472857503E+02  0.35626477645E+02  0.00000000000E+00 0. -1.
         11    1    1    2    0    0 -0.29957730600E+02 -0.22187589725E+02 -0.65899904531E+02  0.75713619500E+02  0.00000000000E+00 0.  1.
</event>
<event>
 7    1  0.3151015E-009  0.1002469E+03  0.7561462E-02  0.1279778E+00
         -1   -1    0    0    0  501 -0.00000000000E+00  0.00000000000E+00  0.16652727793E+03  0.16652727793E+03  0.00000000000E+00 0.  1.
          1   -1    0    0  501    0  0.00000000000E+00 -0.00000000000E+00 -0.72832740241E+02  0.72832740241E+02  0.00000000000E+00 0. -1.
         25    2    1    2    0    0  0.12491319847E+02 -0.23877294070E+02  0.51245415195E+02  0.13784336945E+03  0.12509413927E+03 0.  0.
          5    1    3    3  502    0  0.52206921078E+02  0.21450590747E+02  0.52816077501E+02  0.77412537062E+02  0.41800000000E+01 0.  1.
         -5    1    3    3    0  502 -0.39715601231E+02 -0.45327884818E+02 -0.15706623063E+01  0.60430832389E+02  0.41800000000E+01 0.  1.
        -11    1    1    2    0    0  0.28789013962E+02 -0.95900946297E+01 -0.44127761100E+01  0.30663493488E+02  0.00000000000E+00 0. -1.
         11    1    1    2    0    0 -0.41280333809E+02  0.33467388700E+02  0.46861898608E+02  0.70853155236E+02  0.00000000000E+00 0.  1.
</event>
<event>
 7    1  0.3151015E-009  0.1060569E+03  0.7561462E-02  0.1268051E+00
          2   -1    0    0  501    0  0.00000000000E+00  0.00000000000E+00  0.29166981796E+03  0.29166981796E+03  0.00000000000E+00 0. -1.
         -2   -1    0    0    0  501 -0.00000000000E+00 -0.00000000000E+00 -0.47517595610E+02  0.47517595610E+02  0.00000000000E+00 0.  1.
         25    2    1    2    0    0  0.15090138082E+02 -0.28718051701E+00  0.19940546574E+03  0.23587680970E+03  0.12509010691E+03 0.  0.
          5    1    3    3  502    0  0.70359174687E+02  0.26839162958E-01  0.10727409466E+03  0.12835738377E+03  0.41800000000E+01 0.  1.
         -5    1    3    3    0  502 -0.55269036605E+02 -0.31401967997E+00  0.92131371083E+02  0.10751942593E+03  0.41800000000E+01 0.  1.
        -11    1    1    2    0    0 -0.33294025707E+02 -0.33872351835E+02  0.48821108982E+01  0.47745820482E+02  0.00000000000E+00 0.  1.
         11    1    1    2    0    0  0.18203887625E+02  0.34159532352E+02  0.39864645713E+02  0.55564783389E+02  0.00000000000E+00 0. -1.
</event>
<event>
 7    1  0.3151015E-009  0.1662633E+03  0.7561462E-02  0.1181802E+00
         -2   -1    0    0    0  501 -0.00000000000E+00  0.00000000000E+00  0.27830030387E+02  0.27830030387E+02  0.00000000000E+00 0.  1.
          2   -1    0    0  501    0  0.00000000000E+00 -0.00000000000E+00 -0.11574315859E+04  0.11574315859E+04  0.00000000000E+00 0. -1.
         25    2    1    2    0    0  0.48299132225E+02  0.13412960304E+03 -0.56360778698E+03  0.59466540290E+03  0.12509855025E+03 0.  0.
          5    1    3    3  502    0  0.21469691205E+02  0.14668987607E+03 -0.52654885803E+03  0.54703751213E+03  0.41800000000E+01 0.  1.
         -5    1    3    3    0  502  0.26829441020E+02 -0.12560273034E+02 -0.37058928947E+02  0.47627890766E+02  0.41800000000E+01 0.  1.
        -11    1    1    2    0    0 -0.46080690398E+02 -0.42643531287E+02 -0.12131706725E+03  0.13660062809E+03  0.00000000000E+00 0.  1.
         11    1    1    2    0    0 -0.22184418263E+01 -0.91486071750E+02 -0.44467670126E+03  0.45399558528E+03  0.00000000000E+00 0. -1.
</event>
<event>
 7    1  0.3151015E-009  0.1076841E+03  0.7561462E-02  0.1264920E+00
          1   -1    0    0  501    0  0.00000000000E+00  0.00000000000E+00  0.12521318195E+03  0.12521318195E+03  0.00000000000E+00 0. -1.
         -1   -1    0    0    0  501 -0.00000000000E+00 -0.00000000000E+00 -0.10582772933E+03  0.10582772933E+03  0.00000000000E+00 0.  1.
         25    2    1    2    0    0 -0.22502825604E+02 -0.22447434701E+02 -0.96249276576E+01  0.12942029286E+03  0.12508680381E+03 0.  0.
          5    1    3    3  502    0  0.45163513114E+02  0.15754955084E+02 -0.17724601069E+02  0.51181983252E+02  0.41800000000E+01 0.  1.
         -5    1    3    3    0  502 -0.67666338718E+02 -0.38202389785E+02  0.80996734118E+01  0.78238309607E+02  0.41800000000E+01 0.  1.
        -11    1    1    2    0    0 -0.17604336523E+02 -0.22972399266E+02 -0.87362481652E+01  0.30231867697E+02  0.00000000000E+00 0.  1.
         11    1    1    2    0    0  0.40107162126E+02  0.45419833967E+02  0.37746628447E+02  0.71388750728E+02  0.00000000000E+00 0. -1.
</event>
<event>
 7    1  0.3151015E-009  0.7253155E+02  0.7561462E-02  0.1351690E+00
         -3   -1    0    0    0  501 -0.00000000000E+00  0.00000000000E+00  0.45279681226E+02  0.45279681226E+02  0.00000000000E+00 0.  1.
          3   -1    0    0  501    0  0.00000000000E+00 -0.00000000000E+00 -0.24593337145E+03  0.24593337145E+03  0.00000000000E+00 0. -1.
         25    2    1    2    0    0 -0.46523330233E+01 -0.13539390214E+02 -0.11837148570E+03  0.17280900642E+03  0.12508471043E+03 0.  0.
          5    1    3    3  502    0  0.39833074352E+02  0.33515258993E+02 -0.22093961868E+02  0.56705925164E+02  0.41800000000E+01 0. -1.
         -5    1    3    3    0  502 -0.44485407375E+02 -0.47054649207E+02 -0.96277523833E+02  0.11610308125E+03  0.41800000000E+01 0. -1.
        -11    1    1    2    0    0  0.11633862036E+02 -0.11449314991E+01  0.15424396807E+02  0.19353801458E+02  0.00000000000E+00 0.  1.
         11    1    1    2    0    0 -0.69815290128E+01  0.14684321713E+02 -0.97706601334E+02  0.99050244804E+02  0.00000000000E+00 0. -1.
</event>
<event>
 6    1  0.3151015E-009  0.1097834E+03  0.7561462E-02  0.1260972E+00
         -1   -1    0    0    0  501 -0.00000000000E+00  0.00000000000E+00  0.32145093713E+02  0.32145093713E+02  0.00000000000E+00 0.  1.
          1   -1    0    0  501    0  0.00000000000E+00 -0.00000000000E+00 -0.61831124367E+03  0.61831124367E+03  0.00000000000E+00 0. -1.
          5    1    1    2  502    0 -0.39223854448E+02  0.24257434815E+02 -0.16819509748E+03  0.17445342392E+03  0.41800000000E+01 0. -1.
         -5    1    1    2    0  502 -0.24736893580E+02 -0.64908886958E+02 -0.40642337637E+02  0.80587527067E+02  0.41800000000E+01 0. -1.
        -11    1    1    2    0    0 -0.15648851515E+02  0.48674975826E+01 -0.13408477027E+02  0.21174662751E+02  0.00000000000E+00 0.  1.
         11    1    1    2    0    0  0.79609599543E+02  0.35783954560E+02 -0.36392023781E+03  0.37424072364E+03  0.00000000000E+00 0. -1.
</event>
<event>
 7    1  0.3151015E-009  0.1060312E+03  0.7561462E-02  0.1268101E+00
         -1   -1    0    0    0  501 -0.00000000000E+00  0.00000000000E+00  0.30422316583E+02  0.30422316583E+02  0.00000000000E+00 0.  1.
          1   -1    0    0  501    0  0.00000000000E+00 -0.00000000000E+00 -0.42365202895E+03  0.42365202895E+03  0.00000000000E+00 0. -1.
         25    2    1    2    0    0 -0.19935373891E+01  0.27160535249E+02 -0.25239828054E+03  0.28301055192E+03  0.12509361141E+03 0.  0.
          5    1    3    3  502    0 -0.19765136966E+02 -0.43579218949E+02 -0.14791351417E+03  0.15551748788E+03  0.41800000000E+01 0. -1.
         -5    1    3    3    0  502  0.17771599577E+02  0.70739754198E+02 -0.10448476637E+03  0.12749306404E+03  0.41800000000E+01 0. -1.
        -11    1    1    2    0    0 -0.18408577554E+01 -0.58935937853E+02 -0.59988239970E+02  0.84115530448E+02  0.00000000000E+00 0. -1.
         11    1    1    2    0    0  0.38343951446E+01  0.31775402604E+02 -0.80843191864E+02  0.86948263166E+02  0.00000000000E+00 0.  1.
</event>
<event>
 7    1  0.3151015E-009  0.1226564E+03  0.7561462E-02  0.1238778E+00
         -1   -1    0    0    0  501 -0.00000000000E+00  0.00000000000E+00  0.20807955171E+03  0.20807955171E+03  0.00000000000E+00 0.  1.
          1   -1    0    0  501    0  0.00000000000E+00 -0.00000000000E+00 -0.11925301339E+03  0.11925301339E+03  0.00000000000E+00 0. -1.
         25    2    1    2    0    0 -0.85674146767E+02  0.19973659604E+02  0.12322663489E+03  0.19639551562E+03  0.12508952197E+03 0.  0.
          5    1    3    3  502    0 -0.21223316195E+02 -0.30230942797E+02  0.10663166313E+03  0.11292529847E+03  0.41800000000E+01 0.  1.
         -5    1    3    3    0  502 -0.64450830573E+02  0.50204602401E+02  0.16594971762E+02  0.83470217153E+02  0.41800000000E+01 0.  1.
        -11    1    1    2    0    0  0.32618432095E+02  0.36431077179E+02 -0.13596044876E+02  0.50754683853E+02  0.00000000000E+00 0.  1.
         11    1    1    2    0    0  0.53055714672E+02 -0.56404736783E+02 -0.20804051700E+02  0.80182365631E+02  0.00000000000E+00 0. -1.
</event>
<event>
 7    1  0.3151015E-009  0.1129686E+03  0.7561462E-02  0.1255169E+00
         -2   -1    0    0    0  501 -0.00000000000E+00  0.00000000000E+00  0.69160912133E+02  0.69160912133E+02  0.00000000000E+00 0.  1.
          2   -1    0    0  501    0  0.00000000000E+00 -0.00000000000E+00 -0.26384182559E+03  0.26384182559E+03  0.00000000000E+00 0. -1.
         25    2    1    2    0    0 -0.48692136974E+02 -0.62284685150E+02 -0.86293158771E+02  0.17130060422E+03  0.12508829501E+03 0.  0.
          5    1    3    3  502    0  0.21642034592E+02 -0.30201902017E+02  0.17932165478E+02  0.41467668194E+02  0.41800000000E+01 0. -1.
         -5    1    3    3    0  502 -0.70334171566E+02 -0.32082783134E+02 -0.10422532425E+03  0.12983293603E+03  0.41800000000E+01 0. -1.
        -11    1    1    2    0    0 -0.12213694421E+02  0.46685602096E+02 -0.17801463374E+02  0.51435511786E+02  0.00000000000E+00 0.  1.
         11    1    1    2    0    0  0.60905831395E+02  0.15599083054E+02 -0.90586291308E+02  0.11026662171E+03  0.00000000000E+00 0. -1.
</event>
<event>
 7    1  0.3151015E-009  0.1310808E+03  0.7561462E-02  0.1225861E+00
         -1   -1    0    0    0  501 -0.00000000000E+00  0.00000000000E+00  0.48125943241E+03  0.48125943241E+03  0.00000000000E+00 0.  1.
          1   -1    0    0  501    0  0.00000000000E+00 -0.00000000000E+00 -0.39617418870E+02  0.39617418870E+02  0.00000000000E+00 0. -1.
         25    2    1    2    0    0 -0.75131474896E+02  0.64999968091E+02  0.32708284585E+03  0.36401013560E+03  0.12510178415E+03 0.  0.
          5    1    3    3  502    0  0.27299616121E+02  0.48314140136E+02  0.10485974825E+03  0.11871210714E+03  0.41800000000E+01 0. -1.
         -5    1    3    3    0  502 -0.10243109102E+03  0.16685827955E+02  0.22222309759E+03  0.24529802846E+03  0.41800000000E+01 0. -1.
        -11    1    1    2    0    0  0.55347274816E+02 -0.31346862246E+02  0.91786237171E+02  0.11167210904E+03  0.00000000000E+00 0.  1.
         11    1    1    2    0    0  0.19784200080E+02 -0.33653105844E+02  0.22772930523E+02  0.45194606651E+02  0.00000000000E+00 0. -1.
</event>
<event>
 7    1  0.3151015E-009  0.1412556E+03  0.7561462E-02  0.1211649E+00
          2   -1    0    0  501    0  0.00000000000E+00  0.00000000000E+00  0.86301382775E+02  0.86301382775E+02  0.00000000000E+00 0. -1.
         -2   -1    0    0    0  501 -0.00000000000E+00 -0.00000000000E+00 -0.25514192866E+03  0.25514192866E+03  0.00000000000E+00 0.  1.
         25    2    1    2    0    0  0.98971432212E+02  0.13851044706E+02 -0.10872882225E+03  0.19353541859E+03  0.12508719210E+03 0.  0.
          5    1    3    3  502    0 -0.41879525864E+01 -0.40768723230E+02 -0.42828322844E+02  0.59425292413E+02  0.41800000000E+01 0.  1.
         -5    1    3    3    0  502  0.10315938480E+03  0.54619767936E+02 -0.65900499409E+02  0.13411012618E+03  0.41800000000E+01 0.  1.
        -11    1    1    2    0    0  0.57494331880E+01 -0.18816195484E+02  0.97162786986E+01  0.21943364971E+02  0.00000000000E+00 0. -1.
         11    1    1    2    0    0 -0.10472086540E+03  0.49651507784E+01 -0.69828002330E+02  0.12596452787E+03  0.00000000000E+00 0.  1.
</event>
<event>
 7    1  0.3151015E-009  0.1655743E+03  0.7561462E-02  0.1182543E+00
         -1   -1    0    0    0  501 -0.00000000000E+00  0.00000000000E+00  0.19032487549E+03  0.19032487549E+03  0.00000000000E+00 0.  1.
          1   -1    0    0  501    0  0.00000000000E+00 -0.00000000000E+00 -0.16503914550E+03  0.16503914550E+03  0.00000000000E+00 0. -1.
         25    2    1    2    0    0 -0.64621981567E+02  0.11762073291E+03  0.36361867338E+02  0.18702738425E+03  0.12508564966E+03 0.  0.
          5    1    3    3  502    0 -0.96572447562E+02  0.58354682768E+02  0.60571895408E+01  0.11307373070E+03  0.41800000000E+01 0.  1.
         -5    1    3    3    0  502  0.31950465995E+02  0.59266050138E+02  0.30304677797E+02  0.73953653546E+02  0.41800000000E+01 0.  1.
        -11    1    1    2    0    0  0.79477366383E+02 -0.98619205341E+02  0.20809022622E+02  0.12835659255E+03  0.00000000000E+00 0.  1.
         11    1    1    2    0    0 -0.14855384816E+02 -0.19001527566E+02 -0.31885159961E+02  0.39980044192E+02  0.00000000000E+00 0. -1.
</event>
<event>
 7    1  0.3151015E-009  0.1202016E+03  0.7561462E-02  0.1242765E+00
         -2   -1    0    0    0  501 -0.00000000000E+00  0.00000000000E+00  0.41421427216E+03  0.41421427216E+03  0.00000000000E+00 0.  1.
          2   -1    0    0  501    0  0.00000000000E+00 -0.00000000000E+00 -0.37101634171E+02  0.37101634171E+02  0.00000000000E+00 0. -1.
         25    2    1    2    0    0  0.17572683306E+02  0.58906492946E+02  0.21147747029E+03  0.25327603063E+03  0.12508898090E+03 0.  0.
          5    1    3    3  502    0  0.71314628589E+02  0.41785852259E+02  0.12922598962E+03  0.15345573463E+03  0.41800000000E+01 0. -1.
         -5    1    3    3    0  502 -0.53741945283E+02  0.17120640687E+02  0.82251480674E+02  0.99820296000E+02  0.41800000000E+01 0. -1.
        -11    1    1    2    0    0 -0.47130667746E+02 -0.53032403232E+02  0.14526458008E+03  0.16166488134E+03  0.00000000000E+00 0.  1.
         11    1    1    2    0    0  0.29557984440E+02 -0.58740897143E+01  0.20370587621E+02  0.36374994352E+02  0.00000000000E+00 0. -1.
</event>
<event>
 7    1  0.3151015E-009  0.1216989E+03  0.7561462E-02  0.1240320E+00
         -2   -1    0    0    0  501 -0.00000000000E+00  0.00000000000E+00  0.29165716634E+03  0.29165716634E+03  0.00000000000E+00 0. -1.
          2   -1    0    0  501    0  0.00000000000E+00 -0.00000000000E+00 -0.64964585561E+02  0.64964585561E+02  0.00000000000E+00 0.  1.
         25    2    1    2    0    0 -0.43975898852E+02  0.68467839371E+02  0.15428921022E+03  0.21464937313E+03  0.12508984085E+03 0.  0.
          5    1    3    3  502    0  0.22349604962E+02  0.77748298964E+02  0.97356266159E+02  0.12664919184E+03  0.41800000000E+01 0.  1.
         -5    1    3    3    0  502 -0.66325503815E+02 -0.92804595932E+01  0.56932944064E+02  0.88000181286E+02  0.41800000000E+01 0.  1.
        -11    1    1    2    0    0  0.15463581477E+02 -0.64710136754E+02  0.87157857825E+02  0.10964951587E+03  0.00000000000E+00 0. -1.
         11    1    1    2    0    0  0.28512317375E+02 -0.37577026172E+01 -0.14754487273E+02  0.32322862896E+02  0.00000000000E+00 0.  1.
</event>
<event>
 7    1  0.3151015E-009  0.9497470E+02  0.7561462E-02  0.1291233E+00
         -1   -1    0    0    0  501 -0.00000000000E+00  0.00000000000E+00  0.17254267571E+02  0.17254267571E+02  0.00000000000E+00 0.  1.
          1   -1    0    0  501    0  0.00000000000E+00 -0.00000000000E+00 -0.87260594523E+03  0.87260594523E+03  0.00000000000E+00 0. -1.
         25    2    1    2    0    0  0.47612160316E+02  0.55596323290E+01 -0.55824152344E+03  0.57409010835E+03  0.12509207287E+03 0.  0.
          5    1    3    3  502    0 -0.18955556806E+02 -0.36449365972E+01 -0.41857914930E+03  0.41904483690E+03  0.41800000000E+01 0.  1.
         -5    1    3    3    0  502  0.66567717122E+02  0.92045689262E+01 -0.13966237413E+03  0.15504527145E+03  0.41800000000E+01 0.  1.
        -11    1    1    2    0    0 -0.65593851027E+02 -0.30323972203E+02 -0.16447592403E+03  0.17965084516E+03  0.00000000000E+00 0.  1.
         11    1    1    2    0    0  0.17981690711E+02  0.24764339874E+02 -0.13263423019E+03  0.13611925928E+03  0.00000000000E+00 0. -1.
</event>
<event>
 7    1  0.3151015E-009  0.1371056E+03  0.7561462E-02  0.1217277E+00
          1   -1    0    0  501    0  0.00000000000E+00  0.00000000000E+00  0.17508557504E+03  0.17508557504E+03  0.00000000000E+00 0. -1.
         -1   -1    0    0    0  501 -0.00000000000E+00 -0.00000000000E+00 -0.18464678276E+03  0.18464678276E+03  0.00000000000E+00 0.  1.
         25    2    1    2    0    0  0.30822526458E+01  0.11884105773E+03  0.74448018901E+02  0.18794570959E+03  0.12509350483E+03 0.  0.
          5    1    3    3  502    0 -0.80814675581E+01 -0.16676501043E+02 -0.15785743477E+02  0.24699755101E+02  0.41800000000E+01 0.  1.
         -5    1    3    3    0  502  0.11163720204E+02  0.13551755877E+03  0.90233762378E+02  0.16324595449E+03  0.41800000000E+01 0.  1.
        -11    1    1    2    0    0 -0.51988636850E+01 -0.44570718472E+02 -0.86497701410E+02  0.97444494344E+02  0.00000000000E+00 0.  1.
         11    1    1    2    0    0  0.21166110391E+01 -0.74270339254E+02  0.24884747899E+01  0.74342153870E+02  0.00000000000E+00 0. -1.
</event>
<event>
 7    1  0.3151015E-009  0.1023954E+03  0.7561462E-02  0.1275338E+00
          2   -1    0    0  501    0  0.00000000000E+00  0.00000000000E+00  0.11674738251E+04  0.11674738251E+04  0.00000000000E+00 0. -1.
         -2   -1    0    0    0  501 -0.00000000000E+00 -0.00000000000E+00 -0.11703089931E+02  0.11703089931E+02  0.00000000000E+00 0.  1.
         25    2    1    2    0    0 -0.12221708586E+02  0.38084430827E+02  0.89004485369E+03  0.89968543116E+03  0.12511690306E+03 0.  0.
          5    1    3    3  502    0 -0.49760712964E+02  0.61251272941E+02  0.40621309524E+03  0.41382894792E+03  0.41800000000E+01 0.  1.
         -5    1    3    3    0  502  0.37539004377E+02 -0.23166842114E+02  0.48383175845E+03  0.48585648324E+03  0.41800000000E+01 0.  1.
        -11    1    1    2    0    0  0.31128468865E+02 -0.50149721722E+02  0.14249482881E+03  0.15423602822E+03  0.00000000000E+00 0.  1.
         11    1    1    2    0    0 -0.18906760279E+02  0.12065290895E+02  0.12323105264E+03  0.12525545563E+03  0.00000000000E+00 0. -1.
</event>
<event>
 7    1  0.3151015E-009  0.8559696E+02  0.7561462E-02  0.1313879E+00
         -2   -1    0    0    0  501 -0.00000000000E+00  0.00000000000E+00  0.20390209906E+02  0.20390209906E+02  0.00000000000E+00 0.  1.
          2   -1    0    0  501    0  0.00000000000E+00 -0.00000000000E+00 -0.10919650135E+04  0.10919650135E+04  0.00000000000E+00 0. -1.
         25    2    1    2    0    0 -0.28126238269E+02  0.13967720486E+02 -0.93104564063E+03  0.93993888040E+03  0.12511167595E+03 0.  0.
          5    1    3    3  502    0  0.12475289700E+02  0.28592168444E+02 -0.82182205237E+03  0.82242452730E+03  0.41800000000E+01 0.  1.
         -5    1    3    3    0  502 -0.40601527969E+02 -0.14624447957E+02 -0.10922358826E+03  0.11751435310E+03  0.41800000000E+01 0.  1.
        -11    1    1    2    0    0 -0.24867964396E+01  0.36905443041E+02 -0.32933379606E+02  0.49525784949E+02  0.00000000000E+00 0.  1.
         11    1    1    2    0    0  0.30613034709E+02 -0.50873163527E+02 -0.10759578331E+03  0.12289055801E+03  0.00000000000E+00 0. -1.
</event>
<event>
 7    1  0.3151015E-009  0.1177911E+03  0.7561462E-02  0.1246786E+00
         -2   -1    0    0    0  501 -0.00000000000E+00  0.00000000000E+00  0.15561120443E+03  0.15561120443E+03  0.00000000000E+00 0. -1.
          2   -1    0    0  501    0  0.00000000000E+00 -0.00000000000E+00 -0.16855688261E+03  0.16855688261E+03  0.00000000000E+00 0.  1.
         25    2    1    2    0    0 -0.45288334792E+02  0.15508509102E+02 -0.10344249282E+03  0.16923251438E+03  0.12509095683E+03 0.  0.
          5    1    3    3  502    0 -0.53253659454E+02 -0.46553954409E+02 -0.48586326927E+02  0.85914646485E+02  0.41800000000E+01 0.  1.
         -5    1    3    3    0  502  0.79653246622E+01  0.62062463511E+02 -0.54856165891E+02  0.83317867893E+02  0.41800000000E+01 0.  1.
        -11    1    1    2    0    0  0.67602772460E+02  0.97595389541E+01  0.98899407640E+02  0.12019349515E+03  0.00000000000E+00 0. -1.
         11    1    1    2    0    0 -0.22314437668E+02 -0.25268048056E+02 -0.84025929993E+01  0.34742077516E+02  0.00000000000E+00 0.  1.
</event>
<event>
 7    1  0.3151015E-009  0.8436841E+02  0.7561462E-02  0.1317093E+00
         -2   -1    0    0    0  501 -0.00000000000E+00  0.00000000000E+00  0.46756192045E+02  0.46756192045E+02  0.00000000000E+00 0. -1.
          2   -1    0    0  501    0  0.00000000000E+00 -0.00000000000E+00 -0.11902162838E+04  0.11902162838E+04  0.00000000000E+00 0.  1.
         25    2    1    2    0    0  0.49473222021E+01 -0.34057638421E+02 -0.11444605520E+04  0.11517909655E+04  0.12509226306E+03 0.  0.
          5    1    3    3  502    0 -0.34894085390E+02  0.94462720697E+01 -0.11471880858E+03  0.12035242703E+03  0.41800000000E+01 0.  1.
         -5    1    3    3    0  502  0.39841407592E+02 -0.43503910491E+02 -0.10297417434E+04  0.10314385384E+04  0.41800000000E+01 0.  1.
        -11    1    1    2    0    0  0.65975991099E+01  0.51702020323E+02 -0.19617304666E+02  0.55690805900E+02  0.00000000000E+00 0.  1.
         11    1    1    2    0    0 -0.11544921312E+02 -0.17644381901E+02  0.20617764919E+02  0.29490704485E+02  0.00000000000E+00 0. -1.
</event>
<event>
 7    1  0.3151015E-009  0.1671627E+03  0.7561462E-02  0.1180839E+00
          2   -1    0    0  501    0  0.00000000000E+00  0.00000000000E+00  0.39625215346E+03  0.39625215346E+03  0.00000000000E+00 0. -1.
         -2   -1    0    0    0  501 -0.00000000000E+00 -0.00000000000E+00 -0.81413781644E+02  0.81413781644E+02  0.00000000000E+00 0.  1.
         25    2    1    2    0    0  0.10193875284E+03  0.99811006576E+02  0.16608471153E+03  0.25216124594E+03  0.12508963262E+03 0.  0.
          5    1    3    3  502    0  0.17920625810E+02 -0.29825713642E+02  0.26823633412E+02  0.44132773911E+02  0.41800000000E+01 0.  1.
         -5    1    3    3    0  502  0.84018127027E+02  0.12963672022E+03  0.13926107811E+03  0.20802847203E+03  0.41800000000E+01 0.  1.
        -11    1    1    2    0    0 -0.40792536866E+02 -0.57019178383E+02  0.13132032390E+03  0.14886317623E+03  0.00000000000E+00 0. -1.
         11    1    1    2    0    0 -0.61146215971E+02 -0.42791828193E+02  0.17433336393E+02  0.76641512938E+02  0.00000000000E+00 0.  1.
</event>
<event>
 7    1  0.3151015E-009  0.1037650E+03  0.7561462E-02  0.1272572E+00
         -2   -1    0    0    0  501 -0.00000000000E+00  0.00000000000E+00  0.51277054504E+02  0.51277054504E+02  0.00000000000E+00 0. -1.
          2   -1    0    0  501    0  0.00000000000E+00 -0.00000000000E+00 -0.24283330279E+03  0.24283330279E+03  0.00000000000E+00 0.  1.
         25    2    1    2    0    0  0.34359801644E+02 -0.56466018434E+01 -0.98751225985E+02  0.16312980107E+03  0.12508815805E+03 0.  0.
          5    1    3    3  502    0 -0.64365603881E+01  0.48251762729E+02 -0.78460389763E+02  0.92429254448E+02  0.41800000000E+01 0. -1.
         -5    1    3    3    0  502  0.40796362032E+02 -0.53898364572E+02 -0.20290836222E+02  0.70700546626E+02  0.41800000000E+01 0. -1.
        -11    1    1    2    0    0  0.27596249982E+02 -0.51018651522E+01 -0.18377223713E+02  0.33545556971E+02  0.00000000000E+00 0. -1.
         11    1    1    2    0    0 -0.61956051626E+02  0.10748466996E+02 -0.74427798587E+02  0.97434999247E+02  0.00000000000E+00 0.  1.
</event>
<event>
 7    1  0.3151015E-009  0.9646853E+02  0.7561462E-02  0.1287902E+00
          2   -1    0    0  501    0  0.00000000000E+00  0.00000000000E+00  0.91996417799E+02  0.91996417799E+02  0.00000000000E+00 0. -1.
         -2   -1    0    0    0  501 -0.00000000000E+00 -0.00000000000E+00 -0.18578715018E+03  0.18578715018E+03  0.00000000000E+00 0.  1.
         25    2    1    2    0    0  0.14201321492E+02 -0.31987468079E+02 -0.12021296563E+03  0.17698500745E+03  0.12509060760E+03 0.  0.
          5    1    3    3  502    0  0.14914912871E+02 -0.71678421631E+02 -0.31707026399E+02  0.79894046565E+02  0.41800000000E+01 0. -1.
         -5    1    3    3    0  502 -0.71359137925E+00  0.39690953552E+02 -0.88505939228E+02  0.97090960883E+02  0.41800000000E+01 0. -1.
        -11    1    1    2    0    0  0.29388055135E+02  0.12305766177E+02  0.39946734663E+02  0.51096294152E+02  0.00000000000E+00 0. -1.
         11    1    1    2    0    0 -0.43589376627E+02  0.19681701902E+02 -0.13524501414E+02  0.49702266377E+02  0.00000000000E+00 0.  1.
</event>
<event>
 7    1  0.3151015E-009  0.1002609E+03  0.7561462E-02  0.1279748E+00
         -1   -1    0    0    0  501 -0.00000000000E+00  0.00000000000E+00  0.54204017768E+02  0.54204017768E+02  0.00000000000E+00 0.  1.
          1   -1    0    0  501    0  0.00000000000E+00 -0.00000000000E+00 -0.25581804518E+03  0.25581804518E+03  0.00000000000E+00 0. -1.
         25    2    1    2    0    0  0.26380324880E+02 -0.68331065260E+01 -0.10973149635E+03  0.16861392358E+03  0.12508813312E+03 0.  0.
          5    1    3    3  502    0  0.21605989637E+02 -0.65292924710E+02 -0.53271413873E+02  0.87093632037E+02  0.41800000000E+01 0.  1.
         -5    1    3    3    0  502  0.47743352428E+01  0.58459818184E+02 -0.56460082481E+02  0.81520291540E+02  0.41800000000E+01 0.  1.
        -11    1    1    2    0    0 -0.14815260759E+02  0.37350546812E+02  0.37541002903E+01  0.40356518277E+02  0.00000000000E+00 0.  1.
         11    1    1    2    0    0 -0.11565064120E+02 -0.30517440286E+02 -0.95636631350E+02  0.10105162109E+03  0.00000000000E+00 0. -1.
</event>
<event>
 7    1  0.3151015E-009  0.1362884E+03  0.7561462E-02  0.1218412E+00
         -1   -1    0    0    0  501 -0.00000000000E+00  0.00000000000E+00  0.63096180888E+02  0.63096180888E+02  0.00000000000E+00 0.  1.
          1   -1    0    0  501    0  0.00000000000E+00 -0.00000000000E+00 -0.47381013881E+03  0.47381013881E+03  0.00000000000E+00 0. -1.
         25    2    1    2    0    0  0.61947618266E+02  0.93753498248E+02 -0.32962179686E+03  0.37003441770E+03  0.12509082888E+03 0.  0.
          5    1    3    3  502    0  0.79931848850E+02  0.52932152776E+02 -0.30319545643E+03  0.31801866369E+03  0.41800000000E+01 0. -1.
         -5    1    3    3    0  502 -0.17984230584E+02  0.40821345472E+02 -0.26426340437E+02  0.52015754005E+02  0.41800000000E+01 0. -1.
        -11    1    1    2    0    0  0.71633713695E+01 -0.48903214472E+02  0.25189396204E+01  0.49489224402E+02  0.00000000000E+00 0.  1.
         11    1    1    2    0    0 -0.69110989636E+02 -0.44850283776E+02 -0.83611100674E+02  0.11738267759E+03  0.00000000000E+00 0. -1.
</event>
<event>
 7    1  0.3151015E-009  0.1110547E+03  0.7561462E-02  0.1258629E+00
          2   -1    0    0  501    0  0.00000000000E+00  0.00000000000E+00  0.43339385063E+03  0.43339385063E+03  0.00000000000E+00 0. -1.
         -2   -1    0    0    0  501 -0.00000000000E+00 -0.00000000000E+00 -0.37097495863E+02  0.37097495863E+02  0.00000000000E+00 0.  1.
         25    2    1    2    0    0  0.59403721490E+02  0.12432509678E+02  0.26827687932E+03  0.30216471562E+03  0.12509061503E+03 0.  0.
          5    1    3    3  502    0  0.61926983782E+02  0.50191577053E+02  0.91903403612E+02  0.12172860684E+03  0.41800000000E+01 0. -1.
         -5    1    3    3    0  502 -0.25232622919E+01 -0.37759067375E+02  0.17637347570E+03  0.18043610878E+03  0.41800000000E+01 0. -1.
        -11    1    1    2    0    0 -0.29707522382E+02 -0.48880196490E+02  0.44449757045E+02  0.72440260880E+02  0.00000000000E+00 0.  1.
         11    1    1    2    0    0 -0.29696199108E+02  0.36447686811E+02  0.83569718407E+02  0.95886369991E+02  0.00000000000E+00 0. -1.
</event>
<event>
 7    1  0.3151015E-009  0.1129088E+03  0.7561462E-02  0.1255276E+00
          1   -1    0    0  501    0  0.00000000000E+00  0.00000000000E+00  0.24657360316E+03  0.24657360316E+03  0.00000000000E+00 0. -1.
         -1   -1    0    0    0  501 -0.00000000000E+00 -0.00000000000E+00 -0.72539700613E+02  0.72539700613E+02  0.00000000000E+00 0.  1.
         25    2    1    2    0    0  0.46125990890E+02 -0.50513902320E+02  0.12182594455E+03  0.18753207724E+03  0.12508979920E+03 0.  0.
          5    1    3    3  502    0  0.82209027634E+02 -0.15406700031E+02  0.43605872686E+02  0.94417345669E+02  0.41800000000E+01 0. -1.
         -5    1    3    3    0  502 -0.36083036744E+02 -0.35107202289E+02  0.78220071859E+02  0.93114731567E+02  0.41800000000E+01 0. -1.
        -11    1    1    2    0    0  0.42251800374E+01 -0.11163222676E+02  0.50554316379E+02  0.51944283530E+02  0.00000000000E+00 0. -1.
         11    1    1    2    0    0 -0.50351170928E+02  0.61677124996E+02  0.16536416262E+01  0.79636943011E+02  0.00000000000E+00 0.  1.
</event>
<event>
 7    1  0.3151015E-009  0.2477389E+03  0.7561462E-02  0.1114742E+00
          4   -1    0    0  501    0  0.00000000000E+00  0.00000000000E+00  0.22687864294E+03  0.22687864294E+03  0.00000000000E+00 0. -1.
         -4   -1    0    0    0  501 -0.00000000000E+00 -0.00000000000E+00 -0.28929407764E+03  0.28929407764E+03  0.00000000000E+00 0.  1.
         25    2    1    2    0    0 -0.25604145595E+02 -0.22961493411E+03 -0.51744384627E+02  0.26779491792E+03  0.12513211612E+03 0.  0.
          5    1    3    3  502    0  0.30103544640E+02 -0.17312432126E+03 -0.54783739453E+01  0.17585715508E+03  0.41800000000E+01 0.  1.
         -5    1    3    3    0  502 -0.55707690235E+02 -0.56490612849E+02 -0.46266010681E+02  0.91937762839E+02  0.41800000000E+01 0.  1.
        -11    1    1    2    0    0  0.44420870511E+02  0.20209850701E+03 -0.31150794208E+02  0.20925437212E+03  0.00000000000E+00 0.  1.
         11    1    1    2    0    0 -0.18816724916E+02  0.27516427106E+02  0.20479744136E+02  0.39123430538E+02  0.00000000000E+00 0. -1.
</event>
<event>
 7    1  0.3151015E-009  0.1572600E+03  0.7561462E-02  0.1191825E+00
         -4   -1    0    0    0  501 -0.00000000000E+00  0.00000000000E+00  0.87870593873E+02  0.87870593873E+02  0.00000000000E+00 0.  1.
          4   -1    0    0  501    0  0.00000000000E+00 -0.00000000000E+00 -0.42881683112E+03  0.42881683112E+03  0.00000000000E+00 0. -1.
         25    2    1    2    0    0 -0.10714907278E+03  0.83308992103E+02 -0.29331696884E+03  0.34655995431E+03  0.12509055023E+03 0.  0.
          5    1    3    3  502    0  0.13205809612E+02 -0.11080944562E+02 -0.92002155236E+02  0.93696583224E+02  0.41800000000E+01 0. -1.
         -5    1    3    3    0  502 -0.12035488240E+03  0.94389936665E+02 -0.20131481361E+03  0.25286337109E+03  0.41800000000E+01 0. -1.
        -11    1    1    2    0    0  0.58914721309E+02 -0.74097941790E+02 -0.68419400192E+02  0.11680181372E+03  0.00000000000E+00 0. -1.
         11    1    1    2    0    0  0.48234351475E+02 -0.92110503129E+01  0.20790131795E+02  0.53325656960E+02  0.00000000000E+00 0.  1.
</event>
<event>
 7    1  0.3151015E-009  0.1190448E+03  0.7561462E-02  0.1244681E+00
         -1   -1    0    0    0  501 -0.00000000000E+00  0.00000000000E+00  0.25065672266E+02  0.25065672266E+02  0.00000000000E+00 0.  1.
          1   -1    0    0  501    0  0.00000000000E+00 -0.00000000000E+00 -0.65554673640E+03  0.65554673640E+03  0.00000000000E+00 0. -1.
         25    2    1    2    0    0 -0.16736179919E+02 -0.66315564296E+02 -0.33485840987E+03  0.36394478041E+03  0.12509114571E+03 0.  0.
          5    1    3    3  502    0 -0.51785444352E+02 -0.73216964974E+02 -0.14375045166E+03  0.16948191927E+03  0.41800000000E+01 0.  1.
         -5    1    3    3    0  502  0.35049264433E+02  0.69014006780E+01 -0.19110795822E+03  0.19446286114E+03  0.41800000000E+01 0.  1.
        -11    1    1    2    0    0  0.33598284985E+02  0.82435134485E+02 -0.21399129739E+03  0.23176857317E+03  0.00000000000E+00 0.  1.
         11    1    1    2    0    0 -0.16862105066E+02 -0.16119570189E+02 -0.81631356876E+02  0.84899055093E+02  0.00000000000E+00 0. -1.
</event>
<event>
 7    1  0.3151015E-009  0.1202900E+03  0.7561462E-02  0.1242619E+00
          2   -1    0    0  501    0  0.00000000000E+00  0.00000000000E+00  0.34271921398E+03  0.34271921398E+03  0.00000000000E+00 0. -1.
         -2   -1    0    0    0  501 -0.00000000000E+00 -0.00000000000E+00 -0.52033534504E+02  0.52033534504E+02  0.00000000000E+00 0.  1.
         25    2    1    2    0    0 -0.67649273731E+02  0.31391345963E+02  0.13115137555E+03  0.19598291437E+03  0.12508708398E+03 0.  0.
          5    1    3    3  502    0 -0.88661725313E+02  0.55480309970E+02  0.67262709432E+02  0.12442150461E+03  0.41800000000E+01 0. -1.
         -5    1    3    3    0  502  0.21012451582E+02 -0.24088964007E+02  0.63888666119E+02  0.71561409760E+02  0.41800000000E+01 0. -1.
        -11    1    1    2    0    0  0.49357455741E+02 -0.54937373789E+02  0.15045213714E+03  0.16760107114E+03  0.00000000000E+00 0.  1.
         11    1    1    2    0    0  0.18291817990E+02  0.23546027826E+02  0.90821667803E+01  0.31168762971E+02  0.00000000000E+00 0. -1.
</event>
<event>
 7    1  0.3151015E-009  0.2060026E+03  0.7561462E-02  0.1144771E+00
          1   -1    0    0  501    0  0.00000000000E+00  0.00000000000E+00  0.41792737047E+03  0.41792737047E+03  0.00000000000E+00 0. -1.
         -1   -1    0    0    0  501 -0.00000000000E+00 -0.00000000000E+00 -0.10824737717E+03  0.10824737717E+03  0.00000000000E+00 0.  1.
         25    2    1    2    0    0 -0.11601545141E+03  0.11808955104E+03  0.19522680363E+03  0.28489498756E+03  0.12508765746E+03 0.  0.
          5    1    3    3  502    0 -0.13516645190E+03  0.79959664047E+02  0.18111832968E+03  0.23975996192E+03  0.41800000000E+01 0. -1.
         -5    1    3    3    0  502  0.19151000486E+02  0.38129886996E+02  0.14108473944E+02  0.45135025634E+02  0.41800000000E+01 0. -1.
        -11    1    1    2    0    0  0.12520795616E+03 -0.37196324048E+02  0.63478393445E+02  0.14522432731E+03  0.00000000000E+00 0.  1.
         11    1    1    2    0    0 -0.91925047439E+01 -0.80893226995E+02  0.50974796226E+02  0.96055432784E+02  0.00000000000E+00 0. -1.
</event>
<event>
 7    1  0.3151015E-009  0.1415272E+03  0.7561462E-02  0.1211289E+00
          2   -1    0    0  501    0  0.00000000000E+00  0.00000000000E+00  0.12361026971E+04  0.12361026971E+04  0.00000000000E+00 0.  1.
         -2   -1    0    0    0  501 -0.00000000000E+00 -0.00000000000E+00 -0.21725510297E+02  0.21725510297E+02  0.00000000000E+00 0. -1.
         25    2    1    2    0    0 -0.11854762810E+03 -0.11272967332E+02  0.76576893069E+03  0.78500294032E+03  0.12508773393E+03 0.  0.
          5    1    3    3  502    0 -0.34986697231E+02 -0.40406858815E+02  0.10091125556E+03  0.11426870578E+03  0.41800000000E+01 0. -1.
         -5    1    3    3    0  502 -0.83560930871E+02  0.29133891483E+02  0.66485767514E+03  0.67073423454E+03  0.41800000000E+01 0. -1.
        -11    1    1    2    0    0  0.14187100678E+02  0.31499536337E+02  0.19177797036E+03  0.19486478525E+03  0.00000000000E+00 0.  1.
         11    1    1    2    0    0  0.10436052742E+03 -0.20226569005E+02  0.25683028576E+03  0.27796048183E+03  0.00000000000E+00 0. -1.
</event>
<event>
 7    1  0.3151015E-009  0.8994931E+02  0.7561462E-02  0.1302974E+00
          1   -1    0    0  501    0  0.00000000000E+00  0.00000000000E+00  0.14787450418E+03  0.14787450418E+03  0.00000000000E+00 0. -1.
         -1   -1    0    0    0  501 -0.00000000000E+00 -0.00000000000E+00 -0.81606724160E+02  0.81606724160E+02  0.00000000000E+00 0.  1.
         25    2    1    2    0    0  0.11249585681E+01 -0.13630468039E+02  0.36626168395E+02  0.13106183944E+03  0.12509466157E+03 0.  0.
          5    1    3    3  502    0  0.26857740491E+02  0.40665261605E+02 -0.15601729660E+02  0.51340900791E+02  0.41800000000E+01 0.  1.
         -5    1    3    3    0  502 -0.25732781923E+02 -0.54295729644E+02  0.52227898056E+02  0.79720938644E+02  0.41800000000E+01 0.  1.
        -11    1    1    2    0    0 -0.33906720886E+02  0.16763579053E+02  0.47688280739E+02  0.60867523555E+02  0.00000000000E+00 0. -1.
         11    1    1    2    0    0  0.32781762318E+02 -0.31331110139E+01 -0.18046669113E+02  0.37551865351E+02  0.00000000000E+00 0.  1.
</event>
<event>
 7    1  0.3151015E-009  0.9533511E+02  0.7561462E-02  0.1290423E+00
          3   -1    0    0  501    0  0.00000000000E+00  0.00000000000E+00  0.37353844803E+03  0.37353844803E+03  0.00000000000E+00 0. -1.
         -3   -1    0    0    0  501 -0.00000000000E+00 -0.00000000000E+00 -0.32456541220E+02  0.32456541220E+02  0.00000000000E+00 0.  1.
         25    2    1    2    0    0 -0.20076539058E+02  0.10848723374E+02  0.22449760740E+03  0.25800744334E+03  0.12509157794E+03 0.  0.
          5    1    3    3  502    0  0.35649594314E+02 -0.28495630131E+02  0.38513310851E+02  0.59863528329E+02  0.41800000000E+01 0. -1.
         -5    1    3    3    0  502 -0.55726133372E+02  0.39344353505E+02  0.18598429655E+03  0.19814391501E+03  0.41800000000E+01 0. -1.
        -11    1    1    2    0    0 -0.27023396620E+02  0.35252962716E+01  0.74422007982E+01  0.28250274891E+02  0.00000000000E+00 0.  1.
         11    1    1    2    0    0  0.47099935678E+02 -0.14374019646E+02  0.10914209861E+03  0.11973727102E+03  0.00000000000E+00 0. -1.
</event>
<event>
 7    1  0.3151015E-009  0.1211771E+03  0.7561462E-02  0.1241168E+00
          2   -1    0    0  501    0  0.00000000000E+00  0.00000000000E+00  0.22356288899E+03  0.22356288899E+03  0.00000000000E+00 0.  1.
         -2   -1    0    0    0  501 -0.00000000000E+00 -0.00000000000E+00 -0.66613522141E+02  0.66613522141E+02  0.00000000000E+00 0. -1.
         25    2    1    2    0    0 -0.34112720517E+02 -0.43651304712E+02  0.97648483459E+02  0.16808330331E+03  0.12509059287E+03 0.  0.
          5    1    3    3  502    0 -0.28966262217E+02  0.41242349620E+02  0.46805452085E+02  0.68907173023E+02  0.41800000000E+01 0. -1.
         -5    1    3    3    0  502 -0.51464582993E+01 -0.84893654332E+02  0.50843031374E+02  0.99176130284E+02  0.41800000000E+01 0. -1.
        -11    1    1    2    0    0 -0.30577714465E+02  0.24449848663E+02  0.19321210605E+02  0.43658915479E+02  0.00000000000E+00 0.  1.
         11    1    1    2    0    0  0.64690434982E+02  0.19201456049E+02  0.39979672781E+02  0.78434192341E+02  0.00000000000E+00 0. -1.
</event>
<event>
 7    1  0.3151015E-009  0.1370524E+03  0.7561462E-02  0.1217351E+00
          1   -1    0    0  501    0  0.00000000000E+00  0.00000000000E+00  0.15652645435E+04  0.15652645435E+04  0.00000000000E+00 0. -1.
         -1   -1    0    0    0  501 -0.00000000000E+00 -0.00000000000E+00 -0.15977124255E+02  0.15977124255E+02  0.00000000000E+00 0.  1.
         25    2    1    2    0    0 -0.50250578001E+02  0.81454505533E+02  0.11595715121E+04  0.11702189911E+04  0.12508572431E+03 0.  0.
          5    1    3    3  502    0 -0.63641622042E+02 -0.14917843408E+01  0.70877640865E+03  0.71164172962E+03  0.41800000000E+01 0.  1.
         -5    1    3    3    0  502  0.13391044041E+02  0.82946289874E+02  0.45079510343E+03  0.45857726147E+03  0.41800000000E+01 0.  1.
        -11    1    1    2    0    0 -0.21863096348E+02 -0.31948715991E+02  0.75335480007E+02  0.84700354092E+02  0.00000000000E+00 0.  1.
         11    1    1    2    0    0  0.72113674349E+02 -0.49505789542E+02  0.31438042713E+03  0.32632232254E+03  0.00000000000E+00 0. -1.
</event>
<event>
 7    1  0.3151015E-009  0.1434016E+03  0.7561462E-02  0.1208824E+00
         -1   -1    0    0    0  501 -0.00000000000E+00  0.00000000000E+00  0.17908290813E+03  0.17908290813E+03  0.00000000000E+00 0.  1.
          1   -1    0    0  501    0  0.00000000000E+00 -0.00000000000E+00 -0.13092628270E+03  0.13092628270E+03  0.00000000000E+00 0. -1.
         25    2    1    2    0    0 -0.87124328787E+02 -0.47340622876E+02  0.71429805216E+02  0.17487799068E+03  0.12509321048E+03 0.  0.
          5    1    3    3  502    0  0.27201252053E+02  0.49143675990E+01  0.33247358147E+02  0.43438673391E+02  0.41800000000E+01 0.  1.
         -5    1    3    3    0  502 -0.11432558084E+03 -0.52254990475E+02  0.38182447068E+02  0.13143931728E+03  0.41800000000E+01 0.  1.
        -11    1    1    2    0    0  0.10135475846E+02  0.54797485966E+02 -0.11295316123E+02  0.56860148656E+02  0.00000000000E+00 0. -1.
         11    1    1    2    0    0  0.76988852941E+02 -0.74568630901E+01 -0.11977863663E+02  0.78271051496E+02  0.00000000000E+00 0.  1.
</event>
<event>
 7    1  0.3151015E-009  0.1343230E+03  0.7561462E-02  0.1221179E+00
         -2   -1    0    0    0  501 -0.00000000000E+00  0.00000000000E+00  0.21207421646E+02  0.21207421646E+02  0.00000000000E+00 0.  1.
          2   -1    0    0  501    0  0.00000000000E+00 -0.00000000000E+00 -0.20040835318E+04  0.20040835318E+04  0.00000000000E+00 0. -1.
         25    2    1    2    0    0 -0.67010299705E+02 -0.36270742231E+02 -0.17493408293E+04  0.17554620392E+04  0.12509071494E+03 0.  0.
          5    1    3    3  502    0 -0.48153438554E+02 -0.79758729042E+02 -0.90806797124E+03  0.91284452197E+03  0.41800000000E+01 0. -1.
         -5    1    3    3    0  502 -0.18856861151E+02  0.43487986811E+02 -0.84127285806E+03  0.84261751721E+03  0.41800000000E+01 0. -1.
        -11    1    1    2    0    0 -0.23287585522E+02  0.29024850141E+02 -0.11351691351E+03  0.11946063459E+03  0.00000000000E+00 0. -1.
         11    1    1    2    0    0  0.90297885227E+02  0.72458920905E+01 -0.12001836734E+03  0.15036827966E+03  0.00000000000E+00 0.  1.
</event>
<event>
 7    1  0.3151015E-009  0.1067376E+03  0.7561462E-02  0.1266733E+00
         -1   -1    0    0    0  501 -0.00000000000E+00  0.00000000000E+00  0.12700820637E+03  0.12700820637E+03  0.00000000000E+00 0.  1.
          1   -1    0    0  501    0  0.00000000000E+00 -0.00000000000E+00 -0.11043241098E+03  0.11043241098E+03  0.00000000000E+00 0. -1.
         25    2    1    2    0    0 -0.35568413230E+02  0.71631708630E+00 -0.24564577853E+02  0.13234989636E+03  0.12508977356E+03 0.  0.
          5    1    3    3  502    0 -0.75887217261E+02 -0.22375352802E+02  0.83650604014E+00  0.79231927271E+02  0.41800000000E+01 0.  1.
         -5    1    3    3    0  502  0.40318804031E+02  0.23091669888E+02 -0.25401083894E+02  0.53117969085E+02  0.41800000000E+01 0.  1.
        -11    1    1    2    0    0 -0.87639135309E+00  0.35914052275E+02 -0.44272081650E+01  0.36196510671E+02  0.00000000000E+00 0.  1.
         11    1    1    2    0    0  0.36444804583E+02 -0.36630369362E+02  0.45567581405E+02  0.68894210321E+02  0.00000000000E+00 0. -1.
</event>
<event>
 7    1  0.3151015E-009  0.9435277E+02  0.7561462E-02  0.1292640E+00
          1   -1    0    0  501    0  0.00000000000E+00  0.00000000000E+00  0.96156285747E+02  0.96156285747E+02  0.00000000000E+00 0. -1.
         -1   -1    0    0    0  501 -0.00000000000E+00 -0.00000000000E+00 -0.14455665063E+03  0.14455665063E+03  0.00000000000E+00 0.  1.
         25    2    1    2    0    0 -0.27210487893E+02  0.35664588868E+02 -0.42852023380E+02  0.13963803671E+03  0.12510040703E+03 0.  0.
          5    1    3    3  502    0  0.42163883245E+02  0.31056474567E+02  0.83468429605E+01  0.53192479264E+02  0.41800000000E+01 0.  1.
         -5    1    3    3    0  502 -0.69374371138E+02  0.46081143009E+01 -0.51198866341E+02  0.86445557450E+02  0.41800000000E+01 0.  1.
        -11    1    1    2    0    0 -0.16288184507E+00 -0.38949178691E+02 -0.40744380752E+02  0.56366387271E+02  0.00000000000E+00 0.  1.
         11    1    1    2    0    0  0.27373369738E+02  0.32845898227E+01  0.35196039250E+02  0.44708512389E+02  0.00000000000E+00 0. -1.
</event>
<event>
 7    1  0.3151015E-009  0.1334602E+03  0.7561462E-02  0.1222410E+00
          4   -1    0    0  501    0  0.00000000000E+00  0.00000000000E+00  0.14531526515E+04  0.14531526515E+04  0.00000000000E+00 0. -1.
         -4   -1    0    0    0  501 -0.00000000000E+00 -0.00000000000E+00 -0.17628321492E+02  0.17628321492E+02  0.00000000000E+00 0.  1.
         25    2    1    2    0    0 -0.32342510570E+02 -0.10992643529E+03  0.91342968002E+03  0.92904825605E+03  0.12508805920E+03 0.  0.
          5    1    3    3  502    0  0.84763161381E+01 -0.10567063196E+03  0.82105346123E+03  0.82787945318E+03  0.41800000000E+01 0. -1.
         -5    1    3    3    0  502 -0.40818826708E+02 -0.42558033241E+01  0.92376218790E+02  0.10116880287E+03  0.41800000000E+01 0. -1.
        -11    1    1    2    0    0  0.39476609865E+02  0.86401656726E+02  0.49914069220E+03  0.50809947808E+03  0.00000000000E+00 0. -1.
         11    1    1    2    0    0 -0.71340992951E+01  0.23524778561E+02  0.22953957799E+02  0.33633238882E+02  0.00000000000E+00 0.  1.
</event>
<event>
 7    1  0.3482597E-009  0.1071040E+03  0.7561462E-02  0.1266029E+00
         -2   -1    0    0    0  501 -0.00000000000E+00  0.00000000000E+00  0.91729165573E+02  0.91729165573E+02  0.00000000000E+00 0. -1.
          2   -1    0    0  501    0  0.00000000000E+00 -0.00000000000E+00 -0.24552615490E+03  0.24552615490E+03  0.00000000000E+00 0.  1.
         25    2    1    2    0    0 -0.77244273935E+02  0.61512853375E+02 -0.48503963742E+02  0.16658308915E+03  0.12508709808E+03 0.  0.
          5    1    3    3  502    0 -0.77691363210E+02  0.70169586062E+02  0.11874191504E+02  0.10544281649E+03  0.41800000000E+01 0.  1.
         -5    1    3    3    0  502  0.44708927494E+00 -0.86567326877E+01 -0.60378155246E+02  0.61140272657E+02  0.41800000000E+01 0.  1.
        -11    1    1    2    0    0  0.50777499391E+02 -0.48895198837E+02 -0.10279338635E+02  0.71237347765E+02  0.00000000000E+00 0. -1.
         11    1    1    2    0    0  0.26466774544E+02 -0.12617654538E+02 -0.95013686947E+02  0.99434883558E+02  0.00000000000E+00 0.  1.
</event>
<event>
 7    1  0.3151015E-009  0.9224726E+02  0.7561462E-02  0.1297499E+00
         -1   -1    0    0    0  501 -0.00000000000E+00  0.00000000000E+00  0.39967354360E+02  0.39967354360E+02  0.00000000000E+00 0.  1.
          1   -1    0    0  501    0  0.00000000000E+00 -0.00000000000E+00 -0.95421807501E+03  0.95421807501E+03  0.00000000000E+00 0. -1.
         25    2    1    2    0    0 -0.34275105155E+02 -0.37405970234E+02 -0.87209416511E+03  0.88247883450E+03  0.12508665432E+03 0.  0.
          5    1    3    3  502    0 -0.79559433918E+01  0.35906791134E+02 -0.10318692611E+03  0.10962485487E+03  0.41800000000E+01 0. -1.
         -5    1    3    3    0  502 -0.26319161763E+02 -0.73312761368E+02 -0.76890723900E+03  0.77285397964E+03  0.41800000000E+01 0. -1.
        -11    1    1    2    0    0  0.35370998900E+02  0.34925414749E+01  0.20078883266E+02  0.40822383105E+02  0.00000000000E+00 0.  1.
         11    1    1    2    0    0 -0.10958937449E+01  0.33913428759E+02 -0.62235438804E+02  0.70884211757E+02  0.00000000000E+00 0. -1.
</event>
<event>
 7    1  0.3151015E-009  0.1859355E+03  0.7561462E-02  0.1162179E+00
          1   -1    0    0  501    0  0.00000000000E+00  0.00000000000E+00  0.53574968331E+02  0.53574968331E+02  0.00000000000E+00 0. -1.
         -1   -1    0    0    0  501 -0.00000000000E+00 -0.00000000000E+00 -0.10345744489E+04  0.10345744489E+04  0.00000000000E+00 0.  1.
         25    2    1    2    0    0 -0.20337298666E+02  0.15120459702E+03 -0.17721998856E+03  0.26519997718E+03  0.12509063783E+03 0.  0.
          5    1    3    3  502    0  0.51157800425E+02  0.45481134448E+02 -0.49374370332E+02  0.84504171381E+02  0.41800000000E+01 0.  1.
         -5    1    3    3    0  502 -0.71495099091E+02  0.10572346257E+03 -0.12784561823E+03  0.18069580580E+03  0.41800000000E+01 0.  1.
        -11    1    1    2    0    0 -0.33443829437E+02 -0.77008843701E+02 -0.42810754791E+03  0.43626244889E+03  0.00000000000E+00 0. -1.
         11    1    1    2    0    0  0.53781128103E+02 -0.74195753322E+02 -0.37567194409E+03  0.38668699116E+03  0.00000000000E+00 0.  1.
</event>
<event>
 7    1  0.3151015E-009  0.7992116E+02  0.7561462E-02  0.1329275E+00
          1   -1    0    0  501    0  0.00000000000E+00  0.00000000000E+00  0.23624780977E+03  0.23624780977E+03  0.00000000000E+00 0. -1.
         -1   -1    0    0    0  501 -0.00000000000E+00 -0.00000000000E+00 -0.49404747750E+02  0.49404747750E+02  0.00000000000E+00 0.  1.
         25    2    1    2    0    0 -0.74767200731E+01 -0.68737220490E+00  0.11458888301E+03  0.16980880525E+03  0.12509214367E+03 0.  0.
          5    1    3    3  502    0 -0.38895967809E+02  0.62969318488E+00 -0.10703519572E+02  0.40562674426E+02  0.41800000000E+01 0.  1.
         -5    1    3    3    0  502  0.31419247736E+02 -0.13170653898E+01  0.12529240258E+03  0.12924613083E+03  0.41800000000E+01 0.  1.
        -11    1    1    2    0    0  0.43020054530E+02 -0.20457504541E+02  0.27926559748E+02  0.55218903676E+02  0.00000000000E+00 0.  1.
         11    1    1    2    0    0 -0.35543334457E+02  0.21144876746E+02  0.44327619261E+02  0.60624848587E+02  0.00000000000E+00 0. -1.
</event>
<event>
 7    1  0.3151015E-009  0.1138396E+03  0.7561462E-02  0.1253620E+00
         -1   -1    0    0    0  501 -0.00000000000E+00  0.00000000000E+00  0.72845843978E+02  0.72845843978E+02  0.00000000000E+00 0.  1.
          1   -1    0    0  501    0  0.00000000000E+00 -0.00000000000E+00 -0.23046855485E+03  0.23046855485E+03  0.00000000000E+00 0. -1.
         25    2    1    2    0    0  0.58404331223E+02  0.25298916711E+02 -0.11117278501E+03  0.17904748327E+03  0.12509001577E+03 0.  0.
          5    1    3    3  502    0 -0.25197985097E+02  0.13838502155E+02 -0.86174276451E+02  0.90939105541E+02  0.41800000000E+01 0.  1.
         -5    1    3    3    0  502  0.83602316320E+02  0.11460414555E+02 -0.24998508557E+02  0.88108377728E+02  0.41800000000E+01 0.  1.
        -11    1    1    2    0    0 -0.15783038059E+02 -0.58197699069E+02 -0.33132451420E+02  0.68802876425E+02  0.00000000000E+00 0.  1.
         11    1    1    2    0    0 -0.42621293163E+02  0.32898782358E+02 -0.13317474447E+02  0.55464039136E+02  0.00000000000E+00 0. -1.
</event>
<event>
 7    1  0.3442672E-009  0.1425842E+03  0.7561462E-02  0.1209893E+00
          1   -1    0    0  501    0  0.00000000000E+00  0.00000000000E+00  0.44532758999E+03  0.44532758999E+03  0.00000000000E+00 0.  1.
         -1   -1    0    0    0  501 -0.00000000000E+00 -0.00000000000E+00 -0.64161037717E+02  0.64161037717E+02  0.00000000000E+00 0. -1.
         25    2    1    2    0    0 -0.11670094029E+03 -0.28116901141E+02  0.13099376580E+03  0.21729300079E+03  0.12508881613E+03 0.  0.
          5    1    3    3  502    0  0.81315593777E+01  0.96895035505E+01  0.73487720825E+02  0.74685515657E+02  0.41800000000E+01 0.  1.
         -5    1    3    3    0  502 -0.12483249966E+03 -0.37806404691E+02  0.57506044975E+02  0.14260748513E+03  0.41800000000E+01 0.  1.
        -11    1    1    2    0    0  0.31587558134E+02  0.44599766249E+02  0.50075123719E+02  0.74124429130E+02  0.00000000000E+00 0. -1.
         11    1    1    2    0    0  0.85113382151E+02 -0.16482865108E+02  0.20009766275E+03  0.21807119778E+03  0.00000000000E+00 0.  1.
</event>
<event>
 7    1  0.3151015E-009  0.8877005E+02  0.7561462E-02  0.1305858E+00
          2   -1    0    0  501    0  0.00000000000E+00  0.00000000000E+00  0.12094255053E+04  0.12094255053E+04  0.00000000000E+00 0. -1.
         -2   -1    0    0    0  501 -0.00000000000E+00 -0.00000000000E+00 -0.19789762560E+02  0.19789762560E+02  0.00000000000E+00 0.  1.
         25    2    1    2    0    0 -0.33882537916E+02 -0.41225379844E+02  0.10184144464E+04  0.10274546898E+04  0.12509035429E+03 0.  0.
          5    1    3    3  502    0  0.81053429079E+01  0.43071788875E+01  0.80826955982E+03  0.80833248240E+03  0.41800000000E+01 0. -1.
         -5    1    3    3    0  502 -0.41987880824E+02 -0.45532558731E+02  0.21014488658E+03  0.21912220745E+03  0.41800000000E+01 0. -1.
        -11    1    1    2    0    0  0.38070719004E+02 -0.20683228852E+02  0.55033469644E+02  0.70041833088E+02  0.00000000000E+00 0.  1.
         11    1    1    2    0    0 -0.41881810879E+01  0.61908608695E+02  0.11618782668E+03  0.13171874490E+03  0.00000000000E+00 0. -1.
</event>
<event>
 7    1  0.3151015E-009  0.1091687E+03  0.7561462E-02  0.1262117E+00
         -2   -1    0    0    0  501 -0.00000000000E+00  0.00000000000E+00  0.11669900005E+03  0.11669900005E+03  0.00000000000E+00 0.  1.
          2   -1    0    0  501    0  0.00000000000E+00 -0.00000000000E+00 -0.13194393790E+03  0.13194393790E+03  0.00000000000E+00 0. -1.
         25    2    1    2    0    0  0.32731864332E+02 -0.47878070586E+02 -0.21804497966E+02  0.13959409447E+03  0.12508952991E+03 0.  0.
          5    1    3    3  502    0 -0.15590988009E+02 -0.66752967658E+02 -0.45526562167E+02  0.82396467528E+02  0.41800000000E+01 0.  1.
         -5    1    3    3    0  502  0.48322852341E+02  0.18874897073E+02  0.23722064201E+02  0.57197626942E+02  0.41800000000E+01 0.  1.
        -11    1    1    2    0    0 -0.39690900173E+02 -0.86805592149E+01  0.26691254702E+02  0.48612166609E+02  0.00000000000E+00 0.  1.
         11    1    1    2    0    0  0.69590358408E+01  0.56558629800E+02 -0.20131694586E+02  0.60436676875E+02  0.00000000000E+00 0. -1.
</event>
<event>
 7    1  0.3151015E-009  0.1287312E+03  0.7561462E-02  0.1229351E+00
          1   -1    0    0  501    0  0.00000000000E+00  0.00000000000E+00  0.96165010672E+02  0.96165010672E+02  0.00000000000E+00 0. -1.
         -1   -1    0    0    0  501 -0.00000000000E+00 -0.00000000000E+00 -0.30128304978E+03  0.30128304978E+03  0.00000000000E+00 0.  1.
         25    2    1    2    0    0 -0.11855627442E+03 -0.18153253265E+02 -0.16999474926E+03  0.24274436188E+03  0.12506590120E+03 0.  0.
          5    1    3    3  502    0 -0.39588261615E+02 -0.33590467335E+02 -0.15132496230E+03  0.16003832843E+03  0.41800000000E+01 0.  1.
         -5    1    3    3    0  502 -0.78968012801E+02  0.15437214070E+02 -0.18669786965E+02  0.82706033452E+02  0.41800000000E+01 0.  1.
        -11    1    1    2    0    0  0.75065098304E+02  0.28166335092E+02 -0.63102346984E+02  0.10202949383E+03  0.00000000000E+00 0. -1.
         11    1    1    2    0    0  0.43491176112E+02 -0.10013081828E+02  0.27979057133E+02  0.52674204744E+02  0.00000000000E+00 0.  1.
</event>
<event>
 7    1  0.3151015E-009  0.1093712E+03  0.7561462E-02  0.1261739E+00
          2   -1    0    0  501    0  0.00000000000E+00  0.00000000000E+00  0.69544117343E+03  0.69544117343E+03  0.00000000000E+00 0. -1.
         -2   -1    0    0    0  501 -0.00000000000E+00 -0.00000000000E+00 -0.21615416592E+02  0.21615416592E+02  0.00000000000E+00 0.  1.
         25    2    1    2    0    0 -0.25376295372E+02 -0.18678676125E+02  0.52116467339E+03  0.53688926886E+03  0.12507845908E+03 0.  0.
          5    1    3    3  502    0  0.26007707381E+02  0.39420668280E+02  0.13760760776E+03  0.14554626771E+03  0.41800000000E+01 0. -1.
         -5    1    3    3    0  502 -0.51384002752E+02 -0.58099344405E+02  0.38355706563E+03  0.39134300115E+03  0.41800000000E+01 0. -1.
        -11    1    1    2    0    0  0.38990808366E+02  0.47695290319E+02  0.81875376997E+02  0.10246317004E+03  0.00000000000E+00 0.  1.
         11    1    1    2    0    0 -0.13614512994E+02 -0.29016614195E+02  0.70785706451E+02  0.77704151119E+02  0.00000000000E+00 0. -1.
</event>
<event>
 7    1  0.3151015E-009  0.7436401E+02  0.7561462E-02  0.1345852E+00
          1   -1    0    0  501    0  0.00000000000E+00  0.00000000000E+00  0.17445856119E+03  0.17445856119E+03  0.00000000000E+00 0. -1.
         -1   -1    0    0    0  501 -0.00000000000E+00 -0.00000000000E+00 -0.91266057116E+02  0.91266057116E+02  0.00000000000E+00 0.  1.
         25    2    1    2    0    0  0.11910392893E+02 -0.42738753564E+02 -0.10029062311E+02  0.13308994789E+03  0.12507555166E+03 0.  0.
          5    1    3    3  502    0 -0.79669158970E+01 -0.39317053357E+02 -0.63816182235E+02  0.75493575546E+02  0.41800000000E+01 0.  1.
         -5    1    3    3    0  502  0.19877308790E+02 -0.34217002068E+01  0.53787119924E+02  0.57596372340E+02  0.41800000000E+01 0.  1.
        -11    1    1    2    0    0  0.23571642801E+02  0.46482373484E+02  0.78079156976E+02  0.93875386248E+02  0.00000000000E+00 0. -1.
         11    1    1    2    0    0 -0.35482035693E+02 -0.37436199202E+01  0.15142409413E+02  0.38759284177E+02  0.00000000000E+00 0.  1.
</event>
<event>
 7    1  0.3151015E-009  0.8348577E+02  0.7561462E-02  0.1319441E+00
          2   -1    0    0  501    0  0.00000000000E+00  0.00000000000E+00  0.30435778581E+03  0.30435778581E+03  0.00000000000E+00 0. -1.
         -2   -1    0    0    0  501 -0.00000000000E+00 -0.00000000000E+00 -0.59735290768E+02  0.59735290768E+02  0.00000000000E+00 0.  1.
         25    2    1    2    0    0 -0.41641809718E+02  0.24168556007E+02  0.49711555760E+02  0.14295652052E+03  0.12508864284E+03 0.  0.
          5    1    3    3  502    0  0.15477228079E+02 -0.32020035516E+02 -0.16026839193E+02  0.39232119978E+02  0.41800000000E+01 0.  1.
         -5    1    3    3    0  502 -0.57119037798E+02  0.56188591523E+02  0.65738394953E+02  0.10372440054E+03  0.41800000000E+01 0.  1.
        -11    1    1    2    0    0  0.13998844281E+02  0.31650462194E+00 -0.71546478659E+01  0.15724401498E+02  0.00000000000E+00 0.  1.
         11    1    1    2    0    0  0.27642965437E+02 -0.24485060629E+02  0.20206558714E+03  0.20541215456E+03  0.00000000000E+00 0. -1.
</event>
<event>
 6    1  0.3151015E-009  0.8958726E+02  0.7561462E-02  0.1303854E+00
          2   -1    0    0  501    0  0.00000000000E+00  0.00000000000E+00  0.24447117204E+03  0.24447117204E+03  0.00000000000E+00 0. -1.
         -2   -1    0    0    0  501 -0.00000000000E+00 -0.00000000000E+00 -0.65874149248E+02  0.65874149248E+02  0.00000000000E+00 0.  1.
          5    1    1    2  502    0 -0.19489713053E+02  0.20693946242E+01 -0.28219589573E+02  0.34611399057E+02  0.41800000000E+01 0.  1.
         -5    1    1    2    0  502  0.72313273164E+02 -0.25787985814E+02  0.83885275145E+02  0.11379121879E+03  0.41800000000E+01 0.  1.
        -11    1    1    2    0    0  0.30688262796E+00  0.28866040405E+02  0.10522075777E+01  0.28886841405E+02  0.00000000000E+00 0.  1.
         11    1    1    2    0    0 -0.53130442739E+02 -0.51474492149E+01  0.12187912964E+03  0.13305586203E+03  0.00000000000E+00 0. -1.
</event>
<event>
 7    1  0.3151015E-009  0.1235186E+03  0.7561462E-02  0.1237403E+00
          1   -1    0    0  501    0  0.00000000000E+00  0.00000000000E+00  0.13321501029E+04  0.13321501029E+04  0.00000000000E+00 0. -1.
         -1   -1    0    0    0  501 -0.00000000000E+00 -0.00000000000E+00 -0.12930976563E+02  0.12930976563E+02  0.00000000000E+00 0.  1.
         25    2    1    2    0    0 -0.96629357426E+01  0.65032338222E+02  0.91639748824E+03  0.92722919192E+03  0.12508813117E+03 0.  0.
          5    1    3    3  502    0  0.26815255475E+02 -0.27436037170E+02  0.35420515722E+03  0.35630122069E+03  0.41800000000E+01 0. -1.
         -5    1    3    3    0  502 -0.36478191218E+02  0.92468375391E+02  0.56219233102E+03  0.57092797124E+03  0.41800000000E+01 0. -1.
        -11    1    1    2    0    0 -0.33771840467E+02 -0.54736147356E+02  0.27629038066E+03  0.28367755900E+03  0.00000000000E+00 0. -1.
         11    1    1    2    0    0  0.43434776210E+02 -0.10296190866E+02  0.12653125747E+03  0.13417432857E+03  0.00000000000E+00 0.  1.
</event>
<event>
 7    1  0.3310195E-009  0.1209805E+03  0.7561462E-02  0.1241488E+00
          1   -1    0    0  501    0  0.00000000000E+00  0.00000000000E+00  0.29134625431E+03  0.29134625431E+03  0.00000000000E+00 0. -1.
         -1   -1    0    0    0  501 -0.00000000000E+00 -0.00000000000E+00 -0.79422742356E+02  0.79422742356E+02  0.00000000000E+00 0.  1.
         25    2    1    2    0    0 -0.68453506400E+02  0.80062700994E+02  0.13145407454E+03  0.20981679758E+03  0.12508795387E+03 0.  0.
          5    1    3    3  502    0 -0.17652044194E+02  0.57129748722E+02 -0.71513092700E+01  0.60365689572E+02  0.41800000000E+01 0.  1.
         -5    1    3    3    0  502 -0.50801462206E+02  0.22932952272E+02  0.13860538381E+03  0.14945110801E+03  0.41800000000E+01 0.  1.
        -11    1    1    2    0    0  0.70998367956E+02 -0.31797309202E+02  0.81420313277E+02  0.11261041044E+03  0.00000000000E+00 0. -1.
         11    1    1    2    0    0 -0.25448615567E+01 -0.48265391793E+02 -0.95087586198E+00  0.48341788653E+02  0.00000000000E+00 0.  1.
</event>
<event>
 7    1  0.3347283E-009  0.1100276E+03  0.7561462E-02  0.1260519E+00
          2   -1    0    0  501    0  0.00000000000E+00  0.00000000000E+00  0.15580909548E+03  0.15580909548E+03  0.00000000000E+00 0. -1.
         -2   -1    0    0    0  501 -0.00000000000E+00 -0.00000000000E+00 -0.94103276157E+02  0.94103276157E+02  0.00000000000E+00 0.  1.
         25    2    1    2    0    0 -0.28300669284E+01 -0.27548871859E+02 -0.12316165886E+02  0.12870800484E+03  0.12508842052E+03 0.  0.
          5    1    3    3  502    0 -0.51287237850E+02 -0.52408023447E+02 -0.53098865663E+01  0.73638637842E+02  0.41800000000E+01 0.  1.
         -5    1    3    3    0  502  0.48457170922E+02  0.24859151588E+02 -0.70062793199E+01  0.55069366996E+02  0.41800000000E+01 0.  1.
        -11    1    1    2    0    0 -0.24895015924E+02  0.50298576680E+02  0.27598189596E+02  0.62540936216E+02  0.00000000000E+00 0.  1.
         11    1    1    2    0    0  0.27725082852E+02 -0.22749704821E+02  0.46423795614E+02  0.58663430583E+02  0.00000000000E+00 0. -1.
</event>
<event>
 7    1  0.3151015E-009  0.2594980E+03  0.7561462E-02  0.1107445E+00
          1   -1    0    0  501    0  0.00000000000E+00  0.00000000000E+00  0.88752999861E+03  0.88752999861E+03  0.00000000000E+00 0. -1.
         -1   -1    0    0    0  501 -0.00000000000E+00 -0.00000000000E+00 -0.87458891948E+02  0.87458891948E+02  0.00000000000E+00 0.  1.
         25    2    1    2    0    0 -0.14950389583E+03 -0.20587528431E+03  0.35716688345E+03  0.45601807956E+03  0.12509300018E+03 0.  0.
          5    1    3    3  502    0 -0.79286446813E+02 -0.13987563043E+03  0.12211062940E+03  0.20194061218E+03  0.41800000000E+01 0.  1.
         -5    1    3    3    0  502 -0.70217449013E+02 -0.65999653875E+02  0.23505625405E+03  0.25407746737E+03  0.41800000000E+01 0.  1.
        -11    1    1    2    0    0  0.97114435460E+02  0.17697241428E+03  0.27810853826E+03  0.34364925148E+03  0.00000000000E+00 0.  1.
         11    1    1    2    0    0  0.52389460365E+02  0.28902870032E+02  0.16479568496E+03  0.17532155952E+03  0.00000000000E+00 0. -1.
</event>
<event>
 7    1  0.3151015E-009  0.2249154E+03  0.7561462E-02  0.1130271E+00
          1   -1    0    0  501    0  0.00000000000E+00  0.00000000000E+00  0.21746634131E+03  0.21746634131E+03  0.00000000000E+00 0. -1.
         -1   -1    0    0    0  501 -0.00000000000E+00 -0.00000000000E+00 -0.24570165100E+03  0.24570165100E+03  0.00000000000E+00 0.  1.
         25    2    1    2    0    0 -0.18193203291E+03 -0.91576612599E+02 -0.54787076815E+01  0.23908571529E+03  0.12508566042E+03 0.  0.
          5    1    3    3  502    0 -0.13124019992E+03 -0.11827486058E+03  0.16698534806E+02  0.17750843976E+03  0.41800000000E+01 0. -1.
         -5    1    3    3    0  502 -0.50691832990E+02  0.26698247985E+02 -0.22177242487E+02  0.61577275530E+02  0.41800000000E+01 0. -1.
        -11    1    1    2    0    0  0.11676756304E+02  0.33980715875E+02  0.17392408297E+02  0.39919062558E+02  0.00000000000E+00 0. -1.
         11    1    1    2    0    0  0.17025527661E+03  0.57595896724E+02 -0.40149010310E+02  0.18416321446E+03  0.00000000000E+00 0.  1.
</event>
<event>
 7    1  0.3151015E-009  0.1152159E+03  0.7561462E-02  0.1251205E+00
         -1   -1    0    0    0  501 -0.00000000000E+00  0.00000000000E+00  0.20056081919E+03  0.20056081919E+03  0.00000000000E+00 0.  1.
          1   -1    0    0  501    0  0.00000000000E+00 -0.00000000000E+00 -0.92163661744E+02  0.92163661744E+02  0.00000000000E+00 0. -1.
         25    2    1    2    0    0  0.41052787506E+01 -0.64995199026E+02  0.11186510733E+03  0.18001345069E+03  0.12509920456E+03 0.  0.
          5    1    3    3  502    0 -0.40056574862E+02 -0.76279673460E+02  0.40650099252E+02  0.95357331874E+02  0.41800000000E+01 0. -1.
         -5    1    3    3    0  502  0.44161853613E+02  0.11284474434E+02  0.71215008075E+02  0.84656118815E+02  0.41800000000E+01 0. -1.
        -11    1    1    2    0    0  0.26132740066E+02  0.62874038435E+02  0.23609659160E+02  0.72065808940E+02  0.00000000000E+00 0.  1.
         11    1    1    2    0    0 -0.30238018817E+02  0.21211605912E+01 -0.27077609037E+02  0.40645221310E+02  0.00000000000E+00 0. -1.
</event>
<event>
 7    1  0.3151015E-009  0.1530730E+03  0.7561462E-02  0.1196747E+00
          2   -1    0    0  501    0  0.00000000000E+00  0.00000000000E+00  0.11244017058E+04  0.11244017058E+04  0.00000000000E+00 0. -1.
         -2   -1    0    0    0  501 -0.00000000000E+00 -0.00000000000E+00 -0.32557017684E+02  0.32557017684E+02  0.00000000000E+00 0.  1.
         25    2    1    2    0    0  0.95851368187E+01 -0.11694743184E+03  0.88582909207E+03  0.90228071556E+03  0.12509489460E+03 0.  0.
          5    1    3    3  502    0  0.51347960880E+02 -0.11878648396E+03  0.66200315992E+03  0.67454614223E+03  0.41800000000E+01 0.  1.
         -5    1    3    3    0  502 -0.41762824062E+02  0.18390521220E+01  0.22382593215E+03  0.22773457333E+03  0.41800000000E+01 0.  1.
        -11    1    1    2    0    0  0.12937564844E+02 -0.24385231777E+01 -0.24520705223E+01  0.13391774686E+02  0.00000000000E+00 0.  1.
         11    1    1    2    0    0 -0.22522701663E+02  0.11938595501E+03  0.20846766657E+03  0.24128623324E+03  0.00000000000E+00 0. -1.
</event>
<event>
 7    1  0.3151015E-009  0.2224771E+03  0.7561462E-02  0.1132050E+00
         -2   -1    0    0    0  501 -0.00000000000E+00  0.00000000000E+00  0.20371390173E+03  0.20371390173E+03  0.00000000000E+00 0.  1.
          2   -1    0    0  501    0  0.00000000000E+00 -0.00000000000E+00 -0.38844471564E+03  0.38844471564E+03  0.00000000000E+00 0. -1.
         25    2    1    2    0    0  0.19801338371E+03  0.23858278408E+02  0.79551250688E+02  0.24850699842E+03  0.12509520055E+03 0.  0.
          5    1    3    3  502    0  0.21024626653E+03  0.27073229448E+02  0.52611095070E+02  0.21845331782E+03  0.41800000000E+01 0. -1.
         -5    1    3    3    0  502 -0.12232882825E+02 -0.32149510398E+01  0.26940155618E+02  0.30053680592E+02  0.41800000000E+01 0. -1.
        -11    1    1    2    0    0 -0.13742621425E+03 -0.59014246825E+02 -0.17646428347E+03  0.23131858773E+03  0.00000000000E+00 0.  1.
         11    1    1    2    0    0 -0.60587169454E+02  0.35155968417E+02 -0.87817781140E+02  0.11233303122E+03  0.00000000000E+00 0. -1.
</event>
<event>
 6    1  0.3151015E-009  0.1176032E+03  0.7561462E-02  0.1247104E+00
          1   -1    0    0  501    0  0.00000000000E+00  0.00000000000E+00  0.27429004990E+03  0.27429004990E+03  0.00000000000E+00 0. -1.
         -1   -1    0    0    0  501 -0.00000000000E+00 -0.00000000000E+00 -0.60356441270E+02  0.60356441270E+02  0.00000000000E+00 0.  1.
          5    1    1    2  502    0 -0.64049346735E+02 -0.68882374041E+02  0.24586108892E+02  0.97309040798E+02  0.41800000000E+01 0. -1.
         -5    1    1    2    0  502  0.31981769364E+02  0.15265838701E+02  0.49554556093E+02  0.61065586319E+02  0.41800000000E+01 0. -1.
        -11    1    1    2    0    0  0.33567137634E+01 -0.23159584895E+02  0.18272030073E+02  0.29690082229E+02  0.00000000000E+00 0. -1.
         11    1    1    2    0    0  0.28710863607E+02  0.76776120235E+02  0.12152091357E+03  0.14658178183E+03  0.00000000000E+00 0.  1.
</event>
<event>
 7    1  0.3151015E-009  0.1238216E+03  0.7561462E-02  0.1236922E+00
         -2   -1    0    0    0  501 -0.00000000000E+00  0.00000000000E+00  0.72512927133E+03  0.72512927133E+03  0.00000000000E+00 0.  1.
          2   -1    0    0  501    0  0.00000000000E+00 -0.00000000000E+00 -0.31744328233E+02  0.31744328233E+02  0.00000000000E+00 0. -1.
         25    2    1    2    0    0  0.91217426107E+02 -0.50957457339E+02  0.41209883802E+03  0.44315938667E+03  0.12509000124E+03 0.  0.
          5    1    3    3  502    0  0.10693304286E+03 -0.60721137413E+02  0.40437360758E+03  0.42267862389E+03  0.41800000000E+01 0. -1.
         -5    1    3    3    0  502 -0.15715616758E+02  0.97636800743E+01  0.77252304386E+01  0.20480762779E+02  0.41800000000E+01 0. -1.
        -11    1    1    2    0    0 -0.26434447006E+02  0.23137240225E+02  0.21190565771E+03  0.21479785763E+03  0.00000000000E+00 0.  1.
         11    1    1    2    0    0 -0.64782979101E+02  0.27820217113E+02  0.69380447367E+02  0.98916355261E+02  0.00000000000E+00 0. -1.
</event>
<event>
 7    1  0.3151015E-009  0.2034380E+03  0.7561462E-02  0.1146870E+00
         -1   -1    0    0    0  501 -0.00000000000E+00  0.00000000000E+00  0.84571151972E+02  0.84571151972E+02  0.00000000000E+00 0.  1.
          1   -1    0    0  501    0  0.00000000000E+00 -0.00000000000E+00 -0.59393105424E+03  0.59393105424E+03  0.00000000000E+00 0. -1.
         25    2    1    2    0    0  0.16284874431E+03  0.61969705451E+02 -0.12945042253E+03  0.25052906653E+03  0.12508974125E+03 0.  0.
          5    1    3    3  502    0  0.14985017878E+03  0.94980522823E+02 -0.96881387800E+02  0.20218766406E+03  0.41800000000E+01 0.  1.
         -5    1    3    3    0  502  0.12998565525E+02 -0.33010817372E+02 -0.32569034733E+02  0.48341402470E+02  0.41800000000E+01 0.  1.
        -11    1    1    2    0    0 -0.17312424501E+03 -0.56943007324E+02 -0.33216489590E+03  0.37887732627E+03  0.00000000000E+00 0.  1.
         11    1    1    2    0    0  0.10275500699E+02 -0.50266981279E+01 -0.47744583834E+02  0.49095813407E+02  0.00000000000E+00 0. -1.
</event>
<event>
 7    1  0.3151015E-009  0.1094429E+03  0.7561462E-02  0.1261605E+00
         -2   -1    0    0    0  501 -0.00000000000E+00  0.00000000000E+00  0.14409230885E+03  0.14409230885E+03  0.00000000000E+00 0.  1.
          2   -1    0    0  501    0  0.00000000000E+00 -0.00000000000E+00 -0.13352518870E+03  0.13352518870E+03  0.00000000000E+00 0. -1.
         25    2    1    2    0    0  0.63904834960E+02 -0.39336675961E+02 -0.38353845070E+02  0.15083028779E+03  0.12509019257E+03 0.  0.
          5    1    3    3  502    0  0.20958081678E+02  0.44551865297E+02 -0.11561608665E+01  0.49425893993E+02  0.41800000000E+01 0.  1.
         -5    1    3    3    0  502  0.42946753282E+02 -0.83888541258E+02 -0.37197684203E+02  0.10140439380E+03  0.41800000000E+01 0.  1.
        -11    1    1    2    0    0 -0.36402852526E+02  0.24611097644E+02  0.74467610328E+02  0.86465593083E+02  0.00000000000E+00 0.  1.
         11    1    1    2    0    0 -0.27501982434E+02  0.14725578317E+02 -0.25546645116E+02  0.40321616674E+02  0.00000000000E+00 0. -1.
</event>
<event>
 7    1  0.3151015E-009  0.1105590E+03  0.7561462E-02  0.1259538E+00
          1   -1    0    0  501    0  0.00000000000E+00  0.00000000000E+00  0.15376300931E+03  0.15376300931E+03  0.00000000000E+00 0. -1.
         -1   -1    0    0    0  501 -0.00000000000E+00 -0.00000000000E+00 -0.10231004308E+03  0.10231004308E+03  0.00000000000E+00 0.  1.
         25    2    1    2    0    0 -0.38826895136E+02  0.52087758796E+02  0.19957754507E+02  0.14236277308E+03  0.12509270479E+03 0.  0.
          5    1    3    3  502    0 -0.55422039002E+02  0.86323882164E+02  0.13678067251E+02  0.10357594780E+03  0.41800000000E+01 0. -1.
         -5    1    3    3    0  502  0.16595143866E+02 -0.34236123368E+02  0.62796872553E+01  0.38786825279E+02  0.41800000000E+01 0. -1.
        -11    1    1    2    0    0 -0.10128537184E+02 -0.17545441735E+02  0.47546316382E+02  0.51682511478E+02  0.00000000000E+00 0. -1.
         11    1    1    2    0    0  0.48955432320E+02 -0.34542317061E+02 -0.16051104654E+02  0.62027767831E+02  0.00000000000E+00 0.  1.
</event>
<event>
 7    1  0.3151015E-009  0.7923014E+02  0.7561462E-02  0.1331250E+00
          2   -1    0    0  501    0  0.00000000000E+00  0.00000000000E+00  0.10268209189E+04  0.10268209189E+04  0.00000000000E+00 0. -1.
         -2   -1    0    0    0  501 -0.00000000000E+00 -0.00000000000E+00 -0.13015011371E+02  0.13015011371E+02  0.00000000000E+00 0.  1.
         25    2    1    2    0    0 -0.78865868125E+00  0.18889001638E+02  0.61327796746E+03  0.62619087526E+03  0.12509088903E+03 0.  0.
          5    1    3    3  502    0  0.29297486994E+02  0.79207606708E+01  0.33050604720E+02  0.45065464229E+02  0.41800000000E+01 0.  1.
         -5    1    3    3    0  502 -0.30086145676E+02  0.10968240968E+02  0.58022736274E+03  0.58112541103E+03  0.41800000000E+01 0.  1.
        -11    1    1    2    0    0 -0.39204750974E+02 -0.34863434031E+02  0.29565901683E+03  0.30027774771E+03  0.00000000000E+00 0. -1.
         11    1    1    2    0    0  0.39993409656E+02  0.15974432393E+02  0.10486892324E+03  0.11336730731E+03  0.00000000000E+00 0.  1.
</event>
<event>
 7    1  0.3151015E-009  0.1729261E+03  0.7561462E-02  0.1174830E+00
         -1   -1    0    0    0  501 -0.00000000000E+00  0.00000000000E+00  0.43343386346E+02  0.43343386346E+02  0.00000000000E+00 0.  1.
          1   -1    0    0  501    0  0.00000000000E+00 -0.00000000000E+00 -0.97392144251E+03  0.97392144251E+03  0.00000000000E+00 0. -1.
         25    2    1    2    0    0 -0.13894018196E+03  0.98331013424E+02 -0.57469275566E+03  0.61228471032E+03  0.12508973070E+03 0.  0.
          5    1    3    3  502    0 -0.21928200562E+02  0.89124058960E+01 -0.59385866373E+01  0.24759163354E+02  0.41800000000E+01 0. -1.
         -5    1    3    3    0  502 -0.11701198140E+03  0.89418607528E+02 -0.56875416902E+03  0.58752554697E+03  0.41800000000E+01 0. -1.
        -11    1    1    2    0    0  0.10867955906E+03 -0.55453915390E+02 -0.15448868478E+03  0.19685816471E+03  0.00000000000E+00 0.  1.
         11    1    1    2    0    0  0.30260622903E+02 -0.42877098034E+02 -0.20139661572E+03  0.20812195381E+03  0.00000000000E+00 0. -1.
</event>
<event>
 7    1  0.3151015E-009  0.1309336E+03  0.7561462E-02  0.1226077E+00
         -1   -1    0    0    0  501 -0.00000000000E+00  0.00000000000E+00  0.16949133802E+02  0.16949133802E+02  0.00000000000E+00 0.  1.
          1   -1    0    0  501    0  0.00000000000E+00 -0.00000000000E+00 -0.15329196086E+04  0.15329196086E+04  0.00000000000E+00 0. -1.
         25    2    1    2    0    0 -0.53549593751E+02  0.79546199685E+02 -0.11213699541E+04  0.11323928804E+04  0.12509158506E+03 0.  0.
          5    1    3    3  502    0  0.20644872205E+02  0.41036130648E+02 -0.13878275681E+03  0.14624739572E+03  0.41800000000E+01 0. -1.
         -5    1    3    3    0  502 -0.74194465956E+02  0.38510069037E+02 -0.98258719732E+03  0.98614548467E+03  0.41800000000E+01 0. -1.
        -11    1    1    2    0    0  0.54683865641E+02 -0.22413169065E+01 -0.21664993430E+03  0.22345590772E+03  0.00000000000E+00 0.  1.
         11    1    1    2    0    0 -0.11342718901E+01 -0.77304882778E+02 -0.17795058632E+03  0.19401995425E+03  0.00000000000E+00 0. -1.
</event>
<event>
 7    1  0.3151015E-009  0.9758127E+02  0.7561462E-02  0.1285466E+00
         -1   -1    0    0    0  501 -0.00000000000E+00  0.00000000000E+00  0.52563716715E+03  0.52563716715E+03  0.00000000000E+00 0.  1.
          1   -1    0    0  501    0  0.00000000000E+00 -0.00000000000E+00 -0.27350553290E+02  0.27350553290E+02  0.00000000000E+00 0. -1.
         25    2    1    2    0    0  0.44180326816E+02 -0.20855083597E+02  0.25263293887E+03  0.28610838618E+03  0.12509105105E+03 0.  0.
          5    1    3    3  502    0  0.48419186667E+02 -0.49785943616E+02  0.24624968491E+03  0.25588950259E+03  0.41800000000E+01 0.  1.
         -5    1    3    3    0  502 -0.42388598511E+01  0.28930860020E+02  0.63832539597E+01  0.30218883590E+02  0.41800000000E+01 0.  1.
        -11    1    1    2    0    0 -0.33996652788E+02 -0.29295450638E+02  0.16791784948E+03  0.17381139204E+03  0.00000000000E+00 0.  1.
         11    1    1    2    0    0 -0.10183674028E+02  0.50150534235E+02  0.77735825510E+02  0.93067942217E+02  0.00000000000E+00 0. -1.
</event>
<event>
 7    1  0.3151015E-009  0.8845842E+02  0.7561462E-02  0.1306628E+00
         -1   -1    0    0    0  501 -0.00000000000E+00  0.00000000000E+00  0.59632112084E+02  0.59632112084E+02  0.00000000000E+00 0.  1.
          1   -1    0    0  501    0  0.00000000000E+00 -0.00000000000E+00 -0.34532668518E+03  0.34532668518E+03  0.00000000000E+00 0. -1.
         25    2    1    2    0    0 -0.31280722101E+02  0.36559158295E+00 -0.27461979464E+03  0.30338370808E+03  0.12508807094E+03 0.  0.
          5    1    3    3  502    0 -0.44090247734E+02  0.30621983321E+02 -0.41652898391E+02  0.68074166555E+02  0.41800000000E+01 0.  1.
         -5    1    3    3    0  502  0.12809525633E+02 -0.30256391738E+02 -0.23296689625E+03  0.23530954153E+03  0.41800000000E+01 0.  1.
        -11    1    1    2    0    0  0.55485215761E+02  0.19320556414E+02  0.15310044442E+02  0.60714829564E+02  0.00000000000E+00 0.  1.
         11    1    1    2    0    0 -0.24204493660E+02 -0.19686147997E+02 -0.26384822896E+02  0.40860259612E+02  0.00000000000E+00 0. -1.
</event>
<event>
 7    1  0.3151015E-009  0.1257860E+03  0.7561462E-02  0.1233846E+00
          2   -1    0    0  501    0  0.00000000000E+00  0.00000000000E+00  0.89101106695E+03  0.89101106695E+03  0.00000000000E+00 0. -1.
         -2   -1    0    0    0  501 -0.00000000000E+00 -0.00000000000E+00 -0.26556306715E+02  0.26556306715E+02  0.00000000000E+00 0.  1.
         25    2    1    2    0    0  0.70325538195E+02 -0.76880139385E+02  0.37995049730E+03  0.41335931225E+03  0.12508918208E+03 0.  0.
          5    1    3    3  502    0  0.10039219638E+02 -0.83187361547E+02  0.12010444542E+03  0.14650417490E+03  0.41800000000E+01 0. -1.
         -5    1    3    3    0  502  0.60286318557E+02  0.63072221622E+01  0.25984605187E+03  0.26685513735E+03  0.41800000000E+01 0. -1.
        -11    1    1    2    0    0 -0.45655320899E+02  0.65267689260E+02  0.46210908145E+03  0.46892332289E+03  0.00000000000E+00 0. -1.
         11    1    1    2    0    0 -0.24670217297E+02  0.11612450125E+02  0.22395181494E+02  0.35284738536E+02  0.00000000000E+00 0.  1.
</event>
<event>
 7    1  0.3151015E-009  0.3738702E+03  0.7561462E-02  0.1053223E+00
         -2   -1    0    0    0  501 -0.00000000000E+00  0.00000000000E+00  0.20940932133E+03  0.20940932133E+03  0.00000000000E+00 0.  1.
          2   -1    0    0  501    0  0.00000000000E+00 -0.00000000000E+00 -0.72531737013E+03  0.72531737013E+03  0.00000000000E+00 0. -1.
         25    2    1    2    0    0 -0.96500854731E+01 -0.36894380187E+03 -0.18768848320E+03  0.43253536228E+03  0.12508884767E+03 0.  0.
          5    1    3    3  502    0 -0.77899588482E+01 -0.37266293245E+03 -0.16246752227E+03  0.40663437247E+03  0.41800000000E+01 0. -1.
         -5    1    3    3    0  502 -0.18601266248E+01  0.37191305762E+01 -0.25220960928E+02  0.25900989816E+02  0.41800000000E+01 0. -1.
        -11    1    1    2    0    0  0.29898536934E+01  0.79613234247E+02 -0.26132872375E+02  0.83845890244E+02  0.00000000000E+00 0. -1.
         11    1    1    2    0    0  0.66602317796E+01  0.28933056763E+03 -0.30208669323E+03  0.41834543894E+03  0.00000000000E+00 0.  1.
</event>
<event>
 7    1  0.3151015E-009  0.8087287E+02  0.7561462E-02  0.1326592E+00
         -4   -1    0    0    0  501 -0.00000000000E+00  0.00000000000E+00  0.10702083649E+03  0.10702083649E+03  0.00000000000E+00 0.  1.
          4   -1    0    0  501    0  0.00000000000E+00 -0.00000000000E+00 -0.11834087669E+03  0.11834087669E+03  0.00000000000E+00 0. -1.
         25    2    1    2    0    0 -0.74450718479E+00  0.18500675247E+02  0.16756446226E+02  0.12755604644E+03  0.12508771809E+03 0.  0.
          5    1    3    3  502    0 -0.55777793786E+02  0.15789816938E+01 -0.19650886898E+02  0.59306704669E+02  0.41800000000E+01 0.  1.
         -5    1    3    3    0  502  0.55033286601E+02  0.16921693553E+02  0.36407333124E+02  0.68249341770E+02  0.41800000000E+01 0.  1.
        -11    1    1    2    0    0 -0.20875893934E+02 -0.15989769247E+02  0.27542352397E+02  0.38079611916E+02  0.00000000000E+00 0.  1.
         11    1    1    2    0    0  0.21620401119E+02 -0.25109059998E+01 -0.55618838825E+02  0.59726054831E+02  0.00000000000E+00 0. -1.
</event>
<event>
 7    1  0.3151015E-009  0.1261814E+03  0.7561462E-02  0.1233234E+00
          2   -1    0    0  501    0  0.00000000000E+00  0.00000000000E+00  0.34598482934E+03  0.34598482934E+03  0.00000000000E+00 0. -1.
         -2   -1    0    0    0  501 -0.00000000000E+00 -0.00000000000E+00 -0.58717626782E+02  0.58717626782E+02  0.00000000000E+00 0.  1.
         25    2    1    2    0    0  0.30871280681E+02 -0.53883620692E+02  0.64212832872E+02  0.15371118476E+03  0.12508940749E+03 0.  0.
          5    1    3    3  502    0 -0.90894594267E+01  0.37458113515E+02  0.26837061754E+02  0.47153248290E+02  0.41800000000E+01 0. -1.
         -5    1    3    3    0  502  0.39960740108E+02 -0.91341734207E+02  0.37375771118E+02  0.10655793647E+03  0.41800000000E+01 0. -1.
        -11    1    1    2    0    0 -0.55902064357E+02  0.65581702434E+02  0.15158997220E+03  0.17437178719E+03  0.00000000000E+00 0.  1.
         11    1    1    2    0    0  0.25030783676E+02 -0.11698081742E+02  0.71464397479E+02  0.76619484173E+02  0.00000000000E+00 0. -1.
</event>
<event>
 6    1  0.3151015E-009  0.1152442E+03  0.7561462E-02  0.1251155E+00
         -3   -1    0    0    0  501 -0.00000000000E+00  0.00000000000E+00  0.29969634012E+02  0.29969634012E+02  0.00000000000E+00 0.  1.
          3   -1    0    0  501    0  0.00000000000E+00 -0.00000000000E+00 -0.54907381122E+03  0.54907381122E+03  0.00000000000E+00 0. -1.
          5    1    1    2  502    0 -0.69018031777E+02 -0.33515470420E+02 -0.19972365827E+03  0.21399483064E+03  0.41800000000E+01 0. -1.
         -5    1    1    2    0  502  0.44479530724E+02 -0.26450560146E+02 -0.46256797665E+02  0.69535778673E+02  0.41800000000E+01 0. -1.
        -11    1    1    2    0    0  0.48651320429E+02  0.15349496593E+02 -0.20080215092E+03  0.20718122946E+03  0.00000000000E+00 0. -1.
         11    1    1    2    0    0 -0.24112819376E+02  0.44616533973E+02 -0.72321570356E+02  0.88331606466E+02  0.00000000000E+00 0.  1.
</event>
<event>
 7    1  0.3151015E-009  0.9358479E+02  0.7561462E-02  0.1294396E+00
         -2   -1    0    0    0  501 -0.00000000000E+00  0.00000000000E+00  0.10762302500E+03  0.10762302500E+03  0.00000000000E+00 0.  1.
          2   -1    0    0  501    0  0.00000000000E+00 -0.00000000000E+00 -0.18876421338E+03  0.18876421338E+03  0.00000000000E+00 0. -1.
         25    2    1    2    0    0  0.26568912331E+02  0.20844251872E+02 -0.13457898403E+03  0.18681469274E+03  0.12509131282E+03 0.  0.
          5    1    3    3  502    0 -0.13252015026E+02 -0.29212541368E+02  0.54561271736E+01  0.32805947619E+02  0.41800000000E+01 0.  1.
         -5    1    3    3    0  502  0.39820927357E+02  0.50056793240E+02 -0.14003511120E+03  0.15400874512E+03  0.41800000000E+01 0.  1.
        -11    1    1    2    0    0  0.30315780840E+02 -0.14108793760E+02  0.37229774592E+02  0.50041590157E+02  0.00000000000E+00 0.  1.
         11    1    1    2    0    0 -0.56884693171E+02 -0.67354581125E+01  0.16208021059E+02  0.59530955475E+02  0.00000000000E+00 0. -1.
</event>
<event>
 7    1  0.3151015E-009  0.1911139E+03  0.7561462E-02  0.1157460E+00
          1   -1    0    0  501    0  0.00000000000E+00  0.00000000000E+00  0.95662929960E+02  0.95662929960E+02  0.00000000000E+00 0. -1.
         -1   -1    0    0    0  501 -0.00000000000E+00 -0.00000000000E+00 -0.41753523707E+03  0.41753523707E+03  0.00000000000E+00 0.  1.
         25    2    1    2    0    0  0.12979744685E+03 -0.10314774439E+03 -0.19972452374E+03  0.28814011290E+03  0.12509198573E+03 0.  0.
          5    1    3    3  502    0  0.49140886104E+01 -0.74405910911E+02 -0.44999118206E+02  0.87193926879E+02  0.41800000000E+01 0.  1.
         -5    1    3    3    0  502  0.12488335824E+03 -0.28741833484E+02 -0.15472540554E+03  0.20094618602E+03  0.41800000000E+01 0.  1.
        -11    1    1    2    0    0 -0.11437629552E+02  0.46912412712E+02 -0.37152805034E+01  0.48429300485E+02  0.00000000000E+00 0. -1.
         11    1    1    2    0    0 -0.11835981730E+03  0.56235331683E+02 -0.11843250287E+03  0.17662875365E+03  0.00000000000E+00 0.  1.
</event>
<event>
 7    1  0.3151015E-009  0.1137194E+03  0.7561462E-02  0.1253833E+00
          1   -1    0    0  501    0  0.00000000000E+00  0.00000000000E+00  0.13753906775E+03  0.13753906775E+03  0.00000000000E+00 0. -1.
         -1   -1    0    0    0  501 -0.00000000000E+00 -0.00000000000E+00 -0.18411078019E+03  0.18411078019E+03  0.00000000000E+00 0.  1.
         25    2    1    2    0    0 -0.10510848191E+03 -0.13765290384E+02  0.21826720248E+02  0.16541463822E+03  0.12509324775E+03 0.  0.
          5    1    3    3  502    0 -0.67579290183E+01 -0.12260764930E+02  0.58544130118E+02  0.60339734276E+02  0.41800000000E+01 0. -1.
         -5    1    3    3    0  502 -0.98350552893E+02 -0.15045254541E+01 -0.36717409870E+02  0.10507490394E+03  0.41800000000E+01 0. -1.
        -11    1    1    2    0    0  0.61967425089E+02  0.29273172246E+02  0.60539388440E+01  0.68800658144E+02  0.00000000000E+00 0. -1.
         11    1    1    2    0    0  0.43141056823E+02 -0.15507881862E+02 -0.74452371527E+02  0.87434551578E+02  0.00000000000E+00 0.  1.
</event>
<event>
 7    1  0.3151015E-009  0.1091199E+03  0.7561462E-02  0.1262208E+00
          1   -1    0    0  501    0  0.00000000000E+00  0.00000000000E+00  0.79368412824E+03  0.79368412824E+03  0.00000000000E+00 0. -1.
         -1   -1    0    0    0  501 -0.00000000000E+00 -0.00000000000E+00 -0.27805894112E+02  0.27805894112E+02  0.00000000000E+00 0.  1.
         25    2    1    2    0    0 -0.49304459343E+02 -0.43234411324E+02  0.63220678488E+03  0.64779098943E+03  0.12509037975E+03 0.  0.
          5    1    3    3  502    0 -0.60016244488E+02  0.25088185785E+01  0.12880649786E+03  0.14218589967E+03  0.41800000000E+01 0. -1.
         -5    1    3    3    0  502  0.10711785145E+02 -0.45743229902E+02  0.50340028702E+03  0.50560508976E+03  0.41800000000E+01 0. -1.
        -11    1    1    2    0    0 -0.10439703624E+02  0.49683363566E+02  0.64083452130E+02  0.81756423991E+02  0.00000000000E+00 0.  1.
         11    1    1    2    0    0  0.59744162967E+02 -0.64489522422E+01  0.69587997115E+02  0.91942608926E+02  0.00000000000E+00 0. -1.
</event>
<event>
 7    1  0.3151015E-009  0.1481150E+03  0.7561462E-02  0.1202809E+00
         -4   -1    0    0    0  501 -0.00000000000E+00  0.00000000000E+00  0.23189596309E+02  0.23189596309E+02  0.00000000000E+00 0. -1.
          4   -1    0    0  501    0  0.00000000000E+00 -0.00000000000E+00 -0.10707061723E+04  0.10707061723E+04  0.00000000000E+00 0.  1.
         25    2    1    2    0    0  0.10668758472E+03  0.24756331095E+02 -0.44697196108E+03  0.47689234628E+03  0.12508900546E+03 0.  0.
          5    1    3    3  502    0  0.13072564953E+03  0.29567000048E+02 -0.31117936437E+03  0.33884136723E+03  0.41800000000E+01 0. -1.
         -5    1    3    3    0  502 -0.24038064808E+02 -0.48106689524E+01 -0.13579259671E+03  0.13805097905E+03  0.41800000000E+01 0. -1.
        -11    1    1    2    0    0 -0.49381437105E+02  0.30188176436E+02 -0.18151025319E+03  0.19051463025E+03  0.00000000000E+00 0.  1.
         11    1    1    2    0    0 -0.57306147619E+02 -0.54944507531E+02 -0.41903436176E+03  0.42648879212E+03  0.00000000000E+00 0. -1.
</event>
<event>
 7    1  0.3151015E-009  0.1480828E+03  0.7561462E-02  0.1202849E+00
         -1   -1    0    0    0  501 -0.00000000000E+00  0.00000000000E+00  0.28009104841E+02  0.28009104841E+02  0.00000000000E+00 0.  1.
          1   -1    0    0  501    0  0.00000000000E+00 -0.00000000000E+00 -0.98450152864E+03  0.98450152864E+03  0.00000000000E+00 0. -1.
         25    2    1    2    0    0 -0.11538646705E+03  0.24880051829E+02 -0.36955968979E+03  0.40762083093E+03  0.12508926307E+03 0.  0.
          5    1    3    3  502    0 -0.76713768952E+02 -0.41101594159E+02 -0.25785858036E+03  0.27218167325E+03  0.41800000000E+01 0. -1.
         -5    1    3    3    0  502 -0.38672698103E+02  0.65981645988E+02 -0.11170110943E+03  0.13543915768E+03  0.41800000000E+01 0. -1.
        -11    1    1    2    0    0  0.87878024520E+02 -0.44644436635E+02 -0.52617704363E+03  0.53532976207E+03  0.00000000000E+00 0. -1.
         11    1    1    2    0    0  0.27508442535E+02  0.19764384806E+02 -0.60755690382E+02  0.69560040478E+02  0.00000000000E+00 0.  1.
</event>
<event>
 7    1  0.3151015E-009  0.1379319E+03  0.7561462E-02  0.1216139E+00
         -2   -1    0    0    0  501 -0.00000000000E+00  0.00000000000E+00  0.33465926535E+02  0.33465926535E+02  0.00000000000E+00 0. -1.
          2   -1    0    0  501    0  0.00000000000E+00 -0.00000000000E+00 -0.65387554484E+03  0.65387554484E+03  0.00000000000E+00 0.  1.
         25    2    1    2    0    0 -0.79798597401E+02 -0.53597375955E+02 -0.26557629785E+03  0.30889957932E+03  0.12509070816E+03 0.  0.
          5    1    3    3  502    0 -0.82627994286E+02 -0.81409081500E+02 -0.14860937121E+03  0.18856574875E+03  0.41800000000E+01 0. -1.
         -5    1    3    3    0  502  0.28293968846E+01  0.27811705545E+02 -0.11696692664E+03  0.12033383057E+03  0.41800000000E+01 0. -1.
        -11    1    1    2    0    0  0.24946422727E+02  0.69969982321E+02 -0.19543254307E+03  0.20907415269E+03  0.00000000000E+00 0. -1.
         11    1    1    2    0    0  0.54852174674E+02 -0.16372606366E+02 -0.15940077738E+03  0.16936773936E+03  0.00000000000E+00 0.  1.
</event>
<event>
 7    1  0.3151015E-009  0.1346552E+03  0.7561462E-02  0.1220707E+00
          1   -1    0    0  501    0  0.00000000000E+00  0.00000000000E+00  0.56232404876E+02  0.56232404876E+02  0.00000000000E+00 0. -1.
         -1   -1    0    0    0  501 -0.00000000000E+00 -0.00000000000E+00 -0.33771418069E+03  0.33771418069E+03  0.00000000000E+00 0.  1.
         25    2    1    2    0    0  0.63473010359E+02 -0.56530353951E+02 -0.13541903348E+03  0.20300372405E+03  0.12509074061E+03 0.  0.
          5    1    3    3  502    0  0.91581618591E+02 -0.70659082550E+02 -0.12307290292E+03  0.16895061599E+03  0.41800000000E+01 0.  1.
         -5    1    3    3    0  502 -0.28108608232E+02  0.14128728599E+02 -0.12346130557E+02  0.34053108056E+02  0.41800000000E+01 0.  1.
        -11    1    1    2    0    0 -0.15051783494E+02  0.69973855611E+02 -0.98435047576E+02  0.12170601976E+03  0.00000000000E+00 0. -1.
         11    1    1    2    0    0 -0.48421226865E+02 -0.13443501660E+02 -0.47627694758E+02  0.69236841753E+02  0.00000000000E+00 0.  1.
</event>
<event>
 7    1  0.3151015E-009  0.1489747E+03  0.7561462E-02  0.1201739E+00
         -2   -1    0    0    0  501 -0.00000000000E+00  0.00000000000E+00  0.64747996007E+02  0.64747996007E+02  0.00000000000E+00 0.  1.
          2   -1    0    0  501    0  0.00000000000E+00 -0.00000000000E+00 -0.55757228603E+03  0.55757228603E+03  0.00000000000E+00 0. -1.
         25    2    1    2    0    0 -0.93589005816E+02 -0.10473933659E+03 -0.14337757222E+03  0.23650375185E+03  0.12509063027E+03 0.  0.
          5    1    3    3  502    0 -0.65328602262E+02 -0.21462597666E+02 -0.75365051270E+00  0.68894918253E+02  0.41800000000E+01 0.  1.
         -5    1    3    3    0  502 -0.28260403554E+02 -0.83276738924E+02 -0.14262392171E+03  0.16760883359E+03  0.41800000000E+01 0.  1.
        -11    1    1    2    0    0  0.48597006797E+02  0.45006327564E+02 -0.26438870310E+03  0.27255939705E+03  0.00000000000E+00 0. -1.
         11    1    1    2    0    0  0.44991999019E+02  0.59733009027E+02 -0.85058014699E+02  0.11325713314E+03  0.00000000000E+00 0.  1.
</event>
<event>
 7    1  0.3151015E-009  0.4397742E+02  0.7561462E-02  0.1480828E+00
          2   -1    0    0  501    0  0.00000000000E+00  0.00000000000E+00  0.15108360594E+03  0.15108360594E+03  0.00000000000E+00 0. -1.
         -2   -1    0    0    0  501 -0.00000000000E+00 -0.00000000000E+00 -0.79913616201E+02  0.79913616201E+02  0.00000000000E+00 0.  1.
         25    2    1    2    0    0 -0.47910786433E+01 -0.30642794816E+02  0.44111832570E+02  0.13621600362E+03  0.12508801126E+03 0.  0.
          5    1    3    3  502    0 -0.94837590564E+01  0.28311520698E+01 -0.42137441712E+02  0.43485555095E+02  0.41800000000E+01 0.  1.
         -5    1    3    3    0  502  0.46926804131E+01 -0.33473946886E+02  0.86249274282E+02  0.92730448526E+02  0.41800000000E+01 0.  1.
        -11    1    1    2    0    0  0.10952083113E+02 -0.92294764929E+00 -0.28522154746E+02  0.30566538375E+02  0.00000000000E+00 0.  1.
         11    1    1    2    0    0 -0.61610044699E+01  0.31565742466E+02  0.55580311910E+02  0.64214680140E+02  0.00000000000E+00 0. -1.
</event>
<event>
 7    1  0.3151015E-009  0.9127302E+02  0.7561462E-02  0.1299798E+00
          2   -1    0    0  501    0  0.00000000000E+00  0.00000000000E+00  0.12617778993E+03  0.12617778993E+03  0.00000000000E+00 0. -1.
         -2   -1    0    0    0  501 -0.00000000000E+00 -0.00000000000E+00 -0.14373844326E+03  0.14373844326E+03  0.00000000000E+00 0.  1.
         25    2    1    2    0    0 -0.88913857161E+00  0.54269716460E+02  0.49762285090E+02  0.14515377253E+03  0.12508932796E+03 0.  0.
          5    1    3    3  502    0  0.20058921153E+02  0.55721716123E+02  0.85143605278E+02  0.10379872776E+03  0.41800000000E+01 0. -1.
         -5    1    3    3    0  502 -0.20948059724E+02 -0.14519996625E+01 -0.35381320187E+02  0.41355044764E+02  0.41800000000E+01 0. -1.
        -11    1    1    2    0    0 -0.39369939996E+02 -0.75392720653E+01 -0.11834913324E+02  0.41795908555E+02  0.00000000000E+00 0. -1.
         11    1    1    2    0    0  0.40259078568E+02 -0.46730444395E+02 -0.55488025093E+02  0.82966552111E+02  0.00000000000E+00 0.  1.
</event>
<event>
 7    1  0.3151015E-009  0.6538143E+02  0.7561462E-02  0.1376542E+00
         -2   -1    0    0    0  501 -0.00000000000E+00  0.00000000000E+00  0.27304906268E+03  0.27304906268E+03  0.00000000000E+00 0.  1.
          2   -1    0    0  501    0  0.00000000000E+00 -0.00000000000E+00 -0.49876159048E+02  0.49876159048E+02  0.00000000000E+00 0. -1.
         25    2    1    2    0    0  0.10087289039E+02  0.11091743095E+01  0.56881862987E+02  0.13778256794E+03  0.12508199720E+03 0.  0.
          5    1    3    3  502    0 -0.15237256811E+01 -0.22532110902E+02  0.91355235107E+02  0.94198031525E+02  0.41800000000E+01 0.  1.
         -5    1    3    3    0  502  0.11611014720E+02  0.23641285212E+02 -0.34473372120E+02  0.43584536417E+02  0.41800000000E+01 0.  1.
        -11    1    1    2    0    0 -0.14629025513E+02  0.38537872841E+02  0.76989420127E+02  0.87330102726E+02  0.00000000000E+00 0. -1.
         11    1    1    2    0    0  0.45417364737E+01 -0.39647047150E+02  0.89301620514E+02  0.97812551057E+02  0.00000000000E+00 0.  1.
</event>
<event>
 7    1  0.3151015E-009  0.1167889E+03  0.7561462E-02  0.1248490E+00
         -1   -1    0    0    0  501 -0.00000000000E+00  0.00000000000E+00  0.31015107310E+03  0.31015107310E+03  0.00000000000E+00 0.  1.
          1   -1    0    0  501    0  0.00000000000E+00 -0.00000000000E+00 -0.69372213677E+02  0.69372213677E+02  0.00000000000E+00 0. -1.
         25    2    1    2    0    0  0.64053786850E+02  0.31158003873E+02  0.21994481707E+03  0.26286073124E+03  0.12508530151E+03 0.  0.
          5    1    3    3  502    0  0.87671556465E+02 -0.14214634694E+02  0.10934305329E+03  0.14093166200E+03  0.41800000000E+01 0. -1.
         -5    1    3    3    0  502 -0.23617769614E+02  0.45372638568E+02  0.11060176378E+03  0.12192906923E+03  0.41800000000E+01 0. -1.
        -11    1    1    2    0    0 -0.31057970057E+02  0.16659734775E+02  0.42001570955E+02  0.54829519691E+02  0.00000000000E+00 0.  1.
         11    1    1    2    0    0 -0.32995816793E+02 -0.47817738648E+02 -0.21167528603E+02  0.61833035850E+02  0.00000000000E+00 0. -1.
</event>
<event>
 7    1  0.3151015E-009  0.1420169E+03  0.7561462E-02  0.1210641E+00
         -4   -1    0    0    0  501 -0.00000000000E+00  0.00000000000E+00  0.14511264593E+03  0.14511264593E+03  0.00000000000E+00 0. -1.
          4   -1    0    0  501    0  0.00000000000E+00 -0.00000000000E+00 -0.20917423798E+03  0.20917423798E+03  0.00000000000E+00 0.  1.
         25    2    1    2    0    0 -0.30882210060E+02  0.95681083798E+02  0.59688811842E+02  0.17122853569E+03  0.12509147246E+03 0.  0.
          5    1    3    3  502    0  0.35088597560E+02  0.79151134697E+02  0.10768350971E+02  0.87347247153E+02  0.41800000000E+01 0.  1.
         -5    1    3    3    0  502 -0.65970807619E+02  0.16529949101E+02  0.48920460871E+02  0.83881288540E+02  0.41800000000E+01 0.  1.
        -11    1    1    2    0    0 -0.14675079223E+02 -0.79539616577E+02 -0.10167857118E+03  0.12992474896E+03  0.00000000000E+00 0.  1.
         11    1    1    2    0    0  0.45557289282E+02 -0.16141467220E+02 -0.22071832714E+02  0.53133599258E+02  0.00000000000E+00 0. -1.
</event>
<event>
 7    1  0.3151015E-009  0.1711870E+03  0.7561462E-02  0.1176616E+00
         -1   -1    0    0    0  501 -0.00000000000E+00  0.00000000000E+00  0.18052791169E+03  0.18052791169E+03  0.00000000000E+00 0.  1.
          1   -1    0    0  501    0  0.00000000000E+00 -0.00000000000E+00 -0.18130292645E+03  0.18130292645E+03  0.00000000000E+00 0. -1.
         25    2    1    2    0    0 -0.40632213109E+02 -0.13714708135E+03  0.15806995189E+02  0.19067833097E+03  0.12509223054E+03 0.  0.
          5    1    3    3  502    0 -0.80677538498E+02 -0.55196235217E+02  0.17297460923E+02  0.99358764860E+02  0.41800000000E+01 0.  1.
         -5    1    3    3    0  502  0.40045325389E+02 -0.81950846130E+02 -0.14904657336E+01  0.91319566113E+02  0.41800000000E+01 0.  1.
        -11    1    1    2    0    0  0.40637260112E+02  0.43316642970E+02  0.29837094177E+02  0.66467816697E+02  0.00000000000E+00 0.  1.
         11    1    1    2    0    0 -0.50470027173E-02  0.93830438377E+02 -0.46419104124E+02  0.10468469047E+03  0.00000000000E+00 0. -1.
</event>
<event>
 7    1  0.3151015E-009  0.1018561E+03  0.7561462E-02  0.1276441E+00
          1   -1    0    0  501    0  0.00000000000E+00  0.00000000000E+00  0.43969745259E+03  0.43969745259E+03  0.00000000000E+00 0. -1.
         -1   -1    0    0    0  501 -0.00000000000E+00 -0.00000000000E+00 -0.29408842988E+02  0.29408842988E+02  0.00000000000E+00 0.  1.
         25    2    1    2    0    0 -0.16957529316E+02 -0.26506669923E+02  0.26240536977E+03  0.29239396284E+03  0.12508992793E+03 0.  0.
          5    1    3    3  502    0 -0.44451182423E+02 -0.54971420748E+02  0.85268225327E+02  0.11084181236E+03  0.41800000000E+01 0.  1.
         -5    1    3    3    0  502  0.27493653107E+02  0.28464750825E+02  0.17713714444E+03  0.18155215047E+03  0.41800000000E+01 0.  1.
        -11    1    1    2    0    0 -0.65156056272E+01  0.55451302168E+02  0.11115206648E+03  0.12438682370E+03  0.00000000000E+00 0. -1.
         11    1    1    2    0    0  0.23473134943E+02 -0.28944632245E+02  0.36731173358E+02  0.52325509038E+02  0.00000000000E+00 0.  1.
</event>
<event>
 7    1  0.3151015E-009  0.1258818E+03  0.7561462E-02  0.1233698E+00
         -2   -1    0    0    0  501 -0.00000000000E+00  0.00000000000E+00  0.95954764054E+03  0.95954764054E+03  0.00000000000E+00 0.  1.
          2   -1    0    0  501    0  0.00000000000E+00 -0.00000000000E+00 -0.26659990096E+02  0.26659990096E+02  0.00000000000E+00 0. -1.
         25    2    1    2    0    0 -0.38508060348E+02 -0.11231726640E+03  0.50081985458E+03  0.52968514366E+03  0.12509110933E+03 0.  0.
          5    1    3    3  502    0 -0.11783705735E+02 -0.46033975549E+02  0.41585024590E+03  0.41857721157E+03  0.41800000000E+01 0. -1.
         -5    1    3    3    0  502 -0.26724354613E+02 -0.66283290854E+02  0.84969608674E+02  0.11110793209E+03  0.41800000000E+01 0. -1.
        -11    1    1    2    0    0  0.98116456675E+01  0.10123576870E+03  0.39724141994E+03  0.41005572178E+03  0.00000000000E+00 0.  1.
         11    1    1    2    0    0  0.28696414681E+02  0.11081497706E+02  0.34826375934E+02  0.46466765194E+02  0.00000000000E+00 0. -1.
</event>
<event>
 7    1  0.3369008E-009  0.8636180E+02  0.7561462E-02  0.1311909E+00
          2   -1    0    0  501    0  0.00000000000E+00  0.00000000000E+00  0.12566657000E+03  0.12566657000E+03  0.00000000000E+00 0.  1.
         -2   -1    0    0    0  501 -0.00000000000E+00 -0.00000000000E+00 -0.10828064867E+03  0.10828064867E+03  0.00000000000E+00 0. -1.
         25    2    1    2    0    0  0.29258653769E+02 -0.13081892867E+02 -0.18557048870E+02  0.13040462782E+03  0.12503518766E+03 0.  0.
          5    1    3    3  502    0  0.52402356911E+02  0.38012543951E+02 -0.32349869670E+02  0.72491013065E+02  0.41800000000E+01 0. -1.
         -5    1    3    3    0  502 -0.23143703143E+02 -0.51094436818E+02  0.13792820800E+02  0.57913614760E+02  0.41800000000E+01 0. -1.
        -11    1    1    2    0    0 -0.67210956799E+01  0.25154300363E+02 -0.25837384161E+02  0.36680817524E+02  0.00000000000E+00 0. -1.
         11    1    1    2    0    0 -0.22537558089E+02 -0.12072407497E+02  0.61780354354E+02  0.66861773320E+02  0.00000000000E+00 0.  1.
</event>
<event>
 7    1  0.3151015E-009  0.1429439E+03  0.7561462E-02  0.1209422E+00
          1   -1    0    0  501    0  0.00000000000E+00  0.00000000000E+00  0.16841016983E+04  0.16841016983E+04  0.00000000000E+00 0. -1.
         -1   -1    0    0    0  501 -0.00000000000E+00 -0.00000000000E+00 -0.14003158831E+02  0.14003158831E+02  0.00000000000E+00 0.  1.
         25    2    1    2    0    0  0.38944115796E+02 -0.84772633035E+02  0.11937239435E+04  0.12038780295E+04  0.12506963386E+03 0.  0.
          5    1    3    3  502    0 -0.43697525580E+02 -0.13497918330E+02  0.29737079647E+03  0.30089621223E+03  0.41800000000E+01 0.  1.
         -5    1    3    3    0  502  0.82641641377E+02 -0.71274714705E+02  0.89635314700E+03  0.90298181730E+03  0.41800000000E+01 0.  1.
        -11    1    1    2    0    0 -0.60268977855E+02  0.90443451935E+02  0.41538517023E+03  0.42936838185E+03  0.00000000000E+00 0.  1.
         11    1    1    2    0    0  0.21324862058E+02 -0.56708188996E+01  0.60989425803E+02  0.64858445776E+02  0.00000000000E+00 0. -1.
</event>
<event>
 7    1  0.3151015E-009  0.9608412E+02  0.7561462E-02  0.1288753E+00
         -2   -1    0    0    0  501 -0.00000000000E+00  0.00000000000E+00  0.33883322605E+02  0.33883322605E+02  0.00000000000E+00 0.  1.
          2   -1    0    0  501    0  0.00000000000E+00 -0.00000000000E+00 -0.34342566204E+03  0.34342566204E+03  0.00000000000E+00 0. -1.
         25    2    1    2    0    0 -0.21950618923E+02 -0.34091734074E+02 -0.20025882441E+03  0.23957304712E+03  0.12509025600E+03 0.  0.
          5    1    3    3  502    0 -0.55272816952E+01 -0.70725418472E+02 -0.18178685095E+03  0.19518341948E+03  0.41800000000E+01 0. -1.
         -5    1    3    3    0  502 -0.16423337227E+02  0.36633684397E+02 -0.18471973460E+02  0.44389627636E+02  0.41800000000E+01 0. -1.
        -11    1    1    2    0    0 -0.24742642627E+02  0.20437038221E+02 -0.26075272753E+02  0.41349616014E+02  0.00000000000E+00 0.  1.
         11    1    1    2    0    0  0.46693261550E+02  0.13654695854E+02 -0.83208242267E+02  0.96386321510E+02  0.00000000000E+00 0. -1.
</event>
<event>
 7    1  0.3151015E-009  0.1489817E+03  0.7561462E-02  0.1201730E+00
         -2   -1    0    0    0  501 -0.00000000000E+00  0.00000000000E+00  0.14083190056E+03  0.14083190056E+03  0.00000000000E+00 0.  1.
          2   -1    0    0  501    0  0.00000000000E+00 -0.00000000000E+00 -0.17787272694E+03  0.17787272694E+03  0.00000000000E+00 0. -1.
         25    2    1    2    0    0 -0.89912088834E+02  0.71085096357E+02 -0.26030179853E+02  0.17164436252E+03  0.12508773833E+03 0.  0.
          5    1    3    3  502    0  0.17174633873E+02  0.33267120764E+02  0.26887706020E+02  0.46282723641E+02  0.41800000000E+01 0.  1.
         -5    1    3    3    0  502 -0.10708672271E+03  0.37817975593E+02 -0.52917885873E+02  0.12536163888E+03  0.41800000000E+01 0.  1.
        -11    1    1    2    0    0  0.10908870877E+03 -0.60308293010E+02 -0.95444962615E+01  0.12501413518E+03  0.00000000000E+00 0.  1.
         11    1    1    2    0    0 -0.19176619931E+02 -0.10776803347E+02 -0.14661502737E+01  0.22046129796E+02  0.00000000000E+00 0. -1.
</event>
<event>
 7    1  0.3151015E-009  0.1410679E+03  0.7561462E-02  0.1211899E+00
         -1   -1    0    0    0  501 -0.00000000000E+00  0.00000000000E+00  0.14724938451E+03  0.14724938451E+03  0.00000000000E+00 0.  1.
          1   -1    0    0  501    0  0.00000000000E+00 -0.00000000000E+00 -0.22043447466E+03  0.22043447466E+03  0.00000000000E+00 0. -1.
         25    2    1    2    0    0  0.11912345666E+03 -0.21285272486E+01 -0.11594394872E+03  0.20805301434E+03  0.12509248169E+03 0.  0.
          5    1    3    3  502    0  0.12637144639E+03 -0.31385233373E+02 -0.12028498878E+03  0.17731533003E+03  0.41800000000E+01 0. -1.
         -5    1    3    3    0  502 -0.72479897293E+01  0.29256706125E+02  0.43410400558E+01  0.30737684317E+02  0.41800000000E+01 0. -1.
        -11    1    1    2    0    0 -0.13372154983E+02  0.78797737073E+01 -0.28172056460E+02  0.32164734225E+02  0.00000000000E+00 0. -1.
         11    1    1    2    0    0 -0.10575130168E+03 -0.57512464586E+01  0.70930915032E+02  0.12746611060E+03  0.00000000000E+00 0.  1.
</event>
<event>
 7    1  0.3151015E-009  0.1971397E+03  0.7561462E-02  0.1152175E+00
          2   -1    0    0  501    0  0.00000000000E+00  0.00000000000E+00  0.12440728069E+04  0.12440728069E+04  0.00000000000E+00 0. -1.
         -2   -1    0    0    0  501 -0.00000000000E+00 -0.00000000000E+00 -0.39465045771E+02  0.39465045771E+02  0.00000000000E+00 0.  1.
         25    2    1    2    0    0  0.14217252309E+03 -0.12212266387E+03  0.77210384016E+03  0.80431122208E+03  0.12508089626E+03 0.  0.
          5    1    3    3  502    0  0.64777313234E+02 -0.60816682664E+01  0.11178302228E+03  0.12940635019E+03  0.41800000000E+01 0. -1.
         -5    1    3    3    0  502  0.77395209856E+02 -0.11604099560E+03  0.66032081788E+03  0.67490487189E+03  0.41800000000E+01 0. -1.
        -11    1    1    2    0    0 -0.51780679873E+02  0.62903561498E+02  0.28472263918E+03  0.29615043157E+03  0.00000000000E+00 0.  1.
         11    1    1    2    0    0 -0.90391843217E+02  0.59219102367E+02  0.14778128181E+03  0.18307619905E+03  0.00000000000E+00 0. -1.
</event>
<event>
 7    1  0.4419132E-009  0.1095494E+03  0.7561462E-02  0.1261407E+00
          2   -1    0    0  501    0  0.00000000000E+00  0.00000000000E+00  0.12573108950E+04  0.12573108950E+04  0.00000000000E+00 0. -1.
         -2   -1    0    0    0  501 -0.00000000000E+00 -0.00000000000E+00 -0.18142706646E+02  0.18142706646E+02  0.00000000000E+00 0.  1.
         25    2    1    2    0    0 -0.16386875783E+01 -0.10386298572E+03  0.73105821169E+03  0.74892197596E+03  0.12509121515E+03 0.  0.
          5    1    3    3  502    0  0.19667303805E+02 -0.68720350108E+02  0.67755352584E+03  0.68132631106E+03  0.41800000000E+01 0.  1.
         -5    1    3    3    0  502 -0.21305991383E+02 -0.35142635616E+02  0.53504685842E+02  0.67595664904E+02  0.41800000000E+01 0.  1.
        -11    1    1    2    0    0  0.95306930673E+01  0.22387150684E+02  0.19691970847E+02  0.31301634812E+02  0.00000000000E+00 0.  1.
         11    1    1    2    0    0 -0.78920054889E+01  0.81475835040E+02  0.48841800579E+03  0.49522999084E+03  0.00000000000E+00 0. -1.
</event>
<event>
 7    1  0.3151015E-009  0.2448451E+03  0.7561462E-02  0.1116607E+00
         -2   -1    0    0    0  501 -0.00000000000E+00  0.00000000000E+00  0.43069620689E+02  0.43069620689E+02  0.00000000000E+00 0.  1.
          2   -1    0    0  501    0  0.00000000000E+00 -0.00000000000E+00 -0.16259367536E+04  0.16259367536E+04  0.00000000000E+00 0. -1.
         25    2    1    2    0    0  0.79410000607E+02  0.22705094416E+03 -0.78464785984E+03  0.83016760123E+03  0.12509157744E+03 0.  0.
          5    1    3    3  502    0  0.39978691154E+02  0.19208068250E+03 -0.72198915070E+03  0.74818386140E+03  0.41800000000E+01 0. -1.
         -5    1    3    3    0  502  0.39431309452E+02  0.34970261655E+02 -0.62658709139E+02  0.81983739829E+02  0.41800000000E+01 0. -1.
        -11    1    1    2    0    0 -0.55495713871E+02 -0.15231945956E+03 -0.37706548113E+03  0.41043802100E+03  0.00000000000E+00 0.  1.
         11    1    1    2    0    0 -0.23914286735E+02 -0.74731484599E+02 -0.42115379193E+03  0.42840075205E+03  0.00000000000E+00 0. -1.
</event>
<event>
 7    1  0.3151015E-009  0.1552446E+03  0.7561462E-02  0.1194173E+00
         -1   -1    0    0    0  501 -0.00000000000E+00  0.00000000000E+00  0.29716023909E+03  0.29716023909E+03  0.00000000000E+00 0.  1.
          1   -1    0    0  501    0  0.00000000000E+00 -0.00000000000E+00 -0.92189933960E+02  0.92189933960E+02  0.00000000000E+00 0. -1.
         25    2    1    2    0    0 -0.39904232633E+02 -0.10893272780E+03  0.54267448339E+02  0.17902895514E+03  0.12509086243E+03 0.  0.
          5    1    3    3  502    0  0.45386968644E+02 -0.43617063018E+02  0.21028995172E+02  0.66498993578E+02  0.41800000000E+01 0.  1.
         -5    1    3    3    0  502 -0.85291201277E+02 -0.65315664779E+02  0.33238453167E+02  0.11252996156E+03  0.41800000000E+01 0.  1.
        -11    1    1    2    0    0  0.31302880433E+02  0.12105121313E+03  0.10838805302E+03  0.16547276683E+03  0.00000000000E+00 0.  1.
         11    1    1    2    0    0  0.86013521997E+01 -0.12118485332E+02  0.42314803774E+02  0.44848451086E+02  0.00000000000E+00 0. -1.
</event>
<event>
 7    1  0.3151015E-009  0.1501447E+03  0.7561462E-02  0.1200295E+00
         -2   -1    0    0    0  501 -0.00000000000E+00  0.00000000000E+00  0.13953684463E+02  0.13953684463E+02  0.00000000000E+00 0.  1.
          2   -1    0    0  501    0  0.00000000000E+00 -0.00000000000E+00 -0.22311480804E+04  0.22311480804E+04  0.00000000000E+00 0. -1.
         25    2    1    2    0    0 -0.11349417106E+03 -0.72561221099E+02 -0.13873239816E+04  0.13994504504E+04  0.12509066880E+03 0.  0.
          5    1    3    3  502    0 -0.66113145831E+02 -0.60202007196E+02 -0.12567580098E+04  0.12599418230E+04  0.41800000000E+01 0.  1.
         -5    1    3    3    0  502 -0.47381025229E+02 -0.12359213902E+02 -0.13056597186E+03  0.13950862743E+03  0.41800000000E+01 0.  1.
        -11    1    1    2    0    0  0.97383000599E+02  0.11006582720E+02 -0.45690306111E+03  0.46729541076E+03  0.00000000000E+00 0. -1.
         11    1    1    2    0    0  0.16111170461E+02  0.61554638379E+02 -0.37296735319E+03  0.37835590370E+03  0.00000000000E+00 0.  1.
</event>
<event>
 7    1  0.3151015E-009  0.1002702E+03  0.7561462E-02  0.1279729E+00
          1   -1    0    0  501    0  0.00000000000E+00  0.00000000000E+00  0.35836866458E+03  0.35836866458E+03  0.00000000000E+00 0. -1.
         -1   -1    0    0    0  501 -0.00000000000E+00 -0.00000000000E+00 -0.83532048512E+02  0.83532048512E+02  0.00000000000E+00 0.  1.
         25    2    1    2    0    0 -0.48328972759E+02 -0.52995930127E+02 -0.11464356457E+01  0.14419559685E+03  0.12508716008E+03 0.  0.
          5    1    3    3  502    0 -0.12697636649E+02  0.17586967441E+02  0.46716341632E+02  0.51676110300E+02  0.41800000000E+01 0. -1.
         -5    1    3    3    0  502 -0.35631336110E+02 -0.70582897567E+02 -0.47862777278E+02  0.92519486546E+02  0.41800000000E+01 0. -1.
        -11    1    1    2    0    0  0.66098764422E+02  0.43452224388E+02  0.26059230774E+03  0.27233342306E+03  0.00000000000E+00 0. -1.
         11    1    1    2    0    0 -0.17769791663E+02  0.95437057386E+01  0.15390743969E+02  0.25371693181E+02  0.00000000000E+00 0.  1.
</event>
<event>
 7    1  0.3151015E-009  0.1065477E+03  0.7561462E-02  0.1267100E+00
         -2   -1    0    0    0  501 -0.00000000000E+00  0.00000000000E+00  0.37075158799E+02  0.37075158799E+02  0.00000000000E+00 0.  1.
          2   -1    0    0  501    0  0.00000000000E+00 -0.00000000000E+00 -0.41673994688E+03  0.41673994688E+03  0.00000000000E+00 0. -1.
         25    2    1    2    0    0 -0.69595052408E+02 -0.49545733970E+01 -0.23410402124E+03  0.27444499811E+03  0.12508934851E+03 0.  0.
          5    1    3    3  502    0  0.12153089321E+02 -0.47164046872E+02 -0.10539570139E+03  0.11618033899E+03  0.41800000000E+01 0.  1.
         -5    1    3    3    0  502 -0.81748141729E+02  0.42209473475E+02 -0.12870831985E+03  0.15826465912E+03  0.41800000000E+01 0.  1.
        -11    1    1    2    0    0  0.30213314551E+02  0.11236165700E+02 -0.13403738989E+03  0.13785905007E+03  0.00000000000E+00 0. -1.
         11    1    1    2    0    0  0.39381737857E+02 -0.62815923034E+01 -0.11523376948E+02  0.41511057500E+02  0.00000000000E+00 0.  1.
</event>
<event>
 7    1  0.3151015E-009  0.1218596E+03  0.7561462E-02  0.1240060E+00
          2   -1    0    0  501    0  0.00000000000E+00  0.00000000000E+00  0.23102002358E+03  0.23102002358E+03  0.00000000000E+00 0. -1.
         -2   -1    0    0    0  501 -0.00000000000E+00 -0.00000000000E+00 -0.83695720555E+02  0.83695720555E+02  0.00000000000E+00 0.  1.
         25    2    1    2    0    0  0.57024328193E+02  0.45445038634E+02  0.13527452494E+03  0.19815052494E+03  0.12508959945E+03 0.  0.
          5    1    3    3  502    0  0.44158533893E+01 -0.41052125074E+02  0.25254757213E+02  0.48580365336E+02  0.41800000000E+01 0.  1.
         -5    1    3    3    0  502  0.52608474803E+02  0.86497163708E+02  0.11001976773E+03  0.14957015960E+03  0.41800000000E+01 0.  1.
        -11    1    1    2    0    0  0.14883939125E+01 -0.42268487587E+02  0.33716299160E+02  0.54089085668E+02  0.00000000000E+00 0.  1.
         11    1    1    2    0    0 -0.58512722105E+02 -0.31765510472E+01 -0.21666521084E+02  0.62476133528E+02  0.00000000000E+00 0. -1.
</event>
<event>
 7    1  0.3151015E-009  0.1127990E+03  0.7561462E-02  0.1255473E+00
          2   -1    0    0  501    0  0.00000000000E+00  0.00000000000E+00  0.71683527506E+03  0.71683527506E+03  0.00000000000E+00 0.  1.
         -2   -1    0    0    0  501 -0.00000000000E+00 -0.00000000000E+00 -0.45505275802E+02  0.45505275802E+02  0.00000000000E+00 0. -1.
         25    2    1    2    0    0  0.45246751271E+02 -0.35301136007E+02  0.63355543504E+03  0.64833104779E+03  0.12508884663E+03 0.  0.
          5    1    3    3  502    0 -0.25175232218E+02 -0.41208778374E+02  0.43187950544E+03  0.43459099778E+03  0.41800000000E+01 0.  1.
         -5    1    3    3    0  502  0.70421983490E+02  0.59076423662E+01  0.20167592960E+03  0.21374005001E+03  0.41800000000E+01 0.  1.
        -11    1    1    2    0    0  0.26837783358E+02  0.19505004933E+01  0.17290439523E+02  0.31984845890E+02  0.00000000000E+00 0. -1.
         11    1    1    2    0    0 -0.72084534629E+02  0.33350635514E+02  0.20484124695E+02  0.82024657186E+02  0.00000000000E+00 0.  1.
</event>
<event>
 7    1  0.3151015E-009  0.1083535E+03  0.7561462E-02  0.1263650E+00
          1   -1    0    0  501    0  0.00000000000E+00  0.00000000000E+00  0.51447962009E+02  0.51447962009E+02  0.00000000000E+00 0. -1.
         -1   -1    0    0    0  501 -0.00000000000E+00 -0.00000000000E+00 -0.25918297975E+03  0.25918297975E+03  0.00000000000E+00 0.  1.
         25    2    1    2    0    0 -0.35207924191E+01 -0.38344287402E+02 -0.12993187213E+03  0.18442495658E+03  0.12509033879E+03 0.  0.
          5    1    3    3  502    0  0.10252169025E+02 -0.80930018258E+02 -0.60244502215E+02  0.10149703085E+03  0.41800000000E+01 0.  1.
         -5    1    3    3    0  502 -0.13772961444E+02  0.42585730856E+02 -0.69687369915E+02  0.82927925726E+02  0.41800000000E+01 0.  1.
        -11    1    1    2    0    0  0.36252300260E+02  0.43833284120E+02 -0.21422838209E+02  0.60782596752E+02  0.00000000000E+00 0.  1.
         11    1    1    2    0    0 -0.32731507841E+02 -0.54889967181E+01 -0.56380307400E+02  0.65423388425E+02  0.00000000000E+00 0. -1.
</event>
<event>
 7    1  0.3151015E-009  0.2337793E+03  0.7561462E-02  0.1124008E+00
          2   -1    0    0  501    0  0.00000000000E+00  0.00000000000E+00  0.15024620247E+04  0.15024620247E+04  0.00000000000E+00 0. -1.
         -2   -1    0    0    0  501 -0.00000000000E+00 -0.00000000000E+00 -0.53547821080E+02  0.53547821080E+02  0.00000000000E+00 0.  1.
         25    2    1    2    0    0 -0.87491064952E+02 -0.19067091286E+03  0.31177417673E+03  0.39605679306E+03  0.12509101724E+03 0.  0.
          5    1    3    3  502    0  0.25687165086E+02 -0.11618242632E+02  0.63957696379E+02  0.70020520836E+02  0.41800000000E+01 0.  1.
         -5    1    3    3    0  502 -0.11317823004E+03 -0.17905267023E+03  0.24781648036E+03  0.32603627222E+03  0.41800000000E+01 0.  1.
        -11    1    1    2    0    0 -0.76805722980E+01  0.83547261467E+02  0.35352979449E+03  0.36334893929E+03  0.00000000000E+00 0. -1.
         11    1    1    2    0    0  0.95171637250E+02  0.10712365139E+03  0.78361023240E+03  0.79660411343E+03  0.00000000000E+00 0.  1.
</event>
<event>
 7    1  0.3151015E-009  0.1126524E+03  0.7561462E-02  0.1255735E+00
         -1   -1    0    0    0  501 -0.00000000000E+00  0.00000000000E+00  0.12199385842E+02  0.12199385842E+02  0.00000000000E+00 0.  1.
          1   -1    0    0  501    0  0.00000000000E+00 -0.00000000000E+00 -0.16706888413E+04  0.16706888413E+04  0.00000000000E+00 0. -1.
         25    2    1    2    0    0  0.65072639735E+02  0.16230198143E+01 -0.12842587275E+04  0.12919774876E+04  0.12509303155E+03 0.  0.
          5    1    3    3  502    0  0.49252101638E+02  0.61220276602E+02 -0.77419005162E+03  0.77817825735E+03  0.41800000000E+01 0.  1.
         -5    1    3    3    0  502  0.15820538097E+02 -0.59597256788E+02 -0.51006867593E+03  0.51379923025E+03  0.41800000000E+01 0.  1.
        -11    1    1    2    0    0  0.80155098227E+01 -0.81596795127E+01 -0.21188132768E+01  0.11632632426E+02  0.00000000000E+00 0.  1.
         11    1    1    2    0    0 -0.73088149557E+02  0.65366596984E+01 -0.37211191460E+03  0.37927810708E+03  0.00000000000E+00 0. -1.
</event>
<event>
 7    1  0.3151015E-009  0.3997666E+02  0.7561462E-02  0.1508383E+00
          2   -1    0    0  501    0  0.00000000000E+00  0.00000000000E+00  0.54153567881E+03  0.54153567881E+03  0.00000000000E+00 0. -1.
         -2   -1    0    0    0  501 -0.00000000000E+00 -0.00000000000E+00 -0.22646238705E+02  0.22646238705E+02  0.00000000000E+00 0.  1.
         25    2    1    2    0    0 -0.17545599725E+02  0.93863606921E+01  0.30095060685E+03  0.32651929542E+03  0.12509048998E+03 0.  0.
          5    1    3    3  502    0  0.71896390442E-01 -0.52824299403E+00  0.30537753482E+03  0.30540660665E+03  0.41800000000E+01 0.  1.
         -5    1    3    3    0  502 -0.17617496116E+02  0.99146036861E+01 -0.44269279799E+01  0.21112688767E+02  0.41800000000E+01 0.  1.
        -11    1    1    2    0    0  0.33155988270E+02 -0.17513064101E+02  0.21680862958E+03  0.22002729111E+03  0.00000000000E+00 0. -1.
         11    1    1    2    0    0 -0.15610388545E+02  0.81267034093E+01  0.11302036823E+01  0.17635330992E+02  0.00000000000E+00 0.  1.
</event>
<event>
 7    1  0.3151015E-009  0.9484296E+02  0.7561462E-02  0.1291530E+00
         -2   -1    0    0    0  501 -0.00000000000E+00  0.00000000000E+00  0.89707219224E+02  0.89707219224E+02  0.00000000000E+00 0.  1.
          2   -1    0    0  501    0  0.00000000000E+00 -0.00000000000E+00 -0.18230604618E+03  0.18230604618E+03  0.00000000000E+00 0. -1.
         25    2    1    2    0    0  0.43040102409E+02  0.36313431291E+02 -0.13301142666E+02  0.13781318327E+03  0.12507772536E+03 0.  0.
          5    1    3    3  502    0 -0.24234673704E+02  0.14216948439E+02  0.40017662315E+02  0.49074705599E+02  0.41800000000E+01 0. -1.
         -5    1    3    3    0  502  0.67274776113E+02  0.22096482853E+02 -0.53318804981E+02  0.88738477675E+02  0.41800000000E+01 0. -1.
        -11    1    1    2    0    0  0.87927156083E+01 -0.37482276053E+02  0.11225236575E+01  0.38516138504E+02  0.00000000000E+00 0.  1.
         11    1    1    2    0    0 -0.51832818017E+02  0.11688447614E+01 -0.80420207944E+02  0.95683943624E+02  0.00000000000E+00 0. -1.
</event>
<event>
 7    1  0.3151015E-009  0.1940800E+03  0.7561462E-02  0.1154832E+00
          2   -1    0    0  501    0  0.00000000000E+00  0.00000000000E+00  0.18767624183E+03  0.18767624183E+03  0.00000000000E+00 0. -1.
         -2   -1    0    0    0  501 -0.00000000000E+00 -0.00000000000E+00 -0.24083625154E+03  0.24083625154E+03  0.00000000000E+00 0.  1.
         25    2    1    2    0    0  0.16220698420E+03 -0.27756745455E+02 -0.11414127052E+03  0.23613122178E+03  0.12509269212E+03 0.  0.
          5    1    3    3  502    0  0.16340134376E+03 -0.59935533721E+02 -0.99350304295E+02  0.20045005041E+03  0.41800000000E+01 0. -1.
         -5    1    3    3    0  502 -0.11943595551E+01  0.32178788266E+02 -0.14790966222E+02  0.35681171376E+02  0.41800000000E+01 0. -1.
        -11    1    1    2    0    0 -0.11649384230E+03  0.54520053814E+02  0.51602870317E+02  0.13858610243E+03  0.00000000000E+00 0. -1.
         11    1    1    2    0    0 -0.45713141907E+02 -0.26763308359E+02  0.93783904878E+01  0.53795169165E+02  0.00000000000E+00 0.  1.
</event>
<event>
 7    1  0.3151015E-009  0.2119340E+03  0.7561462E-02  0.1140044E+00
          1   -1    0    0  501    0  0.00000000000E+00  0.00000000000E+00  0.52483058285E+02  0.52483058285E+02  0.00000000000E+00 0. -1.
         -1   -1    0    0    0  501 -0.00000000000E+00 -0.00000000000E+00 -0.90618635338E+03  0.90618635338E+03  0.00000000000E+00 0.  1.
         25    2    1    2    0    0  0.18101504997E+03  0.51761937206E+02 -0.41282858155E+03  0.47066040112E+03  0.12509208202E+03 0.  0.
          5    1    3    3  502    0 -0.12797810546E+02 -0.29116196504E+01 -0.31282828596E+01  0.14125156190E+02  0.41800000000E+01 0. -1.
         -5    1    3    3    0  502  0.19381286052E+03  0.54673556856E+02 -0.40970029869E+03  0.45653524493E+03  0.41800000000E+01 0. -1.
        -11    1    1    2    0    0 -0.17820132348E+03 -0.22890878385E+02 -0.36624766927E+03  0.40794247051E+03  0.00000000000E+00 0. -1.
         11    1    1    2    0    0 -0.28137264913E+01 -0.28871058820E+02 -0.74627044282E+02  0.80066540030E+02  0.00000000000E+00 0.  1.
</event>
<event>
 7    1  0.3151015E-009  0.8700499E+02  0.7561462E-02  0.1310271E+00
          2   -1    0    0  501    0  0.00000000000E+00  0.00000000000E+00  0.36005633303E+03  0.36005633303E+03  0.00000000000E+00 0. -1.
         -2   -1    0    0    0  501 -0.00000000000E+00 -0.00000000000E+00 -0.32464192274E+02  0.32464192274E+02  0.00000000000E+00 0.  1.
         25    2    1    2    0    0  0.67502251190E+01 -0.13557177030E+02  0.27755403753E+03  0.30481615723E+03  0.12508910173E+03 0.  0.
          5    1    3    3  502    0  0.54900927003E+02 -0.30153545209E+01  0.59095006934E+02  0.80826334775E+02  0.41800000000E+01 0. -1.
         -5    1    3    3    0  502 -0.48150701884E+02 -0.10541822509E+02  0.21845903060E+03  0.22398982245E+03  0.41800000000E+01 0. -1.
        -11    1    1    2    0    0 -0.12005222023E+02 -0.26450914026E+02  0.96401221260E+01  0.30605688413E+02  0.00000000000E+00 0.  1.
         11    1    1    2    0    0  0.52549969043E+01  0.40008091056E+02  0.40397981104E+02  0.57098679666E+02  0.00000000000E+00 0. -1.
</event>
<event>
 7    1  0.3151015E-009  0.1126575E+03  0.7561462E-02  0.1255726E+00
          1   -1    0    0  501    0  0.00000000000E+00  0.00000000000E+00  0.71500413760E+02  0.71500413760E+02  0.00000000000E+00 0. -1.
         -1   -1    0    0    0  501 -0.00000000000E+00 -0.00000000000E+00 -0.28253758528E+03  0.28253758528E+03  0.00000000000E+00 0.  1.
         25    2    1    2    0    0  0.49627592451E+02  0.75101887003E+02 -0.14563878084E+03  0.21204073291E+03  0.12508967409E+03 0.  0.
          5    1    3    3  502    0 -0.10575806611E+02  0.22452665484E+02  0.17261164245E+02  0.30518683849E+02  0.41800000000E+01 0.  1.
         -5    1    3    3    0  502  0.60203399063E+02  0.52649221519E+02 -0.16289994509E+03  0.18152204906E+03  0.41800000000E+01 0.  1.
        -11    1    1    2    0    0 -0.65668694990E+02 -0.79799091249E+02 -0.38410626388E+02  0.11025265841E+03  0.00000000000E+00 0. -1.
         11    1    1    2    0    0  0.16041102539E+02  0.46972042461E+01 -0.26987764294E+02  0.31744607731E+02  0.00000000000E+00 0.  1.
</event>
<event>
 7    1  0.3151015E-009  0.9059151E+02  0.7561462E-02  0.1301426E+00
          1   -1    0    0  501    0  0.00000000000E+00  0.00000000000E+00  0.11718072765E+03  0.11718072765E+03  0.00000000000E+00 0. -1.
         -1   -1    0    0    0  501 -0.00000000000E+00 -0.00000000000E+00 -0.11801505428E+03  0.11801505428E+03  0.00000000000E+00 0.  1.
         25    2    1    2    0    0 -0.78809982927E+01  0.43196247810E+00  0.44639662967E+02  0.13305151146E+03  0.12509080088E+03 0.  0.
          5    1    3    3  502    0 -0.31908221986E+02 -0.53560406237E+02  0.38726307729E+02  0.73512251066E+02  0.41800000000E+01 0.  1.
         -5    1    3    3    0  502  0.24027223693E+02  0.53992368715E+02  0.59133552381E+01  0.59539260392E+02  0.41800000000E+01 0.  1.
        -11    1    1    2    0    0  0.33431350635E+02 -0.39430452050E+01 -0.62675470290E+02  0.71143639117E+02  0.00000000000E+00 0.  1.
         11    1    1    2    0    0 -0.25550352342E+02  0.35110827269E+01  0.17201480685E+02  0.31000631356E+02  0.00000000000E+00 0. -1.
</event>
<event>
 7    1  0.4890546E-009  0.9071599E+02  0.7561462E-02  0.1301127E+00
          2   -1    0    0  501    0  0.00000000000E+00  0.00000000000E+00  0.11195952022E+03  0.11195952022E+03  0.00000000000E+00 0. -1.
         -2   -1    0    0    0  501 -0.00000000000E+00 -0.00000000000E+00 -0.17946189288E+03  0.17946189288E+03  0.00000000000E+00 0.  1.
         25    2    1    2    0    0 -0.48040017695E+02  0.22847853593E+02  0.39427062002E+02  0.14153324660E+03  0.12508916405E+03 0.  0.
          5    1    3    3  502    0  0.30180670971E+02 -0.19342100958E+02 -0.12886792550E+02  0.38321424712E+02  0.41800000000E+01 0. -1.
         -5    1    3    3    0  502 -0.78220688665E+02  0.42189954551E+02  0.52313854552E+02  0.10321182189E+03  0.41800000000E+01 0. -1.
        -11    1    1    2    0    0  0.36106907324E+02 -0.74114559565E+01 -0.12057217507E+03  0.12608048158E+03  0.00000000000E+00 0.  1.
         11    1    1    2    0    0  0.11933110371E+02 -0.15436397637E+02  0.13642740410E+02  0.23807684915E+02  0.00000000000E+00 0. -1.
</event>
<event>
 7    1  0.3151015E-009  0.1523623E+03  0.7561462E-02  0.1197600E+00
          1   -1    0    0  501    0  0.00000000000E+00  0.00000000000E+00  0.11211631735E+04  0.11211631735E+04  0.00000000000E+00 0.  1.
         -1   -1    0    0    0  501 -0.00000000000E+00 -0.00000000000E+00 -0.32228537273E+02  0.32228537273E+02  0.00000000000E+00 0. -1.
         25    2    1    2    0    0 -0.19266107877E+02  0.13209323413E+03  0.31953759981E+03  0.36820119189E+03  0.12509210448E+03 0.  0.
          5    1    3    3  502    0 -0.53914075937E+02  0.99461157245E+02  0.29171316247E+03  0.31291099524E+03  0.41800000000E+01 0.  1.
         -5    1    3    3    0  502  0.34647968060E+02  0.32632076882E+02  0.27824437339E+02  0.55290196650E+02  0.41800000000E+01 0.  1.
        -11    1    1    2    0    0  0.34004009722E+01 -0.12703782766E+03  0.74430310792E+03  0.75507435981E+03  0.00000000000E+00 0.  1.
         11    1    1    2    0    0  0.15865706904E+02 -0.50554064662E+01  0.25093928532E+02  0.30116159106E+02  0.00000000000E+00 0. -1.
</event>
<event>
 7    1  0.3151015E-009  0.1189747E+03  0.7561462E-02  0.1244798E+00
         -1   -1    0    0    0  501 -0.00000000000E+00  0.00000000000E+00  0.18886047892E+03  0.18886047892E+03  0.00000000000E+00 0.  1.
          1   -1    0    0  501    0  0.00000000000E+00 -0.00000000000E+00 -0.83107424607E+02  0.83107424607E+02  0.00000000000E+00 0. -1.
         25    2    1    2    0    0 -0.35477970721E+02 -0.37501741743E+02  0.18762087446E+02  0.13661701295E+03  0.12508846974E+03 0.  0.
          5    1    3    3  502    0 -0.82056888635E+02 -0.15578014574E+02  0.98747518271E+01  0.84208020011E+02  0.41800000000E+01 0.  1.
         -5    1    3    3    0  502  0.46578917914E+02 -0.21923727169E+02  0.88873356184E+01  0.52408992944E+02  0.41800000000E+01 0.  1.
        -11    1    1    2    0    0 -0.27607597986E+02 -0.28984961615E+01  0.15471658233E+02  0.31779757001E+02  0.00000000000E+00 0.  1.
         11    1    1    2    0    0  0.63085568708E+02  0.40400237904E+02  0.71519308637E+02  0.10357113357E+03  0.00000000000E+00 0. -1.
</event>
<event>
 7    1  0.3151015E-009  0.1002702E+03  0.7561462E-02  0.1279729E+00
          1   -1    0    0  501    0  0.00000000000E+00  0.00000000000E+00  0.62740970378E+02  0.62740970378E+02  0.00000000000E+00 0. -1.
         -1   -1    0    0    0  501 -0.00000000000E+00 -0.00000000000E+00 -0.26026021523E+03  0.26026021523E+03  0.00000000000E+00 0.  1.
         25    2    1    2    0    0  0.16746633034E+02  0.62705443297E+02 -0.91657158067E+02  0.16810965095E+03  0.12508955904E+03 0.  0.
          5    1    3    3  502    0  0.31513616862E+02  0.68889084929E+02 -0.11604054548E+03  0.13864232639E+03  0.41800000000E+01 0. -1.
         -5    1    3    3    0  502 -0.14766983827E+02 -0.61836416322E+01  0.24383387417E+02  0.29467324566E+02  0.41800000000E+01 0. -1.
        -11    1    1    2    0    0 -0.50959510588E+02 -0.23582131667E+02 -0.77438934190E+02  0.95654467652E+02  0.00000000000E+00 0.  1.
         11    1    1    2    0    0  0.34212877553E+02 -0.39123311630E+02 -0.28423152590E+02  0.59237066998E+02  0.00000000000E+00 0. -1.
</event>
<event>
 7    1  0.3151015E-009  0.8551169E+02  0.7561462E-02  0.1314100E+00
         -2   -1    0    0    0  501 -0.00000000000E+00  0.00000000000E+00  0.35014148627E+02  0.35014148627E+02  0.00000000000E+00 0.  1.
          2   -1    0    0  501    0  0.00000000000E+00 -0.00000000000E+00 -0.38219474427E+03  0.38219474427E+03  0.00000000000E+00 0. -1.
         25    2    1    2    0    0  0.18999940334E+02  0.27091011165E+02 -0.13115897489E+03  0.18424279343E+03  0.12509120520E+03 0.  0.
          5    1    3    3  502    0  0.43978571934E+02  0.58083068268E+02 -0.36761130877E+02  0.81710530240E+02  0.41800000000E+01 0.  1.
         -5    1    3    3    0  502 -0.24978631600E+02 -0.30992057103E+02 -0.94397844015E+02  0.10253226319E+03  0.41800000000E+01 0.  1.
        -11    1    1    2    0    0  0.12014724793E+02  0.53429252048E+01 -0.86312958591E+00  0.13177460085E+02  0.00000000000E+00 0.  1.
         11    1    1    2    0    0 -0.31014665127E+02 -0.32433936370E+02 -0.21515849116E+03  0.21978863938E+03  0.00000000000E+00 0. -1.
</event>
<event>
 7    1  0.3151015E-009  0.1158394E+03  0.7561462E-02  0.1250123E+00
         -1   -1    0    0    0  501 -0.00000000000E+00  0.00000000000E+00  0.27514182112E+02  0.27514182112E+02  0.00000000000E+00 0.  1.
          1   -1    0    0  501    0  0.00000000000E+00 -0.00000000000E+00 -0.54521649252E+03  0.54521649252E+03  0.00000000000E+00 0. -1.
         25    2    1    2    0    0 -0.34186862492E+01  0.69527602076E+02 -0.27242886622E+03  0.30775208690E+03  0.12509230583E+03 0.  0.
          5    1    3    3  502    0 -0.56734348236E+02  0.69126719396E+02 -0.17730811958E+03  0.19862761962E+03  0.41800000000E+01 0. -1.
         -5    1    3    3    0  502  0.53315661987E+02  0.40088267950E+00 -0.95120746636E+02  0.10912446729E+03  0.41800000000E+01 0. -1.
        -11    1    1    2    0    0 -0.24420852669E+02 -0.18841521343E+02 -0.15302775041E+03  0.15610532780E+03  0.00000000000E+00 0. -1.
         11    1    1    2    0    0  0.27839538919E+02 -0.50686080733E+02 -0.92245693777E+02  0.10887325993E+03  0.00000000000E+00 0.  1.
</event>
<event>
 7    1  0.3151015E-009  0.1882085E+03  0.7561462E-02  0.1160087E+00
          1   -1    0    0  501    0  0.00000000000E+00  0.00000000000E+00  0.75154560729E+03  0.75154560729E+03  0.00000000000E+00 0. -1.
         -1   -1    0    0    0  501 -0.00000000000E+00 -0.00000000000E+00 -0.62070857505E+02  0.62070857505E+02  0.00000000000E+00 0.  1.
         25    2    1    2    0    0  0.41790736957E+02 -0.16962727934E+03  0.27694575049E+03  0.35052305173E+03  0.12509029333E+03 0.  0.
          5    1    3    3  502    0  0.43420113821E+01 -0.54004954540E+01  0.11995191353E+03  0.12022459138E+03  0.41800000000E+01 0. -1.
         -5    1    3    3    0  502  0.37448725575E+02 -0.16422678389E+03  0.15699383696E+03  0.23029846035E+03  0.41800000000E+01 0. -1.
        -11    1    1    2    0    0 -0.64838962649E+02  0.61820595204E+02  0.11486442170E+03  0.14566987486E+03  0.00000000000E+00 0.  1.
         11    1    1    2    0    0  0.23048225692E+02  0.10780668414E+03  0.29766457760E+03  0.31742353821E+03  0.00000000000E+00 0. -1.
</event>
<event>
 7    1  0.3151015E-009  0.2905197E+03  0.7561462E-02  0.1090078E+00
          2   -1    0    0  501    0  0.00000000000E+00  0.00000000000E+00  0.40716993329E+03  0.40716993329E+03  0.00000000000E+00 0. -1.
         -2   -1    0    0    0  501 -0.00000000000E+00 -0.00000000000E+00 -0.21788745613E+03  0.21788745613E+03  0.00000000000E+00 0.  1.
         25    2    1    2    0    0  0.14532449583E+03  0.23586978440E+03  0.10498900459E+03  0.32159596392E+03  0.12509000218E+03 0.  0.
          5    1    3    3  502    0  0.11377791356E+03  0.24559061360E+03  0.93018258555E+02  0.28623422564E+03  0.41800000000E+01 0. -1.
         -5    1    3    3    0  502  0.31546582268E+02 -0.97208292087E+01  0.11970746032E+02  0.35361738276E+02  0.41800000000E+01 0. -1.
        -11    1    1    2    0    0 -0.10689498828E+03 -0.17641885824E+03  0.18987606348E+02  0.20714893496E+03  0.00000000000E+00 0.  1.
         11    1    1    2    0    0 -0.38429507547E+02 -0.59450926159E+02  0.65305866226E+02  0.96312490545E+02  0.00000000000E+00 0. -1.
</event>
<event>
 7    1  0.3151015E-009  0.9821490E+02  0.7561462E-02  0.1284095E+00
         -1   -1    0    0    0  501 -0.00000000000E+00  0.00000000000E+00  0.45791586828E+03  0.45791586828E+03  0.00000000000E+00 0.  1.
          1   -1    0    0  501    0  0.00000000000E+00 -0.00000000000E+00 -0.50579799750E+02  0.50579799750E+02  0.00000000000E+00 0. -1.
         25    2    1    2    0    0  0.42218963367E+02  0.64685129128E+02  0.34057120179E+03  0.37094881952E+03  0.12509067278E+03 0.  0.
          5    1    3    3  502    0  0.18299252277E+02  0.27235357521E+02  0.62512849864E+01  0.33662713753E+02  0.41800000000E+01 0. -1.
         -5    1    3    3    0  502  0.23919711090E+02  0.37449771607E+02  0.33431991680E+03  0.33728610576E+03  0.41800000000E+01 0. -1.
        -11    1    1    2    0    0 -0.67859912698E+02 -0.63678774543E+02  0.42776077196E+02  0.10241946523E+03  0.00000000000E+00 0. -1.
         11    1    1    2    0    0  0.25640949330E+02 -0.10063545855E+01  0.23988789550E+02  0.35127383282E+02  0.00000000000E+00 0.  1.
</event>
<event>
 7    1  0.3151015E-009  0.8216963E+02  0.7561462E-02  0.1323005E+00
         -2   -1    0    0    0  501 -0.00000000000E+00  0.00000000000E+00  0.75315064067E+02  0.75315064067E+02  0.00000000000E+00 0.  1.
          2   -1    0    0  501    0  0.00000000000E+00 -0.00000000000E+00 -0.20105992925E+03  0.20105992925E+03  0.00000000000E+00 0. -1.
         25    2    1    2    0    0 -0.55897926371E+02  0.21741699351E+02 -0.71209554317E+02  0.15593167142E+03  0.12508639360E+03 0.  0.
          5    1    3    3  502    0 -0.41616626066E+02 -0.12072913894E+01  0.29744478657E+02  0.51338168337E+02  0.41800000000E+01 0. -1.
         -5    1    3    3    0  502 -0.14281300305E+02  0.22948990741E+02 -0.10095403297E+03  0.10459350309E+03  0.41800000000E+01 0. -1.
        -11    1    1    2    0    0  0.58720517030E+02  0.13120446215E+02 -0.60082083767E+02  0.85030006580E+02  0.00000000000E+00 0.  1.
         11    1    1    2    0    0 -0.28225906590E+01 -0.34862145566E+02  0.55467729056E+01  0.35413315309E+02  0.00000000000E+00 0. -1.
</event>
<event>
 7    1  0.3151015E-009  0.1106900E+03  0.7561462E-02  0.1259298E+00
         -2   -1    0    0    0  501 -0.00000000000E+00  0.00000000000E+00  0.56406908245E+02  0.56406908245E+02  0.00000000000E+00 0.  1.
          2   -1    0    0  501    0  0.00000000000E+00 -0.00000000000E+00 -0.30893911361E+03  0.30893911361E+03  0.00000000000E+00 0. -1.
         25    2    1    2    0    0  0.93046632619E+01  0.68477823121E+02 -0.18042248783E+03  0.23015805061E+03  0.12507863578E+03 0.  0.
          5    1    3    3  502    0  0.34430493604E+02 -0.25362865004E+02 -0.36014902285E+02  0.56064956948E+02  0.41800000000E+01 0.  1.
         -5    1    3    3    0  502 -0.25125830342E+02  0.93840688125E+02 -0.14440758554E+03  0.17409309366E+03  0.41800000000E+01 0.  1.
        -11    1    1    2    0    0 -0.26377672746E+02 -0.44728987563E+02  0.55304550652E+01  0.52221163154E+02  0.00000000000E+00 0.  1.
         11    1    1    2    0    0  0.17073009484E+02 -0.23748835558E+02 -0.77640172604E+02  0.82966808094E+02  0.00000000000E+00 0. -1.
</event>
<event>
 7    1  0.3151015E-009  0.1167976E+03  0.7561462E-02  0.1248475E+00
         -2   -1    0    0    0  501 -0.00000000000E+00  0.00000000000E+00  0.18820821818E+02  0.18820821818E+02  0.00000000000E+00 0. -1.
          2   -1    0    0  501    0  0.00000000000E+00 -0.00000000000E+00 -0.79397446189E+03  0.79397446189E+03  0.00000000000E+00 0.  1.
         25    2    1    2    0    0  0.43435267224E+02 -0.14305903449E+02 -0.32440402077E+03  0.35068382381E+03  0.12509953747E+03 0.  0.
          5    1    3    3  502    0 -0.34820622014E+02 -0.37061594342E+02 -0.14085133239E+03  0.14980857028E+03  0.41800000000E+01 0.  1.
         -5    1    3    3    0  502  0.78255889239E+02  0.22755690892E+02 -0.18355268838E+03  0.20087525353E+03  0.41800000000E+01 0.  1.
        -11    1    1    2    0    0  0.27600027916E+02  0.11428643386E+02 -0.16258646845E+03  0.16530800087E+03  0.00000000000E+00 0. -1.
         11    1    1    2    0    0 -0.71035295140E+02  0.28772600633E+01 -0.28816315086E+03  0.29680345903E+03  0.00000000000E+00 0.  1.
</event>
<event>
 7    1  0.3151015E-009  0.1231546E+03  0.7561462E-02  0.1237982E+00
         -4   -1    0    0    0  501 -0.00000000000E+00  0.00000000000E+00  0.26483301754E+03  0.26483301754E+03  0.00000000000E+00 0.  1.
          4   -1    0    0  501    0  0.00000000000E+00 -0.00000000000E+00 -0.93493672915E+02  0.93493672915E+02  0.00000000000E+00 0. -1.
         25    2    1    2    0    0 -0.11253214047E+03 -0.77287227320E+01  0.74164320516E+02  0.18408185295E+03  0.12515017521E+03 0.  0.
          5    1    3    3  502    0  0.35156619021E+01  0.11052317499E+02  0.64927691270E+02  0.66087752983E+02  0.41800000000E+01 0. -1.
         -5    1    3    3    0  502 -0.11604780237E+03 -0.18781040231E+02  0.92366292458E+01  0.11799409997E+03  0.41800000000E+01 0. -1.
        -11    1    1    2    0    0  0.28609713890E+02  0.14648360766E+02  0.82799741743E+02  0.88819409110E+02  0.00000000000E+00 0.  1.
         11    1    1    2    0    0  0.83922426580E+02 -0.69196380335E+01  0.14375282370E+02  0.85425428397E+02  0.00000000000E+00 0. -1.
</event>
<event>
 7    1  0.3151015E-009  0.1369236E+03  0.7561462E-02  0.1217530E+00
         -1   -1    0    0    0  501 -0.00000000000E+00  0.00000000000E+00  0.13492470650E+03  0.13492470650E+03  0.00000000000E+00 0.  1.
          1   -1    0    0  501    0  0.00000000000E+00 -0.00000000000E+00 -0.16286881280E+03  0.16286881280E+03  0.00000000000E+00 0. -1.
         25    2    1    2    0    0 -0.50436901560E+02 -0.72170844661E+02  0.33661479747E+02  0.15662043426E+03  0.12507738945E+03 0.  0.
          5    1    3    3  502    0  0.28549115148E+02  0.13005435325E+02  0.24496366945E+02  0.40021715571E+02  0.41800000000E+01 0.  1.
         -5    1    3    3    0  502 -0.78986016707E+02 -0.85176279986E+02  0.91651128016E+01  0.11659871869E+03  0.41800000000E+01 0.  1.
        -11    1    1    2    0    0  0.59549471313E+02  0.67764530110E+01 -0.20239775136E+02  0.63259057428E+02  0.00000000000E+00 0.  1.
         11    1    1    2    0    0 -0.91125697536E+01  0.65394391650E+02 -0.41365810904E+02  0.77914027610E+02  0.00000000000E+00 0. -1.
</event>
<event>
 7    1  0.3151015E-009  0.9558366E+02  0.7561462E-02  0.1289867E+00
         -2   -1    0    0    0  501 -0.00000000000E+00  0.00000000000E+00  0.12254382753E+02  0.12254382753E+02  0.00000000000E+00 0.  1.
          2   -1    0    0  501    0  0.00000000000E+00 -0.00000000000E+00 -0.10446313263E+04  0.10446313263E+04  0.00000000000E+00 0. -1.
         25    2    1    2    0    0 -0.26965039253E+02  0.83917329242E+01 -0.49516012577E+03  0.51149949433E+03  0.12510255001E+03 0.  0.
          5    1    3    3  502    0 -0.52682833791E+02 -0.21961941226E+02 -0.43805175116E+03  0.44177439597E+03  0.41800000000E+01 0.  1.
         -5    1    3    3    0  502  0.25717794538E+02  0.30353674150E+02 -0.57108374610E+02  0.69725098357E+02  0.41800000000E+01 0.  1.
        -11    1    1    2    0    0  0.60259311280E+02 -0.49263217246E+01 -0.35818223008E+03  0.36324917507E+03  0.00000000000E+00 0.  1.
         11    1    1    2    0    0 -0.33294272027E+02 -0.34654111996E+01 -0.17903458767E+03  0.18213703964E+03  0.00000000000E+00 0. -1.
</event>
<event>
 7    1  0.3151015E-009  0.9791391E+02  0.7561462E-02  0.1284745E+00
          3   -1    0    0  501    0  0.00000000000E+00  0.00000000000E+00  0.18779641244E+04  0.18779641244E+04  0.00000000000E+00 0. -1.
         -3   -1    0    0    0  501 -0.00000000000E+00 -0.00000000000E+00 -0.20307448668E+02  0.20307448668E+02  0.00000000000E+00 0.  1.
         25    2    1    2    0    0 -0.83529269150E+02 -0.38942797719E+02  0.16248693101E+04  0.16322811047E+04  0.12509056456E+03 0.  0.
          5    1    3    3  502    0 -0.66307352096E+02 -0.44859775488E+02  0.43868265499E+03  0.44594731594E+03  0.41800000000E+01 0. -1.
         -5    1    3    3    0  502 -0.17221917054E+02  0.59169777687E+01  0.11861866551E+04  0.11863337887E+04  0.41800000000E+01 0. -1.
        -11    1    1    2    0    0  0.46042250626E+02  0.48322707692E+01  0.20077627232E+03  0.20604453696E+03  0.00000000000E+00 0. -1.
         11    1    1    2    0    0  0.37487018524E+02  0.34110526950E+02  0.32011093334E+02  0.59945931497E+02  0.00000000000E+00 0.  1.
</event>
<event>
 7    1  0.3151015E-009  0.3239543E+03  0.7561462E-02  0.1073844E+00
          2   -1    0    0  501    0  0.00000000000E+00  0.00000000000E+00  0.74505608443E+03  0.74505608443E+03  0.00000000000E+00 0. -1.
         -2   -1    0    0    0  501 -0.00000000000E+00 -0.00000000000E+00 -0.16536519354E+03  0.16536519354E+03  0.00000000000E+00 0.  1.
         25    2    1    2    0    0  0.80015631518E+02  0.29475201911E+03  0.12051507400E+03  0.35135520013E+03  0.12508133170E+03 0.  0.
          5    1    3    3  502    0  0.30121031792E+02 -0.56609874387E+00  0.13548487647E+02  0.33296110006E+02  0.41800000000E+01 0.  1.
         -5    1    3    3    0  502  0.49894599726E+02  0.29531811785E+03  0.10696658636E+03  0.31805909012E+03  0.41800000000E+01 0.  1.
        -11    1    1    2    0    0 -0.84784316600E+02 -0.14379915058E+03  0.26268087341E+03  0.31123595117E+03  0.00000000000E+00 0. -1.
         11    1    1    2    0    0  0.47686850822E+01 -0.15095286852E+03  0.19649494348E+03  0.24783012667E+03  0.00000000000E+00 0.  1.
</event>
<event>
 6    1  0.3151015E-009  0.1118088E+03  0.7561462E-02  0.1257256E+00
          3   -1    0    0  501    0  0.00000000000E+00  0.00000000000E+00  0.11014769052E+04  0.11014769052E+04  0.00000000000E+00 0. -1.
         -3   -1    0    0    0  501 -0.00000000000E+00 -0.00000000000E+00 -0.20223372249E+02  0.20223372249E+02  0.00000000000E+00 0.  1.
          5    1    1    2  502    0 -0.65490139536E+02  0.35435450404E+02  0.69727121480E+03  0.70124835038E+03  0.41800000000E+01 0. -1.
         -5    1    1    2    0  502  0.34181382672E+02  0.36850222621E+02  0.13718190323E+03  0.14615968255E+03  0.41800000000E+01 0. -1.
        -11    1    1    2    0    0  0.42442917615E+02 -0.23402987511E+02  0.44248390754E+02  0.65627899284E+02  0.00000000000E+00 0.  1.
         11    1    1    2    0    0 -0.11134160751E+02 -0.48882685515E+02  0.20255202414E+03  0.20866434521E+03  0.00000000000E+00 0. -1.
</event>
<event>
 7    1  0.3151015E-009  0.8012797E+02  0.7561462E-02  0.1328689E+00
          2   -1    0    0  501    0  0.00000000000E+00  0.00000000000E+00  0.15588815516E+03  0.15588815516E+03  0.00000000000E+00 0.  1.
         -2   -1    0    0    0  501 -0.00000000000E+00 -0.00000000000E+00 -0.74749458433E+02  0.74749458433E+02  0.00000000000E+00 0. -1.
         25    2    1    2    0    0 -0.19361905684E+01  0.39504788038E+01  0.50421553001E+02  0.13494310060E+03  0.12509177541E+03 0.  0.
          5    1    3    3  502    0 -0.44162394767E+02  0.35370455466E+02 -0.67330943384E+01  0.57133118161E+02  0.41800000000E+01 0. -1.
         -5    1    3    3    0  502  0.42226204199E+02 -0.31419976662E+02  0.57154647340E+02  0.77809982438E+02  0.41800000000E+01 0. -1.
        -11    1    1    2    0    0 -0.72986822346E+01  0.21998998747E+02  0.54550733269E+02  0.59270643733E+02  0.00000000000E+00 0.  1.
         11    1    1    2    0    0  0.92348728030E+01 -0.25949477551E+02 -0.23833589548E+02  0.36423869256E+02  0.00000000000E+00 0. -1.
</event>
<event>
 7    1  0.3151015E-009  0.1436891E+03  0.7561462E-02  0.1208449E+00
          1   -1    0    0  501    0  0.00000000000E+00  0.00000000000E+00  0.17127165726E+03  0.17127165726E+03  0.00000000000E+00 0. -1.
         -1   -1    0    0    0  501 -0.00000000000E+00 -0.00000000000E+00 -0.13201689174E+03  0.13201689174E+03  0.00000000000E+00 0.  1.
         25    2    1    2    0    0  0.61698562195E+02 -0.78639576988E+02 -0.92011197941E+01  0.16038476114E+03  0.12509082842E+03 0.  0.
          5    1    3    3  502    0 -0.87363191097E+01  0.26992090005E+02  0.12902981175E+02  0.31446073167E+02  0.41800000000E+01 0. -1.
         -5    1    3    3    0  502  0.70434881305E+02 -0.10563166699E+03 -0.22104100969E+02  0.12893868797E+03  0.41800000000E+01 0. -1.
        -11    1    1    2    0    0 -0.39438850907E+02  0.95776830948E+02  0.49484532390E+02  0.11479260975E+03  0.00000000000E+00 0. -1.
         11    1    1    2    0    0 -0.22259711288E+02 -0.17137253960E+02 -0.10286470844E+01  0.28111178110E+02  0.00000000000E+00 0.  1.
</event>
<event>
 6    1  0.3151015E-009  0.1757999E+03  0.7561462E-02  0.1171931E+00
          3   -1    0    0  501    0  0.00000000000E+00  0.00000000000E+00  0.16343251926E+03  0.16343251926E+03  0.00000000000E+00 0. -1.
         -3   -1    0    0    0  501 -0.00000000000E+00 -0.00000000000E+00 -0.20163450235E+03  0.20163450235E+03  0.00000000000E+00 0.  1.
          5    1    1    2  502    0  0.44936337287E+02 -0.87440853037E+02  0.21811277334E+02  0.10078879604E+03  0.41800000000E+01 0. -1.
         -5    1    1    2    0  502 -0.64952515186E+02 -0.55820983250E+02 -0.29077493877E+02  0.90541617227E+02  0.41800000000E+01 0. -1.
        -11    1    1    2    0    0  0.33271045866E+02  0.11763717215E+02  0.75389552668E+01  0.36085778117E+02  0.00000000000E+00 0. -1.
         11    1    1    2    0    0 -0.13254867968E+02  0.13149811907E+03 -0.38474721811E+02  0.13765083023E+03  0.00000000000E+00 0.  1.
</event>
<event>
 7    1  0.3599073E-009  0.1169130E+03  0.7561462E-02  0.1248278E+00
         -1   -1    0    0    0  501 -0.00000000000E+00  0.00000000000E+00  0.68305816486E+02  0.68305816486E+02  0.00000000000E+00 0.  1.
          1   -1    0    0  501    0  0.00000000000E+00 -0.00000000000E+00 -0.28481479173E+03  0.28481479173E+03  0.00000000000E+00 0. -1.
         25    2    1    2    0    0  0.22860324923E+02 -0.79068290099E+02 -0.15397462750E+03  0.21477792872E+03  0.12508790428E+03 0.  0.
          5    1    3    3  502    0 -0.40389736736E+01 -0.10870752216E+03 -0.10336216969E+03  0.15011611907E+03  0.41800000000E+01 0. -1.
         -5    1    3    3    0  502  0.26899298596E+02  0.29639232056E+02 -0.50612457814E+02  0.64661809655E+02  0.41800000000E+01 0. -1.
        -11    1    1    2    0    0 -0.12107554806E+02  0.12932405421E+02  0.23415037494E+02  0.29361607146E+02  0.00000000000E+00 0.  1.
         11    1    1    2    0    0 -0.10752770116E+02  0.66135884679E+02 -0.85949385229E+02  0.10898107234E+03  0.00000000000E+00 0. -1.
</event>
<event>
 7    1  0.3151015E-009  0.1196195E+03  0.7561462E-02  0.1243726E+00
         -2   -1    0    0    0  501 -0.00000000000E+00  0.00000000000E+00  0.56882500088E+02  0.56882500088E+02  0.00000000000E+00 0.  1.
          2   -1    0    0  501    0  0.00000000000E+00 -0.00000000000E+00 -0.33229904465E+03  0.33229904465E+03  0.00000000000E+00 0. -1.
         25    2    1    2    0    0  0.66163169445E+02  0.39298765274E+02 -0.20201625174E+03  0.24975720765E+03  0.12508452687E+03 0.  0.
          5    1    3    3  502    0  0.49094655642E+02 -0.29353876951E+02 -0.32261579508E+02  0.65804386001E+02  0.41800000000E+01 0. -1.
         -5    1    3    3    0  502  0.17068513803E+02  0.68652642225E+02 -0.16975467223E+03  0.18395282165E+03  0.41800000000E+01 0. -1.
        -11    1    1    2    0    0 -0.11538098463E+02  0.24469667693E+02 -0.41630941615E+02  0.49649044834E+02  0.00000000000E+00 0. -1.
         11    1    1    2    0    0 -0.54625070981E+02 -0.63768432968E+02 -0.31769351205E+02  0.89775292252E+02  0.00000000000E+00 0.  1.
</event>
<event>
 7    1  0.3151015E-009  0.1061816E+03  0.7561462E-02  0.1267809E+00
         -2   -1    0    0    0  501 -0.00000000000E+00  0.00000000000E+00  0.32932440496E+02  0.32932440496E+02  0.00000000000E+00 0.  1.
          2   -1    0    0  501    0  0.00000000000E+00 -0.00000000000E+00 -0.37357378321E+03  0.37357378321E+03  0.00000000000E+00 0. -1.
         25    2    1    2    0    0  0.84230986221E+01 -0.20562672271E+02 -0.17877616405E+03  0.21931952199E+03  0.12508542607E+03 0.  0.
          5    1    3    3  502    0  0.57958844719E+02  0.12905001864E+02 -0.12645893839E+03  0.13976803016E+03  0.41800000000E+01 0.  1.
         -5    1    3    3    0  502 -0.49535746097E+02 -0.33467674134E+02 -0.52317225653E+02  0.79551491836E+02  0.41800000000E+01 0.  1.
        -11    1    1    2    0    0  0.10771578441E+02 -0.33685798747E+02 -0.48172020897E+02  0.59760384341E+02  0.00000000000E+00 0.  1.
         11    1    1    2    0    0 -0.19194677063E+02  0.54248471018E+02 -0.11369315777E+03  0.12742631737E+03  0.00000000000E+00 0. -1.
</event>
<event>
 7    1  0.3151015E-009  0.1324515E+03  0.7561462E-02  0.1223863E+00
          1   -1    0    0  501    0  0.00000000000E+00  0.00000000000E+00  0.38049016923E+02  0.38049016923E+02  0.00000000000E+00 0. -1.
         -1   -1    0    0    0  501 -0.00000000000E+00 -0.00000000000E+00 -0.55655974755E+03  0.55655974755E+03  0.00000000000E+00 0.  1.
         25    2    1    2    0    0  0.77767900595E+02 -0.55768943843E+01 -0.16556635485E+03  0.22167373611E+03  0.12509228317E+03 0.  0.
          5    1    3    3  502    0  0.88088436784E+02  0.41624944219E+02 -0.95754860426E+02  0.13666994685E+03  0.41800000000E+01 0. -1.
         -5    1    3    3    0  502 -0.10320536189E+02 -0.47201838604E+02 -0.69811494426E+02  0.85003789261E+02  0.41800000000E+01 0. -1.
        -11    1    1    2    0    0  0.19746579780E+02 -0.61232597897E+01 -0.41377595924E+02  0.46255023164E+02  0.00000000000E+00 0.  1.
         11    1    1    2    0    0 -0.97514480375E+02  0.11700154174E+02 -0.31156677985E+03  0.32668000520E+03  0.00000000000E+00 0. -1.
</event>
<event>
 7    1  0.3151015E-009  0.9329518E+02  0.7561462E-02  0.1295063E+00
          3   -1    0    0  501    0  0.00000000000E+00  0.00000000000E+00  0.16926832138E+03  0.16926832138E+03  0.00000000000E+00 0. -1.
         -3   -1    0    0    0  501 -0.00000000000E+00 -0.00000000000E+00 -0.73419768588E+02  0.73419768588E+02  0.00000000000E+00 0.  1.
         25    2    1    2    0    0 -0.31745211553E+02  0.24085152112E+01  0.59751374359E+02  0.14223777092E+03  0.12509115611E+03 0.  0.
          5    1    3    3  502    0 -0.56117379653E+02  0.27187622329E+02 -0.10852594882E+02  0.63431682326E+02  0.41800000000E+01 0. -1.
         -5    1    3    3    0  502  0.24372168100E+02 -0.24779107118E+02  0.70603969241E+02  0.78806088597E+02  0.41800000000E+01 0. -1.
        -11    1    1    2    0    0 -0.96709289275E+01 -0.35046493537E+02  0.30439806736E+02  0.47416931677E+02  0.00000000000E+00 0. -1.
         11    1    1    2    0    0  0.41416140480E+02  0.32637978326E+02  0.56573717010E+01  0.53033387371E+02  0.00000000000E+00 0.  1.
</event>
<event>
 7    1  0.3151015E-009  0.1056800E+03  0.7561462E-02  0.1268786E+00
          4   -1    0    0  501    0  0.00000000000E+00  0.00000000000E+00  0.57527303051E+02  0.57527303051E+02  0.00000000000E+00 0. -1.
         -4   -1    0    0    0  501 -0.00000000000E+00 -0.00000000000E+00 -0.22597012196E+03  0.22597012196E+03  0.00000000000E+00 0.  1.
         25    2    1    2    0    0  0.42786666023E+01  0.33279991058E+02 -0.11114062977E+03  0.17066543117E+03  0.12509430450E+03 0.  0.
          5    1    3    3  502    0 -0.28149100544E+02 -0.32906216649E+02 -0.86499484793E+01  0.44356340745E+02  0.41800000000E+01 0. -1.
         -5    1    3    3    0  502  0.32427767146E+02  0.66186207707E+02 -0.10249068129E+03  0.12630909042E+03  0.41800000000E+01 0. -1.
        -11    1    1    2    0    0  0.33499805957E+02  0.11525408682E+02 -0.35907729373E+02  0.50442413435E+02  0.00000000000E+00 0. -1.
         11    1    1    2    0    0 -0.37778472559E+02 -0.44805399741E+02 -0.21394459772E+02  0.62389580410E+02  0.00000000000E+00 0.  1.
</event>
<event>
 7    1  0.3151015E-009  0.1124245E+03  0.7561462E-02  0.1256145E+00
         -2   -1    0    0    0  501 -0.00000000000E+00  0.00000000000E+00  0.22978236698E+02  0.22978236698E+02  0.00000000000E+00 0.  1.
          2   -1    0    0  501    0  0.00000000000E+00 -0.00000000000E+00 -0.11023791403E+04  0.11023791403E+04  0.00000000000E+00 0. -1.
         25    2    1    2    0    0  0.10562389107E+02  0.92026338551E+02 -0.82426342443E+03  0.83883142347E+03  0.12509017981E+03 0.  0.
          5    1    3    3  502    0 -0.37741427338E+01  0.88076015452E+02 -0.26412435429E+03  0.27847939885E+03  0.41800000000E+01 0. -1.
         -5    1    3    3    0  502  0.14336531841E+02  0.39503230993E+01 -0.56013907014E+03  0.56035202462E+03  0.41800000000E+01 0. -1.
        -11    1    1    2    0    0 -0.88043218750E+00  0.14326414687E+02 -0.80912753668E+02  0.82176000297E+02  0.00000000000E+00 0. -1.
         11    1    1    2    0    0 -0.96819569200E+01 -0.10635275324E+03 -0.17422472550E+03  0.20434995324E+03  0.00000000000E+00 0.  1.
</event>
<event>
 7    1  0.3151015E-009  0.5018724E+02  0.7561462E-02  0.1444334E+00
         -1   -1    0    0    0  501 -0.00000000000E+00  0.00000000000E+00  0.16376642308E+02  0.16376642308E+02  0.00000000000E+00 0.  1.
          1   -1    0    0  501    0  0.00000000000E+00 -0.00000000000E+00 -0.74623974644E+03  0.74623974644E+03  0.00000000000E+00 0. -1.
         25    2    1    2    0    0 -0.38129435460E+01  0.35241922360E+01 -0.48200229317E+03  0.49799662262E+03  0.12508983592E+03 0.  0.
          5    1    3    3  502    0 -0.59356861492E+01  0.61449158467E+01 -0.48904619545E+03  0.48913867772E+03  0.41800000000E+01 0. -1.
         -5    1    3    3    0  502  0.21227426031E+01 -0.26207236107E+01  0.70439022822E+01  0.88579448951E+01  0.41800000000E+01 0. -1.
        -11    1    1    2    0    0  0.21795369811E+02 -0.39589455294E+02 -0.78965053661E+02  0.90982651177E+02  0.00000000000E+00 0.  1.
         11    1    1    2    0    0 -0.17982426265E+02  0.36065263058E+02 -0.16889575731E+03  0.17363711496E+03  0.00000000000E+00 0. -1.
</event>
<event>
 7    1  0.3151015E-009  0.1086547E+03  0.7561462E-02  0.1263082E+00
          1   -1    0    0  501    0  0.00000000000E+00  0.00000000000E+00  0.47106202159E+02  0.47106202159E+02  0.00000000000E+00 0. -1.
         -1   -1    0    0    0  501 -0.00000000000E+00 -0.00000000000E+00 -0.28087121683E+03  0.28087121683E+03  0.00000000000E+00 0.  1.
         25    2    1    2    0    0  0.10127630809E+02  0.22065561111E+02 -0.88747421000E+02  0.15528499008E+03  0.12509142863E+03 0.  0.
          5    1    3    3  502    0 -0.32172812478E+02 -0.39865820974E+02 -0.27065116756E+02  0.58089297549E+02  0.41800000000E+01 0.  1.
         -5    1    3    3    0  502  0.42300443288E+02  0.61931382085E+02 -0.61682304244E+02  0.97195692529E+02  0.41800000000E+01 0.  1.
        -11    1    1    2    0    0  0.87571842807E+00 -0.55546131753E+02 -0.10877593695E+03  0.12214067338E+03  0.00000000000E+00 0.  1.
         11    1    1    2    0    0 -0.11003349237E+02  0.33480570642E+02 -0.36241656724E+02  0.50551755529E+02  0.00000000000E+00 0. -1.
</event>
<event>
 7    1  0.3151015E-009  0.1910777E+03  0.7561462E-02  0.1157493E+00
          1   -1    0    0  501    0  0.00000000000E+00  0.00000000000E+00  0.57769623911E+02  0.57769623911E+02  0.00000000000E+00 0. -1.
         -1   -1    0    0    0  501 -0.00000000000E+00 -0.00000000000E+00 -0.16884354097E+04  0.16884354097E+04  0.00000000000E+00 0.  1.
         25    2    1    2    0    0  0.13381176202E+03  0.90152545156E+02 -0.15118573019E+04  0.15255795597E+04  0.12508965861E+03 0.  0.
          5    1    3    3  502    0  0.79283426711E+02  0.11220647089E+03 -0.84351694806E+03  0.85464288912E+03  0.41800000000E+01 0.  1.
         -5    1    3    3    0  502  0.54528335312E+02 -0.22053925729E+02 -0.66834035383E+03  0.67093667059E+03  0.41800000000E+01 0.  1.
        -11    1    1    2    0    0 -0.17354961822E+02 -0.64087096863E+02 -0.37980648574E+02  0.76491047517E+02  0.00000000000E+00 0.  1.
         11    1    1    2    0    0 -0.11645680020E+03 -0.26065448293E+02 -0.80827835354E+02  0.14413442641E+03  0.00000000000E+00 0. -1.
</event>
<event>
 7    1  0.3151015E-009  0.1328883E+03  0.7561462E-02  0.1223232E+00
         -1   -1    0    0    0  501 -0.00000000000E+00  0.00000000000E+00  0.29515417683E+02  0.29515417683E+02  0.00000000000E+00 0.  1.
          1   -1    0    0  501    0  0.00000000000E+00 -0.00000000000E+00 -0.73705400512E+03  0.73705400512E+03  0.00000000000E+00 0. -1.
         25    2    1    2    0    0 -0.88845835547E+02  0.23992192071E+02 -0.48097496086E+03  0.50542474925E+03  0.12509219162E+03 0.  0.
          5    1    3    3  502    0 -0.10445967471E+03 -0.21297881436E+02 -0.35004568173E+03  0.36594381412E+03  0.41800000000E+01 0. -1.
         -5    1    3    3    0  502  0.15613839160E+02  0.45290073507E+02 -0.13092927913E+03  0.13948093513E+03  0.41800000000E+01 0. -1.
        -11    1    1    2    0    0 -0.19869163865E+01 -0.19978019464E+02 -0.11727150126E+03  0.11897762019E+03  0.00000000000E+00 0. -1.
         11    1    1    2    0    0  0.90832751934E+02 -0.40141726069E+01 -0.10929212531E+03  0.14216705336E+03  0.00000000000E+00 0.  1.
</event>
<event>
 7    1  0.3151015E-009  0.1028566E+03  0.7561462E-02  0.1274401E+00
          1   -1    0    0  501    0  0.00000000000E+00  0.00000000000E+00  0.22628668323E+03  0.22628668323E+03  0.00000000000E+00 0. -1.
         -1   -1    0    0    0  501 -0.00000000000E+00 -0.00000000000E+00 -0.20922393815E+03  0.20922393815E+03  0.00000000000E+00 0.  1.
         25    2    1    2    0    0 -0.38320314035E+02 -0.59699719869E+02 -0.16594148844E+03  0.21958361915E+03  0.12509150728E+03 0.  0.
          5    1    3    3  502    0 -0.61492523197E+02 -0.13996481474E+02 -0.15447985896E+03  0.16690935003E+03  0.41800000000E+01 0. -1.
         -5    1    3    3    0  502  0.23172209162E+02 -0.45703238395E+02 -0.11461629479E+02  0.52674269122E+02  0.41800000000E+01 0. -1.
        -11    1    1    2    0    0 -0.32838626824E+01 -0.96676647965E+01 -0.49202522177E+01  0.11333859829E+02  0.00000000000E+00 0.  1.
         11    1    1    2    0    0  0.41604176717E+02  0.69367384665E+02  0.18792448574E+03  0.20459314239E+03  0.00000000000E+00 0. -1.
</event>
<event>
 7    1  0.3151015E-009  0.1242084E+03  0.7561462E-02  0.1236312E+00
         -3   -1    0    0    0  501 -0.00000000000E+00  0.00000000000E+00  0.21143083346E+03  0.21143083346E+03  0.00000000000E+00 0.  1.
          3   -1    0    0  501    0  0.00000000000E+00 -0.00000000000E+00 -0.11377203709E+03  0.11377203709E+03  0.00000000000E+00 0. -1.
         25    2    1    2    0    0 -0.37548699000E+02  0.99935016668E+02  0.10517276508E+03  0.19520477353E+03  0.12508669291E+03 0.  0.
          5    1    3    3  502    0  0.12684165582E+02  0.24910518577E+02 -0.24320009318E+02  0.37287494492E+02  0.41800000000E+01 0. -1.
         -5    1    3    3    0  502 -0.50232864582E+02  0.75024498090E+02  0.12949277440E+03  0.15791727904E+03  0.41800000000E+01 0. -1.
        -11    1    1    2    0    0 -0.45431213892E+01  0.10576387113E+02 -0.12073691136E+01  0.11574007798E+02  0.00000000000E+00 0.  1.
         11    1    1    2    0    0  0.42091820389E+02 -0.11051140378E+03 -0.63065995933E+01  0.11842408922E+03  0.00000000000E+00 0. -1.
</event>
<event>
 7    1  0.3151015E-009  0.2022247E+03  0.7561462E-02  0.1147876E+00
         -1   -1    0    0    0  501 -0.00000000000E+00  0.00000000000E+00  0.39542973853E+02  0.39542973853E+02  0.00000000000E+00 0.  1.
          1   -1    0    0  501    0  0.00000000000E+00 -0.00000000000E+00 -0.12762975692E+04  0.12762975692E+04  0.00000000000E+00 0. -1.
         25    2    1    2    0    0  0.10549228900E+03 -0.16360178401E+03 -0.71985115487E+03  0.75613343443E+03  0.12513160557E+03 0.  0.
          5    1    3    3  502    0  0.79311504924E+02 -0.13163202448E+03 -0.32973955271E+03  0.36381719270E+03  0.41800000000E+01 0.  1.
         -5    1    3    3    0  502  0.26180784075E+02 -0.31969759527E+02 -0.39011160216E+03  0.39231624172E+03  0.41800000000E+01 0.  1.
        -11    1    1    2    0    0 -0.49483340455E+02  0.17128513884E+02 -0.80977907784E+02  0.96433440878E+02  0.00000000000E+00 0.  1.
         11    1    1    2    0    0 -0.56008948544E+02  0.14647327013E+03 -0.43592553270E+03  0.46327366776E+03  0.00000000000E+00 0. -1.
</event>
<event>
 7    1  0.3151015E-009  0.1191573E+03  0.7561462E-02  0.1244494E+00
         -2   -1    0    0    0  501 -0.00000000000E+00  0.00000000000E+00  0.54145317671E+02  0.54145317671E+02  0.00000000000E+00 0.  1.
          2   -1    0    0  501    0  0.00000000000E+00 -0.00000000000E+00 -0.43164048023E+03  0.43164048023E+03  0.00000000000E+00 0. -1.
         25    2    1    2    0    0 -0.35979580589E+02  0.10736437581E+03 -0.15947736854E+03  0.23216673783E+03  0.12508686450E+03 0.  0.
          5    1    3    3  502    0 -0.38370084444E+02  0.10781322238E+03 -0.17875630910E+03  0.21229047257E+03  0.41800000000E+01 0. -1.
         -5    1    3    3    0  502  0.23905038555E+01 -0.44884657688E+00  0.19278940559E+02  0.19876265268E+02  0.41800000000E+01 0. -1.
        -11    1    1    2    0    0  0.20860233371E+00 -0.58010062255E+02 -0.56482048965E+02  0.80965626614E+02  0.00000000000E+00 0.  1.
         11    1    1    2    0    0  0.35770978255E+02 -0.49354313553E+02 -0.16153574506E+03  0.17265343345E+03  0.00000000000E+00 0. -1.
</event>
<event>
 7    1  0.3151015E-009  0.9668123E+02  0.7561462E-02  0.1287434E+00
         -1   -1    0    0    0  501 -0.00000000000E+00  0.00000000000E+00  0.25106100516E+03  0.25106100516E+03  0.00000000000E+00 0.  1.
          1   -1    0    0  501    0  0.00000000000E+00 -0.00000000000E+00 -0.61649197971E+02  0.61649197971E+02  0.00000000000E+00 0. -1.
         25    2    1    2    0    0 -0.85288848402E+01  0.52056801719E+02  0.83458617909E+02  0.15936597589E+03  0.12509804509E+03 0.  0.
          5    1    3    3  502    0  0.16351842886E+00  0.77879976648E+02  0.72539737210E+01  0.78328858256E+02  0.41800000000E+01 0.  1.
         -5    1    3    3    0  502 -0.86924032691E+01 -0.25823174929E+02  0.76204644188E+02  0.81037117630E+02  0.41800000000E+01 0.  1.
        -11    1    1    2    0    0 -0.30248068619E+02 -0.32417665571E+02  0.10010681250E+03  0.10948618454E+03  0.00000000000E+00 0.  1.
         11    1    1    2    0    0  0.38776953459E+02 -0.19639136148E+02  0.58463767782E+01  0.43858042702E+02  0.00000000000E+00 0. -1.
</event>
<event>
 7    1  0.3151015E-009  0.1147717E+03  0.7561462E-02  0.1251980E+00
         -2   -1    0    0    0  501 -0.00000000000E+00  0.00000000000E+00  0.15908472474E+03  0.15908472474E+03  0.00000000000E+00 0.  1.
          2   -1    0    0  501    0  0.00000000000E+00 -0.00000000000E+00 -0.10158317464E+03  0.10158317464E+03  0.00000000000E+00 0. -1.
         25    2    1    2    0    0 -0.27609398565E+02  0.55574196659E+02  0.72886739196E+01  0.13982597657E+03  0.12508960281E+03 0.  0.
          5    1    3    3  502    0 -0.69406688488E+02  0.22744018816E+02  0.33447118818E+02  0.80441040247E+02  0.41800000000E+01 0. -1.
         -5    1    3    3    0  502  0.41797289923E+02  0.32830177843E+02 -0.26158444898E+02  0.59384936319E+02  0.41800000000E+01 0. -1.
        -11    1    1    2    0    0  0.48035984712E+02 -0.47178843194E+01  0.44655253606E+02  0.65755653250E+02  0.00000000000E+00 0.  1.
         11    1    1    2    0    0 -0.20426586147E+02 -0.50856312339E+02  0.55576225697E+01  0.55086269569E+02  0.00000000000E+00 0. -1.
</event>
<event>
 7    1  0.3151015E-009  0.6270247E+02  0.7561462E-02  0.1386828E+00
          2   -1    0    0  501    0  0.00000000000E+00  0.00000000000E+00  0.58042182654E+03  0.58042182654E+03  0.00000000000E+00 0. -1.
         -2   -1    0    0    0  501 -0.00000000000E+00 -0.00000000000E+00 -0.25185694745E+02  0.25185694745E+02  0.00000000000E+00 0.  1.
         25    2    1    2    0    0 -0.12786888365E+02  0.36439474240E+02  0.41106254121E+03  0.43140521452E+03  0.12508679600E+03 0.  0.
          5    1    3    3  502    0 -0.22230835836E+02  0.35080605542E+02  0.33029160221E+02  0.53228345570E+02  0.41800000000E+01 0.  1.
         -5    1    3    3    0  502  0.94439474716E+01  0.13588686982E+01  0.37803338098E+03  0.37817686895E+03  0.41800000000E+01 0.  1.
        -11    1    1    2    0    0  0.34278749148E+02 -0.38627432094E+02  0.14358627343E+03  0.15259137942E+03  0.00000000000E+00 0. -1.
         11    1    1    2    0    0 -0.21491860784E+02  0.21879578544E+01  0.58731715413E+00  0.21610927351E+02  0.00000000000E+00 0.  1.
</event>
<event>
 7    1  0.3151015E-009  0.1412429E+03  0.7561462E-02  0.1211666E+00
         -2   -1    0    0    0  501 -0.00000000000E+00  0.00000000000E+00  0.82105469456E+03  0.82105469456E+03  0.00000000000E+00 0.  1.
          2   -1    0    0  501    0  0.00000000000E+00 -0.00000000000E+00 -0.61230865300E+02  0.61230865300E+02  0.00000000000E+00 0. -1.
         25    2    1    2    0    0  0.12778947383E+03  0.60900979593E+01  0.10177422424E+03  0.20584547132E+03  0.12508847441E+03 0.  0.
          5    1    3    3  502    0  0.65586805249E+02  0.12049046801E+02 -0.19287978512E+02  0.69543562366E+02  0.41800000000E+01 0.  1.
         -5    1    3    3    0  502  0.62202668579E+02 -0.59589488420E+01  0.12106220276E+03  0.13630190896E+03  0.41800000000E+01 0.  1.
        -11    1    1    2    0    0 -0.38593201361E+02 -0.41865708496E+02  0.31861529199E+03  0.32366321544E+03  0.00000000000E+00 0. -1.
         11    1    1    2    0    0 -0.89196272467E+02  0.35775610537E+02  0.33943431302E+03  0.35277687309E+03  0.00000000000E+00 0.  1.
</event>
<event>
 7    1  0.3151015E-009  0.7079625E+02  0.7561462E-02  0.1357406E+00
         -1   -1    0    0    0  501 -0.00000000000E+00  0.00000000000E+00  0.98898762178E+02  0.98898762178E+02  0.00000000000E+00 0.  1.
          1   -1    0    0  501    0  0.00000000000E+00 -0.00000000000E+00 -0.14292213679E+03  0.14292213679E+03  0.00000000000E+00 0. -1.
         25    2    1    2    0    0 -0.29675644955E+01  0.40008007645E+02 -0.52997750041E+02  0.14165803785E+03  0.12509512805E+03 0.  0.
          5    1    3    3  502    0 -0.63722504285E+01  0.18822067243E+02  0.40678236041E+02  0.45465009383E+02  0.41800000000E+01 0.  1.
         -5    1    3    3    0  502  0.34046859330E+01  0.21185940402E+02 -0.93675986081E+02  0.96193028465E+02  0.41800000000E+01 0.  1.
        -11    1    1    2    0    0  0.14464807056E+02  0.27431996675E+02 -0.99104011594E+00  0.31027846288E+02  0.00000000000E+00 0. -1.
         11    1    1    2    0    0 -0.11497242560E+02 -0.67440004320E+02  0.99654155430E+01  0.69135014834E+02  0.00000000000E+00 0.  1.
</event>
<event>
 7    1  0.3151015E-009  0.8113590E+02  0.7561462E-02  0.1325858E+00
         -2   -1    0    0    0  501 -0.00000000000E+00  0.00000000000E+00  0.11792894086E+03  0.11792894086E+03  0.00000000000E+00 0. -1.
          2   -1    0    0  501    0  0.00000000000E+00 -0.00000000000E+00 -0.11007463321E+03  0.11007463321E+03  0.00000000000E+00 0.  1.
         25    2    1    2    0    0  0.12700267145E+02  0.31690816594E+02 -0.66823610426E+01  0.12984547867E+03  0.12509832030E+03 0.  0.
          5    1    3    3  502    0 -0.43992485105E+02  0.24796756342E+02 -0.39135372019E+02  0.64025523144E+02  0.41800000000E+01 0. -1.
         -5    1    3    3    0  502  0.56692752250E+02  0.68940602524E+01  0.32453010976E+02  0.65819955529E+02  0.41800000000E+01 0. -1.
        -11    1    1    2    0    0  0.35030974612E+01  0.94720374634E+01 -0.32235112689E+02  0.33780078088E+02  0.00000000000E+00 0.  1.
         11    1    1    2    0    0 -0.16203364606E+02 -0.41162854058E+02  0.46771781378E+02  0.64378017304E+02  0.00000000000E+00 0. -1.
</event>
<event>
 7    1  0.3151015E-009  0.8993833E+02  0.7561462E-02  0.1303001E+00
          1   -1    0    0  501    0  0.00000000000E+00  0.00000000000E+00  0.13762281590E+03  0.13762281590E+03  0.00000000000E+00 0. -1.
         -1   -1    0    0    0  501 -0.00000000000E+00 -0.00000000000E+00 -0.13890224268E+03  0.13890224268E+03  0.00000000000E+00 0.  1.
         25    2    1    2    0    0 -0.45321544971E+02  0.21814647729E+02 -0.70529617480E+02  0.15215565379E+03  0.12508794804E+03 0.  0.
          5    1    3    3  502    0 -0.11883162455E+02 -0.20337973954E+02  0.29810813995E+02  0.38223026641E+02  0.41800000000E+01 0. -1.
         -5    1    3    3    0  502 -0.33438382515E+02  0.42152621684E+02 -0.10034043148E+03  0.11393262715E+03  0.41800000000E+01 0. -1.
        -11    1    1    2    0    0  0.12899592855E+02  0.34595835271E+02  0.15780447323E+02  0.40153378832E+02  0.00000000000E+00 0. -1.
         11    1    1    2    0    0  0.32421952116E+02 -0.56410483000E+02  0.53469743378E+02  0.84216025958E+02  0.00000000000E+00 0.  1.
</event>
<event>
 7    1  0.3151015E-009  0.1178103E+03  0.7561462E-02  0.1246754E+00
          2   -1    0    0  501    0  0.00000000000E+00  0.00000000000E+00  0.19760061042E+03  0.19760061042E+03  0.00000000000E+00 0. -1.
         -2   -1    0    0    0  501 -0.00000000000E+00 -0.00000000000E+00 -0.77459746826E+02  0.77459746826E+02  0.00000000000E+00 0.  1.
         25    2    1    2    0    0  0.40054171703E+02  0.33511153300E+02  0.40582808968E+02  0.14149448028E+03  0.12508552874E+03 0.  0.
          5    1    3    3  502    0 -0.12496119989E+02  0.69420273594E+02  0.30317299742E+02  0.76889130989E+02  0.41800000000E+01 0.  1.
         -5    1    3    3    0  502  0.52550291692E+02 -0.35909120294E+02  0.10265509226E+02  0.64605349290E+02  0.41800000000E+01 0.  1.
        -11    1    1    2    0    0 -0.67259541936E+02 -0.30342512204E+02  0.76033143355E+02  0.10595070984E+03  0.00000000000E+00 0. -1.
         11    1    1    2    0    0  0.27205370232E+02 -0.31686410964E+01  0.35249112742E+01  0.27615167125E+02  0.00000000000E+00 0.  1.
</event>
<event>
 7    1  0.3151015E-009  0.1593527E+03  0.7561462E-02  0.1189430E+00
         -3   -1    0    0    0  501 -0.00000000000E+00  0.00000000000E+00  0.49513539535E+03  0.49513539535E+03  0.00000000000E+00 0.  1.
          3   -1    0    0  501    0  0.00000000000E+00 -0.00000000000E+00 -0.59719274525E+02  0.59719274525E+02  0.00000000000E+00 0. -1.
         25    2    1    2    0    0  0.10453536543E+03  0.52212490560E+02  0.33416967445E+03  0.37546063790E+03  0.12509009749E+03 0.  0.
          5    1    3    3  502    0  0.44280871450E+02 -0.40655896227E+02  0.11067957545E+03  0.12602038841E+03  0.41800000000E+01 0. -1.
         -5    1    3    3    0  502  0.60254493978E+02  0.92868386787E+02  0.22349009900E+03  0.24944024948E+03  0.41800000000E+01 0. -1.
        -11    1    1    2    0    0 -0.12007158317E+03 -0.36332021756E+02  0.90696389518E+02  0.15479998695E+03  0.00000000000E+00 0. -1.
         11    1    1    2    0    0  0.15536217741E+02 -0.15880468804E+02  0.10550056856E+02  0.24594045027E+02  0.00000000000E+00 0.  1.
</event>
<event>
 7    1  0.3151015E-009  0.1287132E+03  0.7561462E-02  0.1229378E+00
         -1   -1    0    0    0  501 -0.00000000000E+00  0.00000000000E+00  0.53971540980E+02  0.53971540980E+02  0.00000000000E+00 0.  1.
          1   -1    0    0  501    0  0.00000000000E+00 -0.00000000000E+00 -0.52946954313E+03  0.52946954313E+03  0.00000000000E+00 0. -1.
         25    2    1    2    0    0  0.83069236873E+02  0.94976587327E+02 -0.30355493698E+03  0.35172792740E+03  0.12508351170E+03 0.  0.
          5    1    3    3  502    0  0.52491111265E+02  0.82076319805E+02 -0.81273386229E+02  0.12694358883E+03  0.41800000000E+01 0. -1.
         -5    1    3    3    0  502  0.30578125608E+02  0.12900267522E+02 -0.22228155075E+03  0.22478433858E+03  0.41800000000E+01 0. -1.
        -11    1    1    2    0    0 -0.69284046148E+02 -0.74115485376E+02 -0.61863823711E+02  0.11882978123E+03  0.00000000000E+00 0.  1.
         11    1    1    2    0    0 -0.13785190725E+02 -0.20861101951E+02 -0.11007924146E+03  0.11288337548E+03  0.00000000000E+00 0. -1.
</event>
<event>
 7    1  0.3151015E-009  0.1084214E+03  0.7561462E-02  0.1263521E+00
         -2   -1    0    0    0  501 -0.00000000000E+00  0.00000000000E+00  0.17949784975E+02  0.17949784975E+02  0.00000000000E+00 0.  1.
          2   -1    0    0  501    0  0.00000000000E+00 -0.00000000000E+00 -0.10064978049E+04  0.10064978049E+04  0.00000000000E+00 0. -1.
         25    2    1    2    0    0  0.36861736350E+02  0.67766703382E+02 -0.45246761064E+03  0.47573758580E+03  0.12509275827E+03 0.  0.
          5    1    3    3  502    0 -0.87109597635E+01  0.61351053302E+02 -0.84444543644E+02  0.10482454823E+03  0.41800000000E+01 0. -1.
         -5    1    3    3    0  502  0.45572696113E+02  0.64156500804E+01 -0.36802306699E+03  0.37091303756E+03  0.41800000000E+01 0. -1.
        -11    1    1    2    0    0  0.23022757269E+02 -0.92970189727E+01 -0.54214610675E+02  0.59629740270E+02  0.00000000000E+00 0.  1.
         11    1    1    2    0    0 -0.59884493619E+02 -0.58469684409E+02 -0.48186579866E+03  0.48908026385E+03  0.00000000000E+00 0. -1.
</event>
<event>
 7    1  0.3151015E-009  0.3062847E+03  0.7561462E-02  0.1082141E+00
         -1   -1    0    0    0  501 -0.00000000000E+00  0.00000000000E+00  0.13669937901E+03  0.13669937901E+03  0.00000000000E+00 0.  1.
          1   -1    0    0  501    0  0.00000000000E+00 -0.00000000000E+00 -0.73540639309E+03  0.73540639309E+03  0.00000000000E+00 0. -1.
         25    2    1    2    0    0  0.27817344997E+03  0.97534931554E+02 -0.25098608428E+03  0.40685965042E+03  0.12508888638E+03 0.  0.
          5    1    3    3  502    0  0.11660845037E+03  0.29856494934E+01 -0.16167683981E+03  0.19940741645E+03  0.41800000000E+01 0.  1.
         -5    1    3    3    0  502  0.16156499960E+03  0.94549282060E+02 -0.89309244465E+02  0.20745223397E+03  0.41800000000E+01 0.  1.
        -11    1    1    2    0    0 -0.28318915405E+03 -0.85894782659E+02 -0.32764026289E+03  0.44149988961E+03  0.00000000000E+00 0. -1.
         11    1    1    2    0    0  0.50157040739E+01 -0.11640148895E+02 -0.20080666911E+02  0.23746232064E+02  0.00000000000E+00 0.  1.
</event>
<event>
 7    1  0.3151015E-009  0.1232078E+03  0.7561462E-02  0.1237897E+00
         -1   -1    0    0    0  501 -0.00000000000E+00  0.00000000000E+00  0.12679265749E+03  0.12679265749E+03  0.00000000000E+00 0. -1.
          1   -1    0    0  501    0  0.00000000000E+00 -0.00000000000E+00 -0.13447349582E+03  0.13447349582E+03  0.00000000000E+00 0.  1.
         25    2    1    2    0    0 -0.63600989407E+02  0.15724724714E+02 -0.33135707107E+02  0.14504402453E+03  0.12508973237E+03 0.  0.
          5    1    3    3  502    0 -0.85360354292E+02  0.50501015941E+02 -0.29940447548E+02  0.10368531957E+03  0.41800000000E+01 0. -1.
         -5    1    3    3    0  502  0.21759364885E+02 -0.34776291227E+02 -0.31952595590E+01  0.41358704953E+02  0.41800000000E+01 0. -1.
        -11    1    1    2    0    0  0.28416031335E+02  0.34432856191E+02 -0.95574798436E+01  0.45655644156E+02  0.00000000000E+00 0.  1.
         11    1    1    2    0    0  0.35184958072E+02 -0.50157580905E+02  0.35012348614E+02  0.70566484625E+02  0.00000000000E+00 0. -1.
</event>
<event>
 7    1  0.3151015E-009  0.1034261E+03  0.7561462E-02  0.1273252E+00
          1   -1    0    0  501    0  0.00000000000E+00  0.00000000000E+00  0.12887850467E+03  0.12887850467E+03  0.00000000000E+00 0. -1.
         -1   -1    0    0    0  501 -0.00000000000E+00 -0.00000000000E+00 -0.12740846471E+03  0.12740846471E+03  0.00000000000E+00 0.  1.
         25    2    1    2    0    0 -0.51845905515E+02  0.22826653966E+01  0.54019573494E+02  0.14580400359E+03  0.12508990631E+03 0.  0.
          5    1    3    3  502    0 -0.56555297307E+01 -0.43759165817E+02 -0.18637831737E+02  0.48080045563E+02  0.41800000000E+01 0. -1.
         -5    1    3    3    0  502 -0.46190375785E+02  0.46041831213E+02  0.72657405231E+02  0.97723958022E+02  0.41800000000E+01 0. -1.
        -11    1    1    2    0    0 -0.54069727978E+01  0.30654985207E+02 -0.16259513007E+02  0.35118872934E+02  0.00000000000E+00 0.  1.
         11    1    1    2    0    0  0.57252878313E+02 -0.32937650604E+02 -0.36290020529E+02  0.75364092859E+02  0.00000000000E+00 0. -1.
</event>
<event>
 7    1  0.3151015E-009  0.2019849E+03  0.7561462E-02  0.1148075E+00
         -1   -1    0    0    0  501 -0.00000000000E+00  0.00000000000E+00  0.83645980909E+02  0.83645980909E+02  0.00000000000E+00 0.  1.
          1   -1    0    0  501    0  0.00000000000E+00 -0.00000000000E+00 -0.60608176069E+03  0.60608176069E+03  0.00000000000E+00 0. -1.
         25    2    1    2    0    0  0.13579760246E+03 -0.12892867941E+03 -0.36092577870E+03  0.42541739053E+03  0.12509574422E+03 0.  0.
          5    1    3    3  502    0  0.92338892232E+02 -0.26003933868E+02 -0.87073327554E+02  0.12962219087E+03  0.41800000000E+01 0. -1.
         -5    1    3    3    0  502  0.43458710233E+02 -0.10292474554E+03 -0.27385245115E+03  0.29579519965E+03  0.41800000000E+01 0. -1.
        -11    1    1    2    0    0 -0.39452941143E+02  0.77429470327E+02 -0.11839616987E+03  0.14686562048E+03  0.00000000000E+00 0. -1.
         11    1    1    2    0    0 -0.96344661322E+02  0.51499209080E+02 -0.43113831207E+02  0.11744473059E+03  0.00000000000E+00 0.  1.
</event>
<event>
 7    1  0.3151015E-009  0.1057150E+03  0.7561462E-02  0.1268717E+00
         -2   -1    0    0    0  501 -0.00000000000E+00  0.00000000000E+00  0.57200688490E+02  0.57200688490E+02  0.00000000000E+00 0.  1.
          2   -1    0    0  501    0  0.00000000000E+00 -0.00000000000E+00 -0.21898278394E+03  0.21898278394E+03  0.00000000000E+00 0. -1.
         25    2    1    2    0    0 -0.17714363544E+02  0.19883920247E+02 -0.77790638606E+02  0.14969243505E+03  0.12508905906E+03 0.  0.
          5    1    3    3  502    0 -0.34897176996E+02  0.61948604953E+02 -0.16205707330E+02  0.73044780566E+02  0.41800000000E+01 0. -1.
         -5    1    3    3    0  502  0.17182813452E+02 -0.42064684705E+02 -0.61584931276E+02  0.76647654483E+02  0.41800000000E+01 0. -1.
        -11    1    1    2    0    0 -0.18477771790E+02 -0.46245180254E+02 -0.43556649831E+02  0.66160611330E+02  0.00000000000E+00 0.  1.
         11    1    1    2    0    0  0.36192135334E+02  0.26361260006E+02 -0.40434807011E+02  0.60330426049E+02  0.00000000000E+00 0. -1.
</event>
<event>
 7    1  0.3151015E-009  0.1196141E+03  0.7561462E-02  0.1243735E+00
          2   -1    0    0  501    0  0.00000000000E+00  0.00000000000E+00  0.20615712722E+03  0.20615712722E+03  0.00000000000E+00 0. -1.
         -2   -1    0    0    0  501 -0.00000000000E+00 -0.00000000000E+00 -0.87405571508E+02  0.87405571508E+02  0.00000000000E+00 0.  1.
         25    2    1    2    0    0  0.16744204248E+02 -0.63906190063E+02  0.11172825066E+03  0.18026654530E+03  0.12509378823E+03 0.  0.
          5    1    3    3  502    0  0.37800591170E+02  0.23794777638E+02  0.13506401175E+02  0.46850521965E+02  0.41800000000E+01 0. -1.
         -5    1    3    3    0  502 -0.21056386922E+02 -0.87700967701E+02  0.98221849488E+02  0.13341602334E+03  0.41800000000E+01 0. -1.
        -11    1    1    2    0    0 -0.47687968079E+02  0.23445932599E+02 -0.18569985849E+02  0.56291193178E+02  0.00000000000E+00 0.  1.
         11    1    1    2    0    0  0.30943763832E+02  0.40460257464E+02  0.25593290900E+02  0.57004960251E+02  0.00000000000E+00 0. -1.
</event>
<event>
 7    1  0.3151015E-009  0.1433539E+03  0.7561462E-02  0.1208886E+00
          1   -1    0    0  501    0  0.00000000000E+00  0.00000000000E+00  0.16654590203E+04  0.16654590203E+04  0.00000000000E+00 0. -1.
         -1   -1    0    0    0  501 -0.00000000000E+00 -0.00000000000E+00 -0.26116884599E+02  0.26116884599E+02  0.00000000000E+00 0.  1.
         25    2    1    2    0    0  0.55485284964E+01  0.11537130394E+03  0.14049905407E+04  0.14152694266E+04  0.12509119218E+03 0.  0.
          5    1    3    3  502    0  0.61269177019E+02  0.79558600061E+02  0.97817624348E+03  0.98332584559E+03  0.41800000000E+01 0. -1.
         -5    1    3    3    0  502 -0.55720648522E+02  0.35812703877E+02  0.42681429725E+03  0.43194358100E+03  0.41800000000E+01 0. -1.
        -11    1    1    2    0    0  0.11304125634E+02 -0.19884792360E+02  0.20156665710E+00  0.22874196219E+02  0.00000000000E+00 0.  1.
         11    1    1    2    0    0 -0.16852654130E+02 -0.95486511577E+02  0.23415002830E+03  0.25343228207E+03  0.00000000000E+00 0. -1.
</event>
<event>
 7    1  0.3151015E-009  0.2575692E+03  0.7561462E-02  0.1108613E+00
          1   -1    0    0  501    0  0.00000000000E+00  0.00000000000E+00  0.22192262713E+03  0.22192262713E+03  0.00000000000E+00 0. -1.
         -1   -1    0    0    0  501 -0.00000000000E+00 -0.00000000000E+00 -0.31082981259E+03  0.31082981259E+03  0.00000000000E+00 0.  1.
         25    2    1    2    0    0 -0.38240514010E+02 -0.23644728713E+03 -0.31633485939E+02  0.27205672443E+03  0.12507808510E+03 0.  0.
          5    1    3    3  502    0 -0.47307020446E+02 -0.27220466850E+02  0.16423183399E+02  0.57149814978E+02  0.41800000000E+01 0. -1.
         -5    1    3    3    0  502  0.90665064358E+01 -0.20922682028E+03 -0.48056669338E+02  0.21490690946E+03  0.41800000000E+01 0. -1.
        -11    1    1    2    0    0 -0.17487710165E+02  0.12616586172E+03 -0.50276060464E+02  0.13693548454E+03  0.00000000000E+00 0. -1.
         11    1    1    2    0    0  0.55728224176E+02  0.11028142541E+03 -0.69976390561E+01  0.12376023074E+03  0.00000000000E+00 0.  1.
</event>
<event>
 7    1  0.3151015E-009  0.1066147E+03  0.7561462E-02  0.1266971E+00
         -2   -1    0    0    0  501 -0.00000000000E+00  0.00000000000E+00  0.35553315369E+02  0.35553315369E+02  0.00000000000E+00 0.  1.
          2   -1    0    0  501    0  0.00000000000E+00 -0.00000000000E+00 -0.51173419092E+03  0.51173419092E+03  0.00000000000E+00 0. -1.
         25    2    1    2    0    0  0.73401291323E+02  0.26387813255E+02 -0.21330263099E+03  0.25928620375E+03  0.12508899558E+03 0.  0.
          5    1    3    3  502    0  0.95612932954E+02 -0.53437336772E+01 -0.95906154332E+02  0.13559443675E+03  0.41800000000E+01 0.  1.
         -5    1    3    3    0  502 -0.22211641631E+02  0.31731546932E+02 -0.11739647665E+03  0.12369176701E+03  0.41800000000E+01 0.  1.
        -11    1    1    2    0    0 -0.21119757497E+02 -0.11550403076E+02 -0.51644900917E+01  0.24619665429E+02  0.00000000000E+00 0.  1.
         11    1    1    2    0    0 -0.52281533826E+02 -0.14837410178E+02 -0.25771375448E+03  0.26338163711E+03  0.00000000000E+00 0. -1.
</event>
<event>
 7    1  0.3151015E-009  0.6357437E+02  0.7561462E-02  0.1383416E+00
          2   -1    0    0  501    0  0.00000000000E+00  0.00000000000E+00  0.66381719177E+03  0.66381719177E+03  0.00000000000E+00 0. -1.
         -2   -1    0    0    0  501 -0.00000000000E+00 -0.00000000000E+00 -0.21077862082E+02  0.21077862082E+02  0.00000000000E+00 0.  1.
         25    2    1    2    0    0 -0.11729689138E+02 -0.36260442449E+02  0.30550690217E+03  0.33231724373E+03  0.12509147817E+03 0.  0.
          5    1    3    3  502    0 -0.89216178889E+00 -0.22788896347E+02  0.31238619826E+03  0.31324549320E+03  0.41800000000E+01 0. -1.
         -5    1    3    3    0  502 -0.10837527349E+02 -0.13471546102E+02 -0.68792960869E+01  0.19071750524E+02  0.41800000000E+01 0. -1.
        -11    1    1    2    0    0  0.44093727467E+01 -0.24541079645E+02  0.28665107532E+02  0.37992045852E+02  0.00000000000E+00 0.  1.
         11    1    1    2    0    0  0.73203163911E+01  0.60801522095E+02  0.30856731998E+03  0.31458576427E+03  0.00000000000E+00 0. -1.
</event>
<event>
 7    1  0.3151015E-009  0.1134768E+03  0.7561462E-02  0.1254264E+00
         -1   -1    0    0    0  501 -0.00000000000E+00  0.00000000000E+00  0.57027053611E+02  0.57027053611E+02  0.00000000000E+00 0.  1.
          1   -1    0    0  501    0  0.00000000000E+00 -0.00000000000E+00 -0.28403243407E+03  0.28403243407E+03  0.00000000000E+00 0. -1.
         25    2    1    2    0    0 -0.55335602357E+02  0.22334478756E+02 -0.85184157192E+02  0.16268136626E+03  0.12509207993E+03 0.  0.
          5    1    3    3  502    0 -0.85881119975E+02  0.13049828536E+02 -0.18909645443E+02  0.88999504963E+02  0.41800000000E+01 0.  1.
         -5    1    3    3    0  502  0.30545517617E+02  0.92846502204E+01 -0.66274511749E+02  0.73681861295E+02  0.41800000000E+01 0.  1.
        -11    1    1    2    0    0  0.18683380980E+02 -0.55374992670E+02 -0.69179686378E+02  0.90560960383E+02  0.00000000000E+00 0.  1.
         11    1    1    2    0    0  0.36652221377E+02  0.33040513914E+02 -0.72641536891E+02  0.87817161042E+02  0.00000000000E+00 0. -1.
</event>
<event>
 7    1  0.3151015E-009  0.1408375E+03  0.7561462E-02  0.1212206E+00
          1   -1    0    0  501    0  0.00000000000E+00  0.00000000000E+00  0.38127914417E+03  0.38127914417E+03  0.00000000000E+00 0. -1.
         -1   -1    0    0    0  501 -0.00000000000E+00 -0.00000000000E+00 -0.68706061785E+02  0.68706061785E+02  0.00000000000E+00 0.  1.
         25    2    1    2    0    0 -0.92807655102E+02 -0.32078607710E+02  0.71699031832E+02  0.17444387700E+03  0.12509043585E+03 0.  0.
          5    1    3    3  502    0 -0.98178089807E+02 -0.67558192097E+02  0.38313963963E+02  0.12525365812E+03  0.41800000000E+01 0. -1.
         -5    1    3    3    0  502  0.53704347047E+01  0.35479584387E+02  0.33385067869E+02  0.49190218884E+02  0.41800000000E+01 0. -1.
        -11    1    1    2    0    0  0.17718608794E+02  0.46567674222E+02  0.14236726829E+03  0.15083413559E+03  0.00000000000E+00 0. -1.
         11    1    1    2    0    0  0.75089046308E+02 -0.14489066512E+02  0.98506782270E+02  0.12470719337E+03  0.00000000000E+00 0.  1.
</event>
<event>
 7    1  0.3151015E-009  0.1453169E+03  0.7561462E-02  0.1206348E+00
          3   -1    0    0  501    0  0.00000000000E+00  0.00000000000E+00  0.20370289726E+02  0.20370289726E+02  0.00000000000E+00 0. -1.
         -3   -1    0    0    0  501 -0.00000000000E+00 -0.00000000000E+00 -0.12525811258E+04  0.12525811258E+04  0.00000000000E+00 0.  1.
         25    2    1    2    0    0  0.25741112663E+02 -0.11112233446E+03 -0.75968513240E+03  0.77831866361E+03  0.12509062170E+03 0.  0.
          5    1    3    3  502    0 -0.33331629836E+02 -0.73414544284E+02 -0.22504648911E+03  0.23909012426E+03  0.41800000000E+01 0. -1.
         -5    1    3    3    0  502  0.59072742498E+02 -0.37707790176E+02 -0.53463864329E+03  0.53922853935E+03  0.41800000000E+01 0. -1.
        -11    1    1    2    0    0 -0.52085455668E+02  0.46178147126E+02 -0.16244546741E+03  0.17673099855E+03  0.00000000000E+00 0. -1.
         11    1    1    2    0    0  0.26344343005E+02  0.64944187334E+02 -0.31008023630E+03  0.31790175341E+03  0.00000000000E+00 0.  1.
</event>
<event>
 7    1  0.3151015E-009  0.1647765E+03  0.7561462E-02  0.1183407E+00
          1   -1    0    0  501    0  0.00000000000E+00  0.00000000000E+00  0.25543204281E+03  0.25543204281E+03  0.00000000000E+00 0. -1.
         -1   -1    0    0    0  501 -0.00000000000E+00 -0.00000000000E+00 -0.20895575594E+03  0.20895575594E+03  0.00000000000E+00 0.  1.
         25    2    1    2    0    0 -0.51550789082E+02  0.11991592788E+03  0.18078964066E+03  0.25567408964E+03  0.12508809828E+03 0.  0.
          5    1    3    3  502    0  0.24555208214E+02 -0.76032783164E+01  0.68558644846E+01  0.26930342913E+02  0.41800000000E+01 0. -1.
         -5    1    3    3    0  502 -0.76105997296E+02  0.12751920619E+03  0.17393377617E+03  0.22874374673E+03  0.41800000000E+01 0. -1.
        -11    1    1    2    0    0 -0.15956644011E+02 -0.67831747481E+02 -0.86088026084E+02  0.11075607744E+03  0.00000000000E+00 0.  1.
         11    1    1    2    0    0  0.67507433093E+02 -0.52084180396E+02 -0.48225327713E+02  0.97957631675E+02  0.00000000000E+00 0. -1.
</event>
<event>
 7    1  0.3151015E-009  0.1705231E+03  0.7561462E-02  0.1177303E+00
          2   -1    0    0  501    0  0.00000000000E+00  0.00000000000E+00  0.21820841928E+03  0.21820841928E+03  0.00000000000E+00 0. -1.
         -2   -1    0    0    0  501 -0.00000000000E+00 -0.00000000000E+00 -0.16654981947E+03  0.16654981947E+03  0.00000000000E+00 0.  1.
         25    2    1    2    0    0 -0.10539522730E+03 -0.11348031286E+03 -0.11338957805E+02  0.19940215732E+03  0.12508682199E+03 0.  0.
          5    1    3    3  502    0 -0.54496166860E+02 -0.16226233659E+02 -0.56836775732E+02  0.80504747294E+02  0.41800000000E+01 0. -1.
         -5    1    3    3    0  502 -0.50899060441E+02 -0.97254079197E+02  0.45497817927E+02  0.11889741002E+03  0.41800000000E+01 0. -1.
        -11    1    1    2    0    0  0.16240074045E+02 -0.12044919793E+02  0.49883328986E+01  0.20825550723E+02  0.00000000000E+00 0. -1.
         11    1    1    2    0    0  0.89155153256E+02  0.12552523265E+03  0.58009224712E+02  0.16453053071E+03  0.00000000000E+00 0.  1.
</event>
<event>
 7    1  0.3151015E-009  0.2382842E+03  0.7561462E-02  0.1120941E+00
         -1   -1    0    0    0  501 -0.00000000000E+00  0.00000000000E+00  0.60931453787E+02  0.60931453787E+02  0.00000000000E+00 0.  1.
          1   -1    0    0  501    0  0.00000000000E+00 -0.00000000000E+00 -0.12241145302E+04  0.12241145302E+04  0.00000000000E+00 0. -1.
         25    2    1    2    0    0  0.20931458518E+03  0.64016075146E+02 -0.88442486204E+03  0.91965545931E+03  0.12509266090E+03 0.  0.
          5    1    3    3  502    0  0.48970922528E+01  0.32914375886E+02 -0.51640514564E+02  0.61575586046E+02  0.41800000000E+01 0.  1.
         -5    1    3    3    0  502  0.20441749292E+03  0.31101699260E+02 -0.83278434747E+03  0.85807987327E+03  0.41800000000E+01 0.  1.
        -11    1    1    2    0    0 -0.11524365574E+03 -0.80685644013E+02 -0.16774355626E+03  0.21892732586E+03  0.00000000000E+00 0.  1.
         11    1    1    2    0    0 -0.94070929433E+02  0.16669568867E+02 -0.11101465809E+03  0.14646319880E+03  0.00000000000E+00 0. -1.
</event>
<event>
 7    1  0.3151015E-009  0.1356492E+03  0.7561462E-02  0.1219306E+00
         -1   -1    0    0    0  501 -0.00000000000E+00  0.00000000000E+00  0.21573000261E+03  0.21573000261E+03  0.00000000000E+00 0.  1.
          1   -1    0    0  501    0  0.00000000000E+00 -0.00000000000E+00 -0.96694536188E+02  0.96694536188E+02  0.00000000000E+00 0. -1.
         25    2    1    2    0    0 -0.70169631638E+02  0.40651547486E+02  0.11859191654E+02  0.14955019099E+03  0.12509314002E+03 0.  0.
          5    1    3    3  502    0  0.17990038608E+02  0.56467730427E+02  0.42508756587E+01  0.59563314319E+02  0.41800000000E+01 0. -1.
         -5    1    3    3    0  502 -0.88159670245E+02 -0.15816182941E+02  0.76083159952E+01  0.89986876670E+02  0.41800000000E+01 0. -1.
        -11    1    1    2    0    0  0.68256884806E+02  0.12197846416E+02  0.67432064036E+02  0.96720592641E+02  0.00000000000E+00 0. -1.
         11    1    1    2    0    0  0.19127468317E+01 -0.52849393902E+02  0.39744210732E+02  0.66153755169E+02  0.00000000000E+00 0.  1.
</event>
<event>
 7    1  0.3151015E-009  0.8676716E+02  0.7561462E-02  0.1310875E+00
          2   -1    0    0  501    0  0.00000000000E+00  0.00000000000E+00  0.76290699058E+03  0.76290699058E+03  0.00000000000E+00 0.  1.
         -2   -1    0    0    0  501 -0.00000000000E+00 -0.00000000000E+00 -0.22692077525E+02  0.22692077525E+02  0.00000000000E+00 0. -1.
         25    2    1    2    0    0 -0.69751577754E+02 -0.78837729330E+01  0.49936291363E+03  0.51955603050E+03  0.12509081837E+03 0.  0.
          5    1    3    3  502    0 -0.50532233626E+01  0.26675733453E+02  0.18513469032E+02  0.33126284990E+02  0.41800000000E+01 0.  1.
         -5    1    3    3    0  502 -0.64698354391E+02 -0.34559506386E+02  0.48084944460E+03  0.48642974551E+03  0.41800000000E+01 0.  1.
        -11    1    1    2    0    0  0.59328321798E+02 -0.32245217163E+00  0.24504908192E+03  0.25212894775E+03  0.00000000000E+00 0.  1.
         11    1    1    2    0    0  0.10423255955E+02  0.82062251046E+01 -0.41970824950E+01  0.13914089861E+02  0.00000000000E+00 0. -1.
</event>
<event>
 7    1  0.3151015E-009  0.7523200E+02  0.7561462E-02  0.1343154E+00
         -2   -1    0    0    0  501 -0.00000000000E+00  0.00000000000E+00  0.24757838752E+02  0.24757838752E+02  0.00000000000E+00 0. -1.
          2   -1    0    0  501    0  0.00000000000E+00 -0.00000000000E+00 -0.59014068303E+03  0.59014068303E+03  0.00000000000E+00 0.  1.
         25    2    1    2    0    0 -0.82725228136E+00  0.15947540718E+02 -0.44408992778E+03  0.46164801950E+03  0.12509205231E+03 0.  0.
          5    1    3    3  502    0  0.31072309950E+02  0.83805976806E+01 -0.41873951461E+03  0.41999520993E+03  0.41800000000E+01 0. -1.
         -5    1    3    3    0  502 -0.31899562231E+02  0.75669430375E+01 -0.25350413166E+02  0.41652809571E+02  0.41800000000E+01 0. -1.
        -11    1    1    2    0    0  0.39197501387E+02 -0.23713816497E+02 -0.96741053511E+02  0.10704027579E+03  0.00000000000E+00 0.  1.
         11    1    1    2    0    0 -0.38370249106E+02  0.77662757789E+01 -0.24551862985E+02  0.46210226487E+02  0.00000000000E+00 0. -1.
</event>
<event>
 7    1  0.3151015E-009  0.1144253E+03  0.7561462E-02  0.1252588E+00
         -2   -1    0    0    0  501 -0.00000000000E+00  0.00000000000E+00  0.15203670809E+02  0.15203670809E+02  0.00000000000E+00 0.  1.
          2   -1    0    0  501    0  0.00000000000E+00 -0.00000000000E+00 -0.10552880129E+04  0.10552880129E+04  0.00000000000E+00 0. -1.
         25    2    1    2    0    0  0.38763795384E+02  0.49400721650E+02 -0.63615463015E+03  0.65137233012E+03  0.12510050300E+03 0.  0.
          5    1    3    3  502    0 -0.58926063606E+01 -0.27354474379E+02 -0.42230701775E+02  0.50832023869E+02  0.41800000000E+01 0.  1.
         -5    1    3    3    0  502  0.44656401745E+02  0.76755196028E+02 -0.59392392838E+03  0.60054030625E+03  0.41800000000E+01 0.  1.
        -11    1    1    2    0    0 -0.66895141554E+02 -0.50008383420E+02 -0.29236610745E+03  0.30406206465E+03  0.00000000000E+00 0.  1.
         11    1    1    2    0    0  0.28131346170E+02  0.60766177077E+00 -0.11156360446E+03  0.11505728890E+03  0.00000000000E+00 0. -1.
</event>
<event>
 7    1  0.3151015E-009  0.1099554E+03  0.7561462E-02  0.1260653E+00
          3   -1    0    0  501    0  0.00000000000E+00  0.00000000000E+00  0.28980671172E+03  0.28980671172E+03  0.00000000000E+00 0. -1.
         -3   -1    0    0    0  501 -0.00000000000E+00 -0.00000000000E+00 -0.52965010747E+02  0.52965010747E+02  0.00000000000E+00 0.  1.
         25    2    1    2    0    0 -0.52393362083E+02 -0.19683871975E+02  0.11031992720E+03  0.17593595921E+03  0.12510178336E+03 0.  0.
          5    1    3    3  502    0 -0.75236782329E+02  0.28111628202E+02  0.46541619036E+02  0.92921643108E+02  0.41800000000E+01 0. -1.
         -5    1    3    3    0  502  0.22843420246E+02 -0.47795500177E+02  0.63778308162E+02  0.83014316101E+02  0.41800000000E+01 0. -1.
        -11    1    1    2    0    0 -0.11116140761E+02  0.19948169523E+02 -0.25566555215E+01  0.22979002159E+02  0.00000000000E+00 0.  1.
         11    1    1    2    0    0  0.63509502844E+02 -0.26429754834E+00  0.12907842929E+03  0.14385676110E+03  0.00000000000E+00 0. -1.
</event>
<event>
 7    1  0.3151015E-009  0.8988042E+02  0.7561462E-02  0.1303142E+00
         -1   -1    0    0    0  501 -0.00000000000E+00  0.00000000000E+00  0.26411205912E+02  0.26411205912E+02  0.00000000000E+00 0. -1.
          1   -1    0    0  501    0  0.00000000000E+00 -0.00000000000E+00 -0.58805015838E+03  0.58805015838E+03  0.00000000000E+00 0.  1.
         25    2    1    2    0    0 -0.19352158743E+02  0.51744122878E+02 -0.36904440890E+03  0.39356558954E+03  0.12509251465E+03 0.  0.
          5    1    3    3  502    0 -0.54533141798E+01 -0.81200731238E+01 -0.30324951431E+03  0.30343601394E+03  0.41800000000E+01 0. -1.
         -5    1    3    3    0  502 -0.13898844563E+02  0.59864196002E+02 -0.65794894591E+02  0.90129575598E+02  0.41800000000E+01 0. -1.
        -11    1    1    2    0    0 -0.14211222470E+02  0.22177980456E+02 -0.58204696347E+02  0.63887466205E+02  0.00000000000E+00 0.  1.
         11    1    1    2    0    0  0.33563381212E+02 -0.73922103334E+02 -0.13438984722E+03  0.15700830855E+03  0.00000000000E+00 0. -1.
</event>
<event>
 7    1  0.3151015E-009  0.1004376E+03  0.7561462E-02  0.1279379E+00
          1   -1    0    0  501    0  0.00000000000E+00  0.00000000000E+00  0.32508299603E+03  0.32508299603E+03  0.00000000000E+00 0. -1.
         -1   -1    0    0    0  501 -0.00000000000E+00 -0.00000000000E+00 -0.38641668225E+02  0.38641668225E+02  0.00000000000E+00 0.  1.
         25    2    1    2    0    0  0.15363110783E+02 -0.11365483852E+02  0.21234799259E+03  0.24718604457E+03  0.12507626185E+03 0.  0.
          5    1    3    3  502    0  0.15796813547E+02  0.53251799265E+02  0.13667220635E+03  0.14758745825E+03  0.41800000000E+01 0.  1.
         -5    1    3    3    0  502 -0.43370276385E+00 -0.64617283117E+02  0.75675786239E+02  0.99598586328E+02  0.41800000000E+01 0.  1.
        -11    1    1    2    0    0 -0.29636633613E+02 -0.26622206304E+02  0.62879039924E+02  0.74436856343E+02  0.00000000000E+00 0. -1.
         11    1    1    2    0    0  0.14273522830E+02  0.37987690156E+02  0.11214295293E+02  0.42101763339E+02  0.00000000000E+00 0.  1.
</event>
<event>
 7    1  0.3151015E-009  0.1377036E+03  0.7561462E-02  0.1216453E+00
          1   -1    0    0  501    0  0.00000000000E+00  0.00000000000E+00  0.13933946893E+03  0.13933946893E+03  0.00000000000E+00 0. -1.
         -1   -1    0    0    0  501 -0.00000000000E+00 -0.00000000000E+00 -0.21348609672E+03  0.21348609672E+03  0.00000000000E+00 0.  1.
         25    2    1    2    0    0  0.12011527603E+02 -0.12499233664E+03 -0.87567685663E+02  0.19768049014E+03  0.12506844366E+03 0.  0.
          5    1    3    3  502    0  0.96113229039E+01 -0.13364482119E+03 -0.10983828102E+03  0.17330676887E+03  0.41800000000E+01 0. -1.
         -5    1    3    3    0  502  0.24002046990E+01  0.86524845517E+01  0.22270595354E+02  0.24373721278E+02  0.41800000000E+01 0. -1.
        -11    1    1    2    0    0 -0.23261130364E+02  0.11140488675E+03 -0.21686256747E+02  0.11585517989E+03  0.00000000000E+00 0.  1.
         11    1    1    2    0    0  0.11249602761E+02  0.13587449890E+02  0.35107314624E+02  0.39289895608E+02  0.00000000000E+00 0. -1.
</event>
<event>
 7    1  0.3151015E-009  0.2838170E+03  0.7561462E-02  0.1093622E+00
          2   -1    0    0  501    0  0.00000000000E+00  0.00000000000E+00  0.56932874142E+02  0.56932874142E+02  0.00000000000E+00 0. -1.
         -2   -1    0    0    0  501 -0.00000000000E+00 -0.00000000000E+00 -0.18354486131E+04  0.18354486131E+04  0.00000000000E+00 0.  1.
         25    2    1    2    0    0 -0.37776984726E+02 -0.27281447392E+03 -0.52695310743E+03  0.60760333425E+03  0.12508955435E+03 0.  0.
          5    1    3    3  502    0  0.11899907040E+02 -0.12454186169E+03 -0.12780227440E+03  0.17889431752E+03  0.41800000000E+01 0.  1.
         -5    1    3    3    0  502 -0.49676891765E+02 -0.14827261223E+03 -0.39915083303E+03  0.42870901673E+03  0.41800000000E+01 0.  1.
        -11    1    1    2    0    0 -0.12341319326E+02  0.18102501406E+03 -0.68377488650E+03  0.70743936792E+03  0.00000000000E+00 0. -1.
         11    1    1    2    0    0  0.50118304051E+02  0.91789459857E+02 -0.56778774506E+03  0.57733878510E+03  0.00000000000E+00 0.  1.
</event>
<event>
 7    1  0.3151015E-009  0.8557904E+02  0.7561462E-02  0.1313925E+00
          1   -1    0    0  501    0  0.00000000000E+00  0.00000000000E+00  0.51839296561E+03  0.51839296561E+03  0.00000000000E+00 0. -1.
         -1   -1    0    0    0  501 -0.00000000000E+00 -0.00000000000E+00 -0.22187618013E+02  0.22187618013E+02  0.00000000000E+00 0.  1.
         25    2    1    2    0    0 -0.14641770876E+01 -0.15521254270E+02  0.31679333865E+03  0.34094685323E+03  0.12507471434E+03 0.  0.
          5    1    3    3  502    0 -0.48726438154E+02 -0.33548522326E+02  0.25066554186E+03  0.25758582143E+03  0.41800000000E+01 0.  1.
         -5    1    3    3    0  502  0.47262261066E+02  0.18027268056E+02  0.66127796790E+02  0.83361031801E+02  0.41800000000E+01 0.  1.
        -11    1    1    2    0    0 -0.17894107617E+02 -0.16066180362E+02  0.97095491717E+01  0.25934467104E+02  0.00000000000E+00 0.  1.
         11    1    1    2    0    0  0.19358284705E+02  0.31587434631E+02  0.16970245977E+03  0.17369926329E+03  0.00000000000E+00 0. -1.
</event>
<event>
 7    1  0.3151015E-009  0.1405829E+03  0.7561462E-02  0.1212547E+00
         -2   -1    0    0    0  501 -0.00000000000E+00  0.00000000000E+00  0.20130067733E+02  0.20130067733E+02  0.00000000000E+00 0.  1.
          2   -1    0    0  501    0  0.00000000000E+00 -0.00000000000E+00 -0.11365276917E+04  0.11365276917E+04  0.00000000000E+00 0. -1.
         25    2    1    2    0    0  0.93381532432E+02 -0.25194209624E+02 -0.76345287702E+03  0.77965559883E+03  0.12509076134E+03 0.  0.
          5    1    3    3  502    0  0.75230552213E+02  0.36966859789E+02 -0.55576307451E+03  0.56206427755E+03  0.41800000000E+01 0.  1.
         -5    1    3    3    0  502  0.18150980219E+02 -0.62161069413E+02 -0.20768980250E+03  0.21759132128E+03  0.41800000000E+01 0.  1.
        -11    1    1    2    0    0 -0.27979300142E+02 -0.34071328639E+02 -0.12669536554E+03  0.13414698029E+03  0.00000000000E+00 0.  1.
         11    1    1    2    0    0 -0.65402232289E+02  0.59265538263E+02 -0.22624938143E+03  0.24285518032E+03  0.00000000000E+00 0. -1.
</event>
<event>
 7    1  0.3151015E-009  0.1145410E+03  0.7561462E-02  0.1252384E+00
          1   -1    0    0  501    0  0.00000000000E+00  0.00000000000E+00  0.37829238048E+03  0.37829238048E+03  0.00000000000E+00 0. -1.
         -1   -1    0    0    0  501 -0.00000000000E+00 -0.00000000000E+00 -0.54842482056E+02  0.54842482056E+02  0.00000000000E+00 0.  1.
         25    2    1    2    0    0  0.10791681914E+02 -0.52115772938E+02  0.57003064860E+02  0.14740908849E+03  0.12509027051E+03 0.  0.
          5    1    3    3  502    0 -0.45343544988E+02  0.97566199452E+01  0.41417087533E+02  0.62322357501E+02  0.41800000000E+01 0. -1.
         -5    1    3    3    0  502  0.56135226901E+02 -0.61872392883E+02  0.15585977327E+02  0.85086730984E+02  0.41800000000E+01 0. -1.
        -11    1    1    2    0    0  0.11816697260E+01  0.73952391727E+02  0.15797430421E+03  0.17443117089E+03  0.00000000000E+00 0.  1.
         11    1    1    2    0    0 -0.11973351640E+02 -0.21836618789E+02  0.10847252936E+03  0.11129460317E+03  0.00000000000E+00 0. -1.
</event>
<event>
 7    1  0.3151015E-009  0.9384342E+02  0.7561462E-02  0.1293802E+00
          2   -1    0    0  501    0  0.00000000000E+00  0.00000000000E+00  0.82752290215E+03  0.82752290215E+03  0.00000000000E+00 0.  1.
         -2   -1    0    0    0  501 -0.00000000000E+00 -0.00000000000E+00 -0.22676997337E+02  0.22676997337E+02  0.00000000000E+00 0. -1.
         25    2    1    2    0    0 -0.33517380891E+02 -0.37350757471E+02  0.62865890531E+03  0.64294458251E+03  0.12508886058E+03 0.  0.
          5    1    3    3  502    0 -0.79149660675E+01 -0.64006693923E+02  0.15645901478E+03  0.16928201104E+03  0.41800000000E+01 0.  1.
         -5    1    3    3    0  502 -0.25602414823E+02  0.26655936452E+02  0.47219989053E+03  0.47366257147E+03  0.41800000000E+01 0.  1.
        -11    1    1    2    0    0 -0.14704814951E+02  0.34560890259E+02  0.17605496670E+02  0.41480600662E+02  0.00000000000E+00 0. -1.
         11    1    1    2    0    0  0.48222195842E+02  0.27898672114E+01  0.15858150283E+03  0.16577471632E+03  0.00000000000E+00 0.  1.
</event>
<event>
 7    1  0.3151015E-009  0.1309836E+03  0.7561462E-02  0.1226004E+00
         -1   -1    0    0    0  501 -0.00000000000E+00  0.00000000000E+00  0.29777654349E+03  0.29777654349E+03  0.00000000000E+00 0.  1.
          1   -1    0    0  501    0  0.00000000000E+00 -0.00000000000E+00 -0.62328958346E+02  0.62328958346E+02  0.00000000000E+00 0. -1.
         25    2    1    2    0    0  0.55456101903E+02 -0.50238878477E+02  0.80831833882E+02  0.16667868156E+03  0.12509465764E+03 0.  0.
          5    1    3    3  502    0  0.16744965147E+02  0.42128988499E+02  0.24980204888E+02  0.51930035297E+02  0.41800000000E+01 0. -1.
         -5    1    3    3    0  502  0.38711136757E+02 -0.92367866976E+02  0.55851628994E+02  0.11474864627E+03  0.41800000000E+01 0. -1.
        -11    1    1    2    0    0  0.15060382617E+01  0.58608041143E+02  0.76108110691E+02  0.96070886073E+02  0.00000000000E+00 0. -1.
         11    1    1    2    0    0 -0.56962140165E+02 -0.83691626656E+01  0.78507640571E+02  0.97355934200E+02  0.00000000000E+00 0.  1.
</event>
<event>
 7    1  0.3151015E-009  0.7796346E+02  0.7561462E-02  0.1334932E+00
          1   -1    0    0  501    0  0.00000000000E+00  0.00000000000E+00  0.19808051631E+02  0.19808051631E+02  0.00000000000E+00 0. -1.
         -1   -1    0    0    0  501 -0.00000000000E+00 -0.00000000000E+00 -0.76600471809E+03  0.76600471809E+03  0.00000000000E+00 0.  1.
         25    2    1    2    0    0  0.36727949150E+02  0.37646565440E+02 -0.49762950717E+03  0.51579992412E+03  0.12509288220E+03 0.  0.
          5    1    3    3  502    0  0.95106675630E-01  0.17815688037E+02 -0.20037125074E+01  0.18409102350E+02  0.41800000000E+01 0.  1.
         -5    1    3    3    0  502  0.36632842474E+02  0.19830877403E+02 -0.49562579466E+03  0.49739082177E+03  0.41800000000E+01 0.  1.
        -11    1    1    2    0    0 -0.62381005684E+02 -0.25805243093E+02 -0.11380879985E+03  0.13232438688E+03  0.00000000000E+00 0. -1.
         11    1    1    2    0    0  0.25653056534E+02 -0.11841322347E+02 -0.13475835945E+03  0.13768845872E+03  0.00000000000E+00 0.  1.
</event>
<event>
 7    1  0.3151015E-009  0.1604058E+03  0.7561462E-02  0.1188239E+00
          1   -1    0    0  501    0  0.00000000000E+00  0.00000000000E+00  0.30257069623E+02  0.30257069623E+02  0.00000000000E+00 0. -1.
         -1   -1    0    0    0  501 -0.00000000000E+00 -0.00000000000E+00 -0.89117034861E+03  0.89117034861E+03  0.00000000000E+00 0.  1.
         25    2    1    2    0    0  0.45296439842E+02  0.11285134560E+03 -0.49888230599E+03  0.52850409648E+03  0.12508329666E+03 0.  0.
          5    1    3    3  502    0 -0.22697459609E+02  0.95542920431E+02 -0.35524306254E+03  0.36859019276E+03  0.41800000000E+01 0. -1.
         -5    1    3    3    0  502  0.67993899452E+02  0.17308425171E+02 -0.14363924344E+03  0.15991390372E+03  0.41800000000E+01 0. -1.
        -11    1    1    2    0    0 -0.58773161387E+02 -0.12235807107E+03 -0.33166326652E+03  0.35836615970E+03  0.00000000000E+00 0. -1.
         11    1    1    2    0    0  0.13476721545E+02  0.95067254647E+01 -0.30367706476E+02  0.34557162055E+02  0.00000000000E+00 0.  1.
</event>
<event>
 7    1  0.3151015E-009  0.9517708E+02  0.7561462E-02  0.1290778E+00
         -1   -1    0    0    0  501 -0.00000000000E+00  0.00000000000E+00  0.16478450840E+02  0.16478450840E+02  0.00000000000E+00 0.  1.
          1   -1    0    0  501    0  0.00000000000E+00 -0.00000000000E+00 -0.86103104356E+03  0.86103104356E+03  0.00000000000E+00 0. -1.
         25    2    1    2    0    0 -0.22807859948E+02  0.70946306727E+01 -0.63931510396E+03  0.65187568889E+03  0.12509028481E+03 0.  0.
          5    1    3    3  502    0  0.12817240130E+01 -0.50833695080E+02 -0.14787376591E+03  0.15642835554E+03  0.41800000000E+01 0. -1.
         -5    1    3    3    0  502 -0.24089583961E+02  0.57928325753E+02 -0.49144133805E+03  0.49544733335E+03  0.41800000000E+01 0. -1.
        -11    1    1    2    0    0  0.46530739019E+02 -0.18575106805E+02 -0.60666098354E+02  0.78679856101E+02  0.00000000000E+00 0.  1.
         11    1    1    2    0    0 -0.23722879071E+02  0.11480476132E+02 -0.14457139040E+03  0.14695394940E+03  0.00000000000E+00 0. -1.
</event>
<event>
 7    1  0.3151015E-009  0.1273732E+03  0.7561462E-02  0.1231406E+00
          2   -1    0    0  501    0  0.00000000000E+00  0.00000000000E+00  0.26093880278E+03  0.26093880278E+03  0.00000000000E+00 0. -1.
         -2   -1    0    0    0  501 -0.00000000000E+00 -0.00000000000E+00 -0.74224912405E+02  0.74224912405E+02  0.00000000000E+00 0.  1.
         25    2    1    2    0    0  0.81812875204E+02 -0.15117356834E+01  0.58612599629E+02  0.16055709469E+03  0.12509001529E+03 0.  0.
          5    1    3    3  502    0 -0.65523107631E+01  0.38615061007E+02 -0.11179646807E+02  0.40945239231E+02  0.41800000000E+01 0.  1.
         -5    1    3    3    0  502  0.88365185967E+02 -0.40126796690E+02  0.69792246436E+02  0.11961185546E+03  0.41800000000E+01 0.  1.
        -11    1    1    2    0    0 -0.39956464027E+02  0.43406229090E+02  0.71366068939E+02  0.92594468178E+02  0.00000000000E+00 0. -1.
         11    1    1    2    0    0 -0.41856411177E+02 -0.41894493407E+02  0.56735221811E+02  0.82012152321E+02  0.00000000000E+00 0.  1.
</event>
<event>
 7    1  0.3151015E-009  0.8087715E+02  0.7561462E-02  0.1326580E+00
         -3   -1    0    0    0  501 -0.00000000000E+00  0.00000000000E+00  0.54325298750E+03  0.54325298750E+03  0.00000000000E+00 0.  1.
          3   -1    0    0  501    0  0.00000000000E+00 -0.00000000000E+00 -0.43552390215E+02  0.43552390215E+02  0.00000000000E+00 0. -1.
         25    2    1    2    0    0 -0.55654132140E+02 -0.49661107172E+02  0.41901555746E+03  0.44359519002E+03  0.12505617629E+03 0.  0.
          5    1    3    3  502    0 -0.26228204507E+01 -0.12937285650E+02  0.34519784286E+03  0.34547543423E+03  0.41800000000E+01 0. -1.
         -5    1    3    3    0  502 -0.53031311689E+02 -0.36723821522E+02  0.73817714599E+02  0.98119755785E+02  0.41800000000E+01 0. -1.
        -11    1    1    2    0    0  0.45046243880E+02  0.15725675572E+02 -0.73420246270E+01  0.48273867522E+02  0.00000000000E+00 0. -1.
         11    1    1    2    0    0  0.10607888260E+02  0.33935431599E+02  0.88027064461E+02  0.94936320178E+02  0.00000000000E+00 0.  1.
</event>
<event>
 7    1  0.3151015E-009  0.1592505E+03  0.7561462E-02  0.1189546E+00
          2   -1    0    0  501    0  0.00000000000E+00  0.00000000000E+00  0.18256667114E+04  0.18256667114E+04  0.00000000000E+00 0. -1.
         -2   -1    0    0    0  501 -0.00000000000E+00 -0.00000000000E+00 -0.45443465337E+02  0.45443465337E+02  0.00000000000E+00 0.  1.
         25    2    1    2    0    0  0.36882845821E+02 -0.12053312134E+03  0.16741370589E+04  0.16835294137E+04  0.12509123511E+03 0.  0.
          5    1    3    3  502    0 -0.67128841084E+00 -0.13090656921E+03  0.10454448358E+04  0.10536172728E+04  0.41800000000E+01 0.  1.
         -5    1    3    3    0  502  0.37554134232E+02  0.10373447866E+02  0.62869222306E+03  0.62991214082E+03  0.41800000000E+01 0.  1.
        -11    1    1    2    0    0 -0.42382552740E+02  0.18640137381E+02  0.59542543238E+02  0.75425791037E+02  0.00000000000E+00 0.  1.
         11    1    1    2    0    0  0.54997069189E+01  0.10189298396E+03  0.46543643913E+02  0.11215497200E+03  0.00000000000E+00 0. -1.
</event>
<event>
 7    1  0.3151015E-009  0.8552104E+02  0.7561462E-02  0.1314076E+00
          1   -1    0    0  501    0  0.00000000000E+00  0.00000000000E+00  0.80911725019E+03  0.80911725019E+03  0.00000000000E+00 0. -1.
         -1   -1    0    0    0  501 -0.00000000000E+00 -0.00000000000E+00 -0.15832880115E+02  0.15832880115E+02  0.00000000000E+00 0.  1.
         25    2    1    2    0    0 -0.10912176674E+01  0.25983747573E+02  0.52446535151E+03  0.53979952704E+03  0.12507309285E+03 0.  0.
          5    1    3    3  502    0 -0.33132638345E+01 -0.39743084796E+02  0.70748694248E+02  0.81322448587E+02  0.41800000000E+01 0.  1.
         -5    1    3    3    0  502  0.22220461671E+01  0.65726832369E+02  0.45371665727E+03  0.45847707845E+03  0.41800000000E+01 0.  1.
        -11    1    1    2    0    0 -0.17762892899E+02 -0.38510323575E+02  0.25527105459E+03  0.25876993005E+03  0.00000000000E+00 0. -1.
         11    1    1    2    0    0  0.18854110566E+02  0.12526576002E+02  0.13547963961E+02  0.26380673211E+02  0.00000000000E+00 0.  1.
</event>
<event>
 7    1  0.3151015E-009  0.1857079E+03  0.7561462E-02  0.1162390E+00
          2   -1    0    0  501    0  0.00000000000E+00  0.00000000000E+00  0.80549006660E+03  0.80549006660E+03  0.00000000000E+00 0.  1.
         -2   -1    0    0    0  501 -0.00000000000E+00 -0.00000000000E+00 -0.48547475169E+02  0.48547475169E+02  0.00000000000E+00 0. -1.
         25    2    1    2    0    0 -0.65602108348E+02  0.15206939321E+03  0.35840566227E+03  0.41416252276E+03  0.12508892653E+03 0.  0.
          5    1    3    3  502    0 -0.48588190929E+02  0.18845652350E+02  0.32292577851E+02  0.61451231839E+02  0.41800000000E+01 0.  1.
         -5    1    3    3    0  502 -0.17013917419E+02  0.13322374086E+03  0.32611308441E+03  0.35271129092E+03  0.41800000000E+01 0.  1.
        -11    1    1    2    0    0 -0.18785304147E+02 -0.16129061090E+02  0.37067005656E+02  0.44575746453E+02  0.00000000000E+00 0.  1.
         11    1    1    2    0    0  0.84387412495E+02 -0.13594033212E+03  0.36146992351E+03  0.39529927256E+03  0.00000000000E+00 0. -1.
</event>
<event>
 7    1  0.3151015E-009  0.1656106E+03  0.7561462E-02  0.1182504E+00
          1   -1    0    0  501    0  0.00000000000E+00  0.00000000000E+00  0.67943388895E+03  0.67943388895E+03  0.00000000000E+00 0. -1.
         -1   -1    0    0    0  501 -0.00000000000E+00 -0.00000000000E+00 -0.52629642118E+02  0.52629642118E+02  0.00000000000E+00 0.  1.
         25    2    1    2    0    0 -0.11894834641E+03  0.68772566082E+02  0.46797148210E+03  0.50351104711E+03  0.12509073325E+03 0.  0.
          5    1    3    3  502    0  0.10223224985E+02 -0.17228179070E+02  0.17117715468E+02  0.26679825075E+02  0.41800000000E+01 0. -1.
         -5    1    3    3    0  502 -0.12917157140E+03  0.86000745152E+02  0.45085376663E+03  0.47683122203E+03  0.41800000000E+01 0. -1.
        -11    1    1    2    0    0  0.10335569320E+03 -0.84403171995E+02  0.10317402479E+03  0.16867475849E+03  0.00000000000E+00 0.  1.
         11    1    1    2    0    0  0.15592653215E+02  0.15630605914E+02  0.55658739941E+02  0.59877725469E+02  0.00000000000E+00 0. -1.
</event>
<event>
 7    1  0.3151015E-009  0.1510919E+03  0.7561462E-02  0.1199138E+00
         -1   -1    0    0    0  501 -0.00000000000E+00  0.00000000000E+00  0.33856454222E+02  0.33856454222E+02  0.00000000000E+00 0.  1.
          1   -1    0    0  501    0  0.00000000000E+00 -0.00000000000E+00 -0.77159154290E+03  0.77159154290E+03  0.00000000000E+00 0. -1.
         25    2    1    2    0    0 -0.11997752868E+03 -0.87115970181E+01 -0.37176887612E+03  0.41027960423E+03  0.12508699807E+03 0.  0.
          5    1    3    3  502    0 -0.10273832196E+03 -0.51529466534E+02 -0.18492414236E+03  0.21777249493E+03  0.41800000000E+01 0.  1.
         -5    1    3    3    0  502 -0.17239206721E+02  0.42817869516E+02 -0.18684473376E+03  0.19250710930E+03  0.41800000000E+01 0.  1.
        -11    1    1    2    0    0  0.87106732219E+02  0.39629248771E+02 -0.18059502109E+03  0.20438351645E+03  0.00000000000E+00 0.  1.
         11    1    1    2    0    0  0.32870796462E+02 -0.30917651753E+02 -0.18537119147E+03  0.19078487644E+03  0.00000000000E+00 0. -1.
</event>
<event>
 7    1  0.3151015E-009  0.1126639E+03  0.7561462E-02  0.1255715E+00
         -1   -1    0    0    0  501 -0.00000000000E+00  0.00000000000E+00  0.16938909188E+02  0.16938909188E+02  0.00000000000E+00 0.  1.
          1   -1    0    0  501    0  0.00000000000E+00 -0.00000000000E+00 -0.94068309433E+03  0.94068309433E+03  0.00000000000E+00 0. -1.
         25    2    1    2    0    0 -0.39047594995E+02  0.49884225549E+02 -0.54283041756E+03  0.56064737993E+03  0.12508985474E+03 0.  0.
          5    1    3    3  502    0  0.31372839924E+02  0.16163971293E+02 -0.36065103982E+03  0.36239781177E+03  0.41800000000E+01 0.  1.
         -5    1    3    3    0  502 -0.70420434919E+02  0.33720254255E+02 -0.18217937775E+03  0.19824956816E+03  0.41800000000E+01 0.  1.
        -11    1    1    2    0    0  0.47261907117E+01  0.26995927955E+02 -0.10340234148E+03  0.10697271254E+03  0.00000000000E+00 0.  1.
         11    1    1    2    0    0  0.34321404284E+02 -0.76880153504E+02 -0.27751142611E+03  0.29000191105E+03  0.00000000000E+00 0. -1.
</event>
<event>
 7    1  0.3151015E-009  0.8554235E+02  0.7561462E-02  0.1314020E+00
         -1   -1    0    0    0  501 -0.00000000000E+00  0.00000000000E+00  0.59558968003E+02  0.59558968003E+02  0.00000000000E+00 0.  1.
          1   -1    0    0  501    0  0.00000000000E+00 -0.00000000000E+00 -0.23861027013E+03  0.23861027013E+03  0.00000000000E+00 0. -1.
         25    2    1    2    0    0 -0.20787813874E+02 -0.26026878610E+02 -0.14553027964E+03  0.19477640933E+03  0.12509698526E+03 0.  0.
          5    1    3    3  502    0  0.40566345781E+02 -0.27109734690E+02 -0.16223945047E+02  0.51587352306E+02  0.41800000000E+01 0.  1.
         -5    1    3    3    0  502 -0.61354159655E+02  0.10828560800E+01 -0.12930633459E+03  0.14318905702E+03  0.41800000000E+01 0.  1.
        -11    1    1    2    0    0 -0.15772942720E+02  0.16502514768E+02  0.24924804316E+02  0.33798884388E+02  0.00000000000E+00 0.  1.
         11    1    1    2    0    0  0.36560756594E+02  0.95243638428E+01 -0.58445826805E+02  0.69593944422E+02  0.00000000000E+00 0. -1.
</event>
<event>
 7    1  0.3151015E-009  0.7628750E+02  0.7561462E-02  0.1339930E+00
         -1   -1    0    0    0  501 -0.00000000000E+00  0.00000000000E+00  0.69094297770E+02  0.69094297770E+02  0.00000000000E+00 0.  1.
          1   -1    0    0  501    0  0.00000000000E+00 -0.00000000000E+00 -0.30611055606E+03  0.30611055606E+03  0.00000000000E+00 0. -1.
         25    2    1    2    0    0 -0.24926019259E+02  0.35643366766E+02 -0.24074466148E+03  0.27477206465E+03  0.12509971803E+03 0.  0.
          5    1    3    3  502    0 -0.35006074011E+02  0.34173152954E+02 -0.25333328293E+03  0.25804738759E+03  0.41800000000E+01 0. -1.
         -5    1    3    3    0  502  0.10080054752E+02  0.14702138127E+01  0.12588621456E+02  0.16724677056E+02  0.41800000000E+01 0. -1.
        -11    1    1    2    0    0 -0.30196540254E+02 -0.12597353641E+02  0.20206897140E+02  0.38455728495E+02  0.00000000000E+00 0.  1.
         11    1    1    2    0    0  0.55122559513E+02 -0.23046013126E+02 -0.16478493948E+02  0.61977060684E+02  0.00000000000E+00 0. -1.
</event>
<event>
 7    1  0.3151015E-009  0.1163540E+03  0.7561462E-02  0.1249236E+00
          1   -1    0    0  501    0  0.00000000000E+00  0.00000000000E+00  0.52504117868E+03  0.52504117868E+03  0.00000000000E+00 0. -1.
         -1   -1    0    0    0  501 -0.00000000000E+00 -0.00000000000E+00 -0.28659034945E+02  0.28659034945E+02  0.00000000000E+00 0.  1.
         25    2    1    2    0    0  0.45158490438E+02 -0.20130596261E+02  0.34604985991E+03  0.37126604225E+03  0.12507373193E+03 0.  0.
          5    1    3    3  502    0  0.84363658206E+02 -0.28470842033E+02  0.28046776455E+03  0.29429144572E+03  0.41800000000E+01 0.  1.
         -5    1    3    3    0  502 -0.39205167769E+02  0.83402457719E+01  0.65582095365E+02  0.76974596536E+02  0.41800000000E+01 0.  1.
        -11    1    1    2    0    0  0.81776837700E+01 -0.29380670765E+02  0.41091095627E+02  0.51172028163E+02  0.00000000000E+00 0.  1.
         11    1    1    2    0    0 -0.53336174208E+02  0.49511267027E+02  0.10924118819E+03  0.13126214321E+03  0.00000000000E+00 0. -1.
</event>
<event>
 7    1  0.3151015E-009  0.1016835E+03  0.7561462E-02  0.1276795E+00
         -2   -1    0    0    0  501 -0.00000000000E+00  0.00000000000E+00  0.40125821648E+02  0.40125821648E+02  0.00000000000E+00 0.  1.
          2   -1    0    0  501    0  0.00000000000E+00 -0.00000000000E+00 -0.59165420312E+03  0.59165420312E+03  0.00000000000E+00 0. -1.
         25    2    1    2    0    0  0.26018600280E+02 -0.59192536913E+02 -0.48044854811E+03  0.50066257427E+03  0.12510588276E+03 0.  0.
          5    1    3    3  502    0 -0.29898388831E+01 -0.78787359412E+02 -0.43990618094E+03  0.44693546242E+03  0.41800000000E+01 0. -1.
         -5    1    3    3    0  502  0.29008439163E+02  0.19594822499E+02 -0.40542367177E+02  0.53727111851E+02  0.41800000000E+01 0. -1.
        -11    1    1    2    0    0  0.20327029544E+02  0.18103963123E+02 -0.63033807657E+02  0.68660050383E+02  0.00000000000E+00 0. -1.
         11    1    1    2    0    0 -0.46345629824E+02  0.41088573790E+02 -0.80460257024E+01  0.62457400118E+02  0.00000000000E+00 0.  1.
</event>
<event>
 7    1  0.3151015E-009  0.1651082E+03  0.7561462E-02  0.1183047E+00
         -4   -1    0    0    0  501 -0.00000000000E+00  0.00000000000E+00  0.63233363123E+03  0.63233363123E+03  0.00000000000E+00 0.  1.
          4   -1    0    0  501    0  0.00000000000E+00 -0.00000000000E+00 -0.64858979682E+02  0.64858979682E+02  0.00000000000E+00 0. -1.
         25    2    1    2    0    0  0.15599861019E+03 -0.14446928155E+02  0.41380762937E+03  0.45981351212E+03  0.12508969460E+03 0.  0.
          5    1    3    3  502    0  0.77086421590E+02 -0.91928179038E+01  0.62680446076E+02  0.99865584737E+02  0.41800000000E+01 0.  1.
         -5    1    3    3    0  502  0.78912188600E+02 -0.52541102511E+01  0.35112718329E+03  0.35994792739E+03  0.41800000000E+01 0.  1.
        -11    1    1    2    0    0 -0.12613117442E+03  0.41695847250E+02  0.85051538578E+02  0.15773833095E+03  0.00000000000E+00 0. -1.
         11    1    1    2    0    0 -0.29867435773E+02 -0.27248919095E+02  0.68615483607E+02  0.79640767840E+02  0.00000000000E+00 0.  1.
</event>
<event>
 7    1  0.3151015E-009  0.1055794E+03  0.7561462E-02  0.1268982E+00
          2   -1    0    0  501    0  0.00000000000E+00  0.00000000000E+00  0.34567244333E+02  0.34567244333E+02  0.00000000000E+00 0. -1.
         -2   -1    0    0    0  501 -0.00000000000E+00 -0.00000000000E+00 -0.36243341632E+03  0.36243341632E+03  0.00000000000E+00 0.  1.
         25    2    1    2    0    0  0.27173247286E+02 -0.48774871387E+01 -0.18668950937E+03  0.22641998197E+03  0.12510339755E+03 0.  0.
          5    1    3    3  502    0 -0.14454116210E+02  0.51057252381E+02 -0.11287165437E+03  0.12479281733E+03  0.41800000000E+01 0.  1.
         -5    1    3    3    0  502  0.41627363496E+02 -0.55934739519E+02 -0.73817855001E+02  0.10162716464E+03  0.41800000000E+01 0.  1.
        -11    1    1    2    0    0  0.27490086522E+02  0.16684297790E+02 -0.86856354275E+02  0.92618016215E+02  0.00000000000E+00 0.  1.
         11    1    1    2    0    0 -0.54663333808E+02 -0.11806810651E+02 -0.54320308346E+02  0.77962662471E+02  0.00000000000E+00 0. -1.
</event>
<event>
 7    1  0.3151015E-009  0.9198851E+02  0.7561462E-02  0.1298106E+00
          1   -1    0    0  501    0  0.00000000000E+00  0.00000000000E+00  0.26782835831E+03  0.26782835831E+03  0.00000000000E+00 0. -1.
         -1   -1    0    0    0  501 -0.00000000000E+00 -0.00000000000E+00 -0.46798379103E+02  0.46798379103E+02  0.00000000000E+00 0.  1.
         25    2    1    2    0    0  0.76713753913E+01 -0.65856512158E+00  0.11544778631E+03  0.17039505846E+03  0.12508797255E+03 0.  0.
          5    1    3    3  502    0 -0.27064226398E+02 -0.30072790839E+02  0.11780240979E+03  0.12462634253E+03  0.41800000000E+01 0. -1.
         -5    1    3    3    0  502  0.34735601789E+02  0.29414225717E+02 -0.23546234841E+01  0.45768715931E+02  0.41800000000E+01 0. -1.
        -11    1    1    2    0    0 -0.13994504572E+02  0.47915596062E+02  0.62360625600E+02  0.79878646267E+02  0.00000000000E+00 0. -1.
         11    1    1    2    0    0  0.63231291806E+01 -0.47257030940E+02  0.43221567295E+02  0.64353032682E+02  0.00000000000E+00 0.  1.
</event>
<event>
 7    1  0.3151015E-009  0.1353652E+03  0.7561462E-02  0.1219705E+00
          2   -1    0    0  501    0  0.00000000000E+00  0.00000000000E+00  0.53354324774E+02  0.53354324774E+02  0.00000000000E+00 0. -1.
         -2   -1    0    0    0  501 -0.00000000000E+00 -0.00000000000E+00 -0.50935596110E+03  0.50935596110E+03  0.00000000000E+00 0.  1.
         25    2    1    2    0    0  0.12117646189E+03  0.19554081982E+02 -0.27270025580E+03  0.32415892705E+03  0.12508990143E+03 0.  0.
          5    1    3    3  502    0  0.12186602153E+02  0.67178942027E+01 -0.17959297449E+03  0.18017977761E+03  0.41800000000E+01 0.  1.
         -5    1    3    3    0  502  0.10898985973E+03  0.12836187779E+02 -0.93107281312E+02  0.14397914944E+03  0.41800000000E+01 0.  1.
        -11    1    1    2    0    0 -0.50895787715E+02  0.31190099210E+02 -0.42764376718E+02  0.73430207762E+02  0.00000000000E+00 0. -1.
         11    1    1    2    0    0 -0.70280674172E+02 -0.50744181193E+02 -0.14053700381E+03  0.16512115106E+03  0.00000000000E+00 0.  1.
</event>
<event>
 7    1  0.3151015E-009  0.1433195E+03  0.7561462E-02  0.1208931E+00
         -1   -1    0    0    0  501 -0.00000000000E+00  0.00000000000E+00  0.34817704734E+03  0.34817704734E+03  0.00000000000E+00 0.  1.
          1   -1    0    0  501    0  0.00000000000E+00 -0.00000000000E+00 -0.80744035304E+02  0.80744035304E+02  0.00000000000E+00 0. -1.
         25    2    1    2    0    0 -0.32304765039E+01  0.10749323443E+03  0.21729814018E+03  0.27282832630E+03  0.12510628472E+03 0.  0.
          5    1    3    3  502    0 -0.31526850805E+02  0.22811547573E+01  0.25489828080E+01  0.31986179861E+02  0.41800000000E+01 0.  1.
         -5    1    3    3    0  502  0.28296374302E+02  0.10521207967E+03  0.21474915737E+03  0.24084214643E+03  0.41800000000E+01 0.  1.
        -11    1    1    2    0    0 -0.41182005618E+02 -0.88122902466E+02  0.45597822643E+02  0.10742795239E+03  0.00000000000E+00 0. -1.
         11    1    1    2    0    0  0.44412482122E+02 -0.19370331964E+02  0.45370492154E+01  0.48664803957E+02  0.00000000000E+00 0.  1.
</event>
<event>
 7    1  0.3151015E-009  0.8565505E+02  0.7561462E-02  0.1313728E+00
          1   -1    0    0  501    0  0.00000000000E+00  0.00000000000E+00  0.50513618562E+03  0.50513618562E+03  0.00000000000E+00 0. -1.
         -1   -1    0    0    0  501 -0.00000000000E+00 -0.00000000000E+00 -0.23958620093E+02  0.23958620093E+02  0.00000000000E+00 0.  1.
         25    2    1    2    0    0 -0.21807287797E+02  0.36450932893E+01  0.30430587995E+03  0.32974994089E+03  0.12507641840E+03 0.  0.
          5    1    3    3  502    0  0.13457225003E+02 -0.36544643528E+02  0.25133885356E+03  0.25437236403E+03  0.41800000000E+01 0.  1.
         -5    1    3    3    0  502 -0.35264512800E+02  0.40189736818E+02  0.52967026391E+02  0.75377576860E+02  0.41800000000E+01 0.  1.
        -11    1    1    2    0    0  0.62171248851E+01 -0.39199571466E+02  0.37269720271E+02  0.54445303691E+02  0.00000000000E+00 0.  1.
         11    1    1    2    0    0  0.15590162912E+02  0.35554478176E+02  0.13960196530E+03  0.14489956113E+03  0.00000000000E+00 0. -1.
</event>
<event>
 7    1  0.3151015E-009  0.1193668E+03  0.7561462E-02  0.1244145E+00
          2   -1    0    0  501    0  0.00000000000E+00  0.00000000000E+00  0.51961676136E+03  0.51961676136E+03  0.00000000000E+00 0.  1.
         -2   -1    0    0    0  501 -0.00000000000E+00 -0.00000000000E+00 -0.32604001641E+02  0.32604001641E+02  0.00000000000E+00 0. -1.
         25    2    1    2    0    0  0.46085150501E+02 -0.41520289809E+02  0.34782672643E+03  0.37480488624E+03  0.12508994991E+03 0.  0.
          5    1    3    3  502    0 -0.11263139877E+02 -0.67513577052E+02  0.11806032000E+03  0.13653077662E+03  0.41800000000E+01 0.  1.
         -5    1    3    3    0  502  0.57348290378E+02  0.25993287243E+02  0.22976640643E+03  0.23827410962E+03  0.41800000000E+01 0.  1.
        -11    1    1    2    0    0 -0.70900041477E+02  0.18653875880E+02  0.11301986095E+03  0.13471552225E+03  0.00000000000E+00 0.  1.
         11    1    1    2    0    0  0.24814890977E+02  0.22866413930E+02  0.26166172336E+02  0.42700354506E+02  0.00000000000E+00 0. -1.
</event>
<event>
 7    1  0.3151015E-009  0.1170083E+03  0.7561462E-02  0.1248116E+00
         -1   -1    0    0    0  501 -0.00000000000E+00  0.00000000000E+00  0.16362526826E+03  0.16362526826E+03  0.00000000000E+00 0.  1.
          1   -1    0    0  501    0  0.00000000000E+00 -0.00000000000E+00 -0.97809784785E+02  0.97809784785E+02  0.00000000000E+00 0. -1.
         25    2    1    2    0    0  0.64041665528E+02 -0.34093819411E+00  0.33768739254E+02  0.14456065374E+03  0.12512395333E+03 0.  0.
          5    1    3    3  502    0  0.25096526293E+02  0.56404687473E+02  0.42488327131E+02  0.75060340682E+02  0.41800000000E+01 0. -1.
         -5    1    3    3    0  502  0.38945139235E+02 -0.56745625667E+02 -0.87195878772E+01  0.69500313058E+02  0.41800000000E+01 0. -1.
        -11    1    1    2    0    0 -0.65628286555E+02  0.30934503600E+02  0.43002080751E+02  0.84339756094E+02  0.00000000000E+00 0.  1.
         11    1    1    2    0    0  0.15866210274E+01 -0.30593565406E+02 -0.10955336527E+02  0.32534643212E+02  0.00000000000E+00 0. -1.
</event>
<event>
 7    1  0.3151015E-009  0.7120181E+02  0.7561462E-02  0.1356053E+00
          3   -1    0    0  501    0  0.00000000000E+00  0.00000000000E+00  0.30392840373E+03  0.30392840373E+03  0.00000000000E+00 0.  1.
         -3   -1    0    0    0  501 -0.00000000000E+00 -0.00000000000E+00 -0.62481073893E+02  0.62481073893E+02  0.00000000000E+00 0. -1.
         25    2    1    2    0    0  0.22148454227E+02  0.17696754453E+02  0.43533360795E+02  0.13544269673E+03  0.12508333803E+03 0.  0.
          5    1    3    3  502    0  0.45494430695E+02  0.12192273606E+02 -0.31328092432E+02  0.56721393983E+02  0.41800000000E+01 0.  1.
         -5    1    3    3    0  502 -0.23345976469E+02  0.55044808463E+01  0.74861453227E+02  0.78721302745E+02  0.41800000000E+01 0.  1.
        -11    1    1    2    0    0 -0.38048732359E+02 -0.31745977697E+02  0.20315502444E+03  0.20911115965E+03  0.00000000000E+00 0.  1.
         11    1    1    2    0    0  0.15900278133E+02  0.14049223245E+02 -0.52410553958E+01  0.21855621248E+02  0.00000000000E+00 0. -1.
</event>
<event>
 7    1  0.3151015E-009  0.9212903E+02  0.7561462E-02  0.1297776E+00
          3   -1    0    0  501    0  0.00000000000E+00  0.00000000000E+00  0.26133694522E+03  0.26133694522E+03  0.00000000000E+00 0.  1.
         -3   -1    0    0    0  501 -0.00000000000E+00 -0.00000000000E+00 -0.63584916075E+02  0.63584916075E+02  0.00000000000E+00 0. -1.
         25    2    1    2    0    0  0.52692509757E+01  0.71977877040E+02  0.14435850486E+03  0.20419202321E+03  0.12508566916E+03 0.  0.
          5    1    3    3  502    0  0.25504824333E+02  0.44852932564E+02 -0.40424895298E+01  0.51923941929E+02  0.41800000000E+01 0. -1.
         -5    1    3    3    0  502 -0.20235573357E+02  0.27124944477E+02  0.14840099439E+03  0.15226808128E+03  0.41800000000E+01 0. -1.
        -11    1    1    2    0    0  0.15953272838E+02 -0.75247654220E+02  0.17471967109E+02  0.78879566521E+02  0.00000000000E+00 0. -1.
         11    1    1    2    0    0 -0.21222523813E+02  0.32697771797E+01  0.35921557177E+02  0.41850271562E+02  0.00000000000E+00 0.  1.
</event>
<event>
 7    1  0.3151015E-009  0.1234330E+03  0.7561462E-02  0.1237539E+00
          1   -1    0    0  501    0  0.00000000000E+00  0.00000000000E+00  0.28845448253E+02  0.28845448253E+02  0.00000000000E+00 0. -1.
         -1   -1    0    0    0  501 -0.00000000000E+00 -0.00000000000E+00 -0.81624286164E+03  0.81624286164E+03  0.00000000000E+00 0.  1.
         25    2    1    2    0    0 -0.70204736479E+02 -0.50495607095E+02 -0.60231507231E+03  0.62121641417E+03  0.12509146871E+03 0.  0.
          5    1    3    3  502    0 -0.27256405694E+02  0.36682303063E+02 -0.30396065575E+03  0.30740536048E+03  0.41800000000E+01 0. -1.
         -5    1    3    3    0  502 -0.42948330785E+02 -0.87177910158E+02 -0.29835441656E+03  0.31381105369E+03  0.41800000000E+01 0. -1.
        -11    1    1    2    0    0  0.59597217957E+02  0.82744681227E+01 -0.16557349933E+03  0.17616719017E+03  0.00000000000E+00 0.  1.
         11    1    1    2    0    0  0.10607518522E+02  0.42221138972E+02 -0.19508841741E+02  0.47704705547E+02  0.00000000000E+00 0. -1.
</event>
<event>
 7    1  0.3151015E-009  0.1698030E+03  0.7561462E-02  0.1178053E+00
          1   -1    0    0  501    0  0.00000000000E+00  0.00000000000E+00  0.12360476894E+03  0.12360476894E+03  0.00000000000E+00 0. -1.
         -1   -1    0    0    0  501 -0.00000000000E+00 -0.00000000000E+00 -0.35712699496E+03  0.35712699496E+03  0.00000000000E+00 0.  1.
         25    2    1    2    0    0  0.14161578080E+03 -0.49325783676E+02 -0.85320599181E+01  0.19546999000E+03  0.12509060171E+03 0.  0.
          5    1    3    3  502    0 -0.11261001172E+02  0.17585471338E+02 -0.18545013257E+02  0.28239137137E+02  0.41800000000E+01 0.  1.
         -5    1    3    3    0  502  0.15287678197E+03 -0.66911255014E+02  0.10012953339E+02  0.16723085286E+03  0.41800000000E+01 0.  1.
        -11    1    1    2    0    0 -0.74796917368E+02  0.36940907780E+02 -0.49332549005E+02  0.96917025886E+02  0.00000000000E+00 0. -1.
         11    1    1    2    0    0 -0.66818863433E+02  0.12384875896E+02 -0.17565761709E+03  0.18834474801E+03  0.00000000000E+00 0.  1.
</event>
<event>
 7    1  0.3151015E-009  0.1270858E+03  0.7561462E-02  0.1231845E+00
         -3   -1    0    0    0  501 -0.00000000000E+00  0.00000000000E+00  0.20079668136E+03  0.20079668136E+03  0.00000000000E+00 0.  1.
          3   -1    0    0  501    0  0.00000000000E+00 -0.00000000000E+00 -0.87773727744E+02  0.87773727744E+02  0.00000000000E+00 0. -1.
         25    2    1    2    0    0 -0.34789098817E+02  0.54902613265E+02  0.10305196897E+03  0.17462228221E+03  0.12509458340E+03 0.  0.
          5    1    3    3  502    0 -0.74226985433E+02  0.66400650766E+02  0.72730937412E+02  0.12339349029E+03  0.41800000000E+01 0. -1.
         -5    1    3    3    0  502  0.39437886616E+02 -0.11498037501E+02  0.30321031561E+02  0.51228791924E+02  0.41800000000E+01 0. -1.
        -11    1    1    2    0    0 -0.18239172937E+02 -0.57284033109E+02  0.10824502797E+01  0.60127361303E+02  0.00000000000E+00 0. -1.
         11    1    1    2    0    0  0.53028271755E+02  0.23814198436E+01  0.88885343669E+01  0.53820765592E+02  0.00000000000E+00 0.  1.
</event>
<event>
 7    1  0.3151015E-009  0.3002185E+03  0.7561462E-02  0.1085131E+00
          2   -1    0    0  501    0  0.00000000000E+00  0.00000000000E+00  0.22572779457E+03  0.22572779457E+03  0.00000000000E+00 0. -1.
         -2   -1    0    0    0  501 -0.00000000000E+00 -0.00000000000E+00 -0.56566504243E+03  0.56566504243E+03  0.00000000000E+00 0.  1.
         25    2    1    2    0    0  0.16837233340E+03 -0.23502459211E+03 -0.37150279891E+03  0.48708096216E+03  0.12509089712E+03 0.  0.
          5    1    3    3  502    0  0.16749125429E+03 -0.18888299082E+03 -0.24277797425E+03  0.35026949863E+03  0.41800000000E+01 0. -1.
         -5    1    3    3    0  502  0.88107911689E+00 -0.46141601285E+02 -0.12872482466E+03  0.13681146353E+03  0.41800000000E+01 0. -1.
        -11    1    1    2    0    0 -0.10762245007E+03  0.77044196781E+02  0.12668992737E+01  0.13236315594E+03  0.00000000000E+00 0.  1.
         11    1    1    2    0    0 -0.60749883334E+02  0.15798039533E+03  0.30298651776E+02  0.17194871890E+03  0.00000000000E+00 0. -1.
</event>
<event>
 7    1  0.3151015E-009  0.1446059E+03  0.7561462E-02  0.1207262E+00
          2   -1    0    0  501    0  0.00000000000E+00  0.00000000000E+00  0.82567548418E+03  0.82567548418E+03  0.00000000000E+00 0. -1.
         -2   -1    0    0    0  501 -0.00000000000E+00 -0.00000000000E+00 -0.30690793921E+02  0.30690793921E+02  0.00000000000E+00 0.  1.
         25    2    1    2    0    0  0.10323764880E+03 -0.47771959597E+02  0.36083709337E+03  0.39848814284E+03  0.12509684159E+03 0.  0.
          5    1    3    3  502    0  0.68738374982E+02 -0.82097248541E+02  0.30995613663E+03  0.32795609683E+03  0.41800000000E+01 0.  1.
         -5    1    3    3    0  502  0.34499273816E+02  0.34325288944E+02  0.50880956734E+02  0.70532046001E+02  0.41800000000E+01 0.  1.
        -11    1    1    2    0    0 -0.52144335921E+02 -0.13073045691E+02  0.27259384304E+03  0.27784409217E+03  0.00000000000E+00 0. -1.
         11    1    1    2    0    0 -0.51093312877E+02  0.60845005288E+02  0.16155375386E+03  0.18003404310E+03  0.00000000000E+00 0.  1.
</event>
<event>
 7    1  0.3866288E-009  0.1439495E+03  0.7561462E-02  0.1208111E+00
          1   -1    0    0  501    0  0.00000000000E+00  0.00000000000E+00  0.98649321130E+03  0.98649321130E+03  0.00000000000E+00 0. -1.
         -1   -1    0    0    0  501 -0.00000000000E+00 -0.00000000000E+00 -0.24903711273E+02  0.24903711273E+02  0.00000000000E+00 0.  1.
         25    2    1    2    0    0 -0.99262405212E+02  0.39758584908E+02  0.40124649628E+03  0.43368037994E+03  0.12508457540E+03 0.  0.
          5    1    3    3  502    0 -0.11220718575E+03  0.62112615610E+02  0.37610316423E+03  0.39739085557E+03  0.41800000000E+01 0.  1.
         -5    1    3    3    0  502  0.12944780538E+02 -0.22354030702E+02  0.25143332051E+02  0.36289524362E+02  0.41800000000E+01 0.  1.
        -11    1    1    2    0    0  0.64252794745E+02 -0.64109872077E+02  0.45688740097E+03  0.46581605221E+03  0.00000000000E+00 0. -1.
         11    1    1    2    0    0  0.35009610467E+02  0.24351287168E+02  0.10345560278E+03  0.11190049043E+03  0.00000000000E+00 0.  1.
</event>
<event>
 7    1  0.3151015E-009  0.1348355E+03  0.7561462E-02  0.1220452E+00
          2   -1    0    0  501    0  0.00000000000E+00  0.00000000000E+00  0.46242838485E+03  0.46242838485E+03  0.00000000000E+00 0. -1.
         -2   -1    0    0    0  501 -0.00000000000E+00 -0.00000000000E+00 -0.45173634104E+02  0.45173634104E+02  0.00000000000E+00 0.  1.
         25    2    1    2    0    0  0.69435544914E+02 -0.41142130676E+02  0.31722979762E+03  0.35041965957E+03  0.12508086785E+03 0.  0.
          5    1    3    3  502    0  0.12730132955E+02 -0.79270625383E+02  0.17272123285E+03  0.19051505193E+03  0.41800000000E+01 0. -1.
         -5    1    3    3    0  502  0.56705411959E+02  0.38128494707E+02  0.14450856477E+03  0.15990460764E+03  0.41800000000E+01 0. -1.
        -11    1    1    2    0    0 -0.18343047426E+02  0.62725010450E+02  0.47464357604E+02  0.80769793658E+02  0.00000000000E+00 0.  1.
         11    1    1    2    0    0 -0.51092497488E+02 -0.21582879774E+02  0.52560595521E+02  0.76412565723E+02  0.00000000000E+00 0. -1.
</event>
<event>
 7    1  0.3151015E-009  0.7143140E+02  0.7561462E-02  0.1355292E+00
          3   -1    0    0  501    0  0.00000000000E+00  0.00000000000E+00  0.12231769981E+02  0.12231769981E+02  0.00000000000E+00 0. -1.
         -3   -1    0    0    0  501 -0.00000000000E+00 -0.00000000000E+00 -0.10744593332E+04  0.10744593332E+04  0.00000000000E+00 0.  1.
         25    2    1    2    0    0 -0.39370064017E+02 -0.14209323527E+02 -0.63404736933E+03  0.64762248095E+03  0.12508758713E+03 0.  0.
          5    1    3    3  502    0 -0.98085203193E+01 -0.12659390072E+02 -0.42128853210E+01  0.17078876736E+02  0.41800000000E+01 0. -1.
         -5    1    3    3    0  502 -0.29561543697E+02 -0.15499334552E+01 -0.62983448401E+03  0.63054360421E+03  0.41800000000E+01 0. -1.
        -11    1    1    2    0    0  0.94504379883E+01  0.49359558158E+02 -0.25040702931E+03  0.25540038584E+03  0.00000000000E+00 0.  1.
         11    1    1    2    0    0  0.29919626028E+02 -0.35150234631E+02 -0.17777316455E+03  0.18366823637E+03  0.00000000000E+00 0. -1.
</event>
<event>
 7    1  0.3151015E-009  0.1824560E+03  0.7561462E-02  0.1165447E+00
         -2   -1    0    0    0  501 -0.00000000000E+00  0.00000000000E+00  0.13569334058E+03  0.13569334058E+03  0.00000000000E+00 0.  1.
          2   -1    0    0  501    0  0.00000000000E+00 -0.00000000000E+00 -0.12141314654E+04  0.12141314654E+04  0.00000000000E+00 0. -1.
         25    2    1    2    0    0  0.37153289225E+02  0.16065111207E+03 -0.11343216012E+04  0.11530491734E+04  0.12509098561E+03 0.  0.
          5    1    3    3  502    0  0.42064143473E+02  0.26040780582E+02 -0.59791254302E+03  0.59997032920E+03  0.41800000000E+01 0. -1.
         -5    1    3    3    0  502 -0.49108542472E+01  0.13461033149E+03 -0.53640905816E+03  0.55307884420E+03  0.41800000000E+01 0. -1.
        -11    1    1    2    0    0 -0.46772926074E+02 -0.46538593809E+02  0.48748415219E+02  0.82036304851E+02  0.00000000000E+00 0. -1.
         11    1    1    2    0    0  0.96196368484E+01 -0.11411251826E+03  0.71350611081E+01  0.11473932776E+03  0.00000000000E+00 0.  1.
</event>
<event>
 7    1  0.3151015E-009  0.1151633E+03  0.7561462E-02  0.1251296E+00
         -2   -1    0    0    0  501 -0.00000000000E+00  0.00000000000E+00  0.81344632306E+02  0.81344632306E+02  0.00000000000E+00 0.  1.
          2   -1    0    0  501    0  0.00000000000E+00 -0.00000000000E+00 -0.23077604594E+03  0.23077604594E+03  0.00000000000E+00 0. -1.
         25    2    1    2    0    0 -0.54862397410E+02 -0.66465438278E+02 -0.89173414734E+02  0.17614491705E+03  0.12509035444E+03 0.  0.
          5    1    3    3  502    0 -0.75892272600E+02 -0.30626247615E+02 -0.49014075370E+01  0.82092023237E+02  0.41800000000E+01 0. -1.
         -5    1    3    3    0  502  0.21029875190E+02 -0.35839190663E+02 -0.84272007197E+02  0.94052893815E+02  0.41800000000E+01 0. -1.
        -11    1    1    2    0    0  0.46289619393E+02  0.73328548610E+01  0.54270923766E+01  0.47180005889E+02  0.00000000000E+00 0. -1.
         11    1    1    2    0    0  0.85727780172E+01  0.59132583417E+02 -0.65685091277E+02  0.88795755307E+02  0.00000000000E+00 0.  1.
</event>
<event>
 7    1  0.3151015E-009  0.1296090E+03  0.7561462E-02  0.1228037E+00
         -1   -1    0    0    0  501 -0.00000000000E+00  0.00000000000E+00  0.13212587315E+03  0.13212587315E+03  0.00000000000E+00 0. -1.
          1   -1    0    0  501    0  0.00000000000E+00 -0.00000000000E+00 -0.23956220730E+03  0.23956220730E+03  0.00000000000E+00 0.  1.
         25    2    1    2    0    0 -0.83510684960E+02 -0.82681234307E+02 -0.13839315674E+03  0.22048035059E+03  0.12509475670E+03 0.  0.
          5    1    3    3  502    0 -0.12172082633E+02 -0.39530535458E+02 -0.13011195584E+03  0.13659215308E+03  0.41800000000E+01 0. -1.
         -5    1    3    3    0  502 -0.71338602327E+02 -0.43150698849E+02 -0.82812008986E+01  0.83888197509E+02  0.41800000000E+01 0. -1.
        -11    1    1    2    0    0  0.10950594525E+02  0.55678502547E+02  0.45125207084E+02  0.72500313659E+02  0.00000000000E+00 0. -1.
         11    1    1    2    0    0  0.72560090434E+02  0.27002731760E+02 -0.14168384491E+02  0.78707416203E+02  0.00000000000E+00 0.  1.
</event>
<event>
 7    1  0.3151015E-009  0.1561798E+03  0.7561462E-02  0.1193078E+00
         -2   -1    0    0    0  501 -0.00000000000E+00  0.00000000000E+00  0.28106669129E+02  0.28106669129E+02  0.00000000000E+00 0.  1.
          2   -1    0    0  501    0  0.00000000000E+00 -0.00000000000E+00 -0.11505737381E+04  0.11505737381E+04  0.00000000000E+00 0. -1.
         25    2    1    2    0    0 -0.41205301102E+02 -0.10944756265E+03 -0.86305223735E+03  0.87987523209E+03  0.12507843081E+03 0.  0.
          5    1    3    3  502    0  0.35414202645E+02 -0.81247500495E+02 -0.49025227538E+03  0.49821690858E+03  0.41800000000E+01 0.  1.
         -5    1    3    3    0  502 -0.76619503747E+02 -0.28200062151E+02 -0.37279996197E+03  0.38165832351E+03  0.41800000000E+01 0.  1.
        -11    1    1    2    0    0  0.61242452325E+02  0.49731185353E+02 -0.99830533646E+02  0.12723979021E+03  0.00000000000E+00 0.  1.
         11    1    1    2    0    0 -0.20037151223E+02  0.59716377293E+02 -0.15958429801E+03  0.17156538496E+03  0.00000000000E+00 0. -1.
</event>
<event>
 7    1  0.3151015E-009  0.1292514E+03  0.7561462E-02  0.1228571E+00
          1   -1    0    0  501    0  0.00000000000E+00  0.00000000000E+00  0.70172620298E+03  0.70172620298E+03  0.00000000000E+00 0. -1.
         -1   -1    0    0    0  501 -0.00000000000E+00 -0.00000000000E+00 -0.32139766952E+02  0.32139766952E+02  0.00000000000E+00 0.  1.
         25    2    1    2    0    0 -0.89325851576E+02 -0.52515575319E+02  0.33060920994E+03  0.36835642662E+03  0.12508802469E+03 0.  0.
          5    1    3    3  502    0 -0.19499699438E+02  0.19830880661E+02  0.63390264067E+01  0.28829806828E+02  0.41800000000E+01 0. -1.
         -5    1    3    3    0  502 -0.69826152138E+02 -0.72346455980E+02  0.32427018353E+03  0.33952661979E+03  0.41800000000E+01 0. -1.
        -11    1    1    2    0    0 -0.24905055725E+01  0.36447949381E+02  0.50372996003E+02  0.62226154938E+02  0.00000000000E+00 0. -1.
         11    1    1    2    0    0  0.91816357148E+02  0.16067625938E+02  0.28860423008E+03  0.30328338837E+03  0.00000000000E+00 0.  1.
</event>
<event>
 7    1  0.3151015E-009  0.1991964E+03  0.7561462E-02  0.1150419E+00
          2   -1    0    0  501    0  0.00000000000E+00  0.00000000000E+00  0.70793346819E+03  0.70793346819E+03  0.00000000000E+00 0. -1.
         -2   -1    0    0    0  501 -0.00000000000E+00 -0.00000000000E+00 -0.66804246906E+02  0.66804246906E+02  0.00000000000E+00 0.  1.
         25    2    1    2    0    0 -0.14782027829E+03  0.10942817627E+03  0.26229713414E+03  0.34390677624E+03  0.12508686474E+03 0.  0.
          5    1    3    3  502    0 -0.17744201401E+02  0.54698907283E+02  0.15703145330E+02  0.59756910182E+02  0.41800000000E+01 0.  1.
         -5    1    3    3    0  502 -0.13007607689E+03  0.54729268988E+02  0.24659398881E+03  0.28414986606E+03  0.41800000000E+01 0.  1.
        -11    1    1    2    0    0  0.10690566269E+03 -0.11640586980E+03  0.33530658832E+03  0.37068808372E+03  0.00000000000E+00 0. -1.
         11    1    1    2    0    0  0.40914615600E+02  0.69776935275E+01  0.43525498821E+02  0.60142855138E+02  0.00000000000E+00 0.  1.
</event>
<event>
 7    1  0.3151015E-009  0.1405228E+03  0.7561462E-02  0.1212627E+00
          1   -1    0    0  501    0  0.00000000000E+00  0.00000000000E+00  0.79196036044E+03  0.79196036044E+03  0.00000000000E+00 0. -1.
         -1   -1    0    0    0  501 -0.00000000000E+00 -0.00000000000E+00 -0.35981178264E+02  0.35981178264E+02  0.00000000000E+00 0.  1.
         25    2    1    2    0    0 -0.50895694616E+02 -0.10048265583E+03  0.55547679512E+03  0.58042351005E+03  0.12509934152E+03 0.  0.
          5    1    3    3  502    0 -0.78739652023E+02 -0.55989742223E+02  0.47142139525E+03  0.48123839034E+03  0.41800000000E+01 0. -1.
         -5    1    3    3    0  502  0.27843957407E+02 -0.44492913603E+02  0.84055399868E+02  0.99185119710E+02  0.41800000000E+01 0. -1.
        -11    1    1    2    0    0 -0.16965530245E+02  0.24622659229E+02  0.99998645974E+01  0.31529380837E+02  0.00000000000E+00 0.  1.
         11    1    1    2    0    0  0.67861224861E+02  0.75859996597E+02  0.19050252246E+03  0.21598864782E+03  0.00000000000E+00 0. -1.
</event>
<event>
 7    1  0.3151015E-009  0.1114423E+03  0.7561462E-02  0.1257922E+00
         -2   -1    0    0    0  501 -0.00000000000E+00  0.00000000000E+00  0.68353587066E+01  0.68353587066E+01  0.00000000000E+00 0.  1.
          2   -1    0    0  501    0  0.00000000000E+00 -0.00000000000E+00 -0.37125642571E+04  0.37125642571E+04  0.00000000000E+00 0. -1.
         25    2    1    2    0    0  0.10585481407E+02  0.41212549452E+02 -0.32523197890E+04  0.32550028650E+04  0.12509642150E+03 0.  0.
          5    1    3    3  502    0 -0.40351786761E+02 -0.17891717753E+02 -0.18311320615E+04  0.18316687690E+04  0.41800000000E+01 0.  1.
         -5    1    3    3    0  502  0.50937268168E+02  0.59104267205E+02 -0.14211877275E+04  0.14233340960E+04  0.41800000000E+01 0.  1.
        -11    1    1    2    0    0 -0.47090103862E+02 -0.24350895988E+01 -0.20934843294E+03  0.21459304256E+03  0.00000000000E+00 0.  1.
         11    1    1    2    0    0  0.36504622455E+02 -0.38777459853E+02 -0.24406067642E+03  0.24980370820E+03  0.00000000000E+00 0. -1.
</event>
<event>
 7    1  0.3151015E-009  0.2111452E+03  0.7561462E-02  0.1140662E+00
          2   -1    0    0  501    0  0.00000000000E+00  0.00000000000E+00  0.75628929707E+03  0.75628929707E+03  0.00000000000E+00 0. -1.
         -2   -1    0    0    0  501 -0.00000000000E+00 -0.00000000000E+00 -0.92738514944E+02  0.92738514944E+02  0.00000000000E+00 0.  1.
         25    2    1    2    0    0 -0.41567391850E+02 -0.19406331044E+03  0.12062495483E+03  0.26379161102E+03  0.12508883959E+03 0.  0.
          5    1    3    3  502    0  0.13123336715E+02 -0.51450489306E+02 -0.19255489189E+02  0.56635863905E+02  0.41800000000E+01 0.  1.
         -5    1    3    3    0  502 -0.54690728565E+02 -0.14261282113E+03  0.13988044402E+03  0.20715574711E+03  0.41800000000E+01 0.  1.
        -11    1    1    2    0    0  0.55501314573E+02  0.61118620057E+02  0.24930773253E+03  0.26262183294E+03  0.00000000000E+00 0. -1.
         11    1    1    2    0    0 -0.13933922723E+02  0.13294469038E+03  0.29361809477E+03  0.32261436806E+03  0.00000000000E+00 0.  1.
</event>
<event>
 7    1  0.3151015E-009  0.8965424E+02  0.7561462E-02  0.1303691E+00
         -1   -1    0    0    0  501 -0.00000000000E+00  0.00000000000E+00  0.10732969101E+03  0.10732969101E+03  0.00000000000E+00 0.  1.
          1   -1    0    0  501    0  0.00000000000E+00 -0.00000000000E+00 -0.15645925213E+03  0.15645925213E+03  0.00000000000E+00 0. -1.
         25    2    1    2    0    0  0.47934254106E+02 -0.33957622739E+02  0.12553226138E+02  0.13875295657E+03  0.12507592339E+03 0.  0.
          5    1    3    3  502    0  0.28050550230E+02  0.43408855439E+01 -0.52937428349E+02  0.60212294224E+02  0.41800000000E+01 0. -1.
         -5    1    3    3    0  502  0.19883703876E+02 -0.38298508283E+02  0.65490654487E+02  0.78540662345E+02  0.41800000000E+01 0. -1.
        -11    1    1    2    0    0 -0.28972107032E+02  0.64843291885E+02 -0.30767615050E+02  0.77399493695E+02  0.00000000000E+00 0. -1.
         11    1    1    2    0    0 -0.18962147074E+02 -0.30885669146E+02 -0.30915172213E+02  0.47636492873E+02  0.00000000000E+00 0.  1.
</event>
<event>
 7    1  0.3151015E-009  0.9973136E+02  0.7561462E-02  0.1280862E+00
         -2   -1    0    0    0  501 -0.00000000000E+00  0.00000000000E+00  0.19085406340E+03  0.19085406340E+03  0.00000000000E+00 0.  1.
          2   -1    0    0  501    0  0.00000000000E+00 -0.00000000000E+00 -0.79864280604E+02  0.79864280604E+02  0.00000000000E+00 0. -1.
         25    2    1    2    0    0  0.50821041496E+02 -0.28896277682E+02  0.63074849253E+02  0.15179961311E+03  0.12508762053E+03 0.  0.
          5    1    3    3  502    0  0.52305132581E+02 -0.52877096253E+02  0.89096896881E+02  0.11613588436E+03  0.41800000000E+01 0. -1.
         -5    1    3    3    0  502 -0.14840910855E+01  0.23980818570E+02 -0.26022047628E+02  0.35663728751E+02  0.41800000000E+01 0. -1.
        -11    1    1    2    0    0  0.16924414778E+02  0.28133510870E+02 -0.46619481281E+01  0.33161182274E+02  0.00000000000E+00 0. -1.
         11    1    1    2    0    0 -0.67745456274E+02  0.76276681244E+00  0.52576881671E+02  0.85757548619E+02  0.00000000000E+00 0.  1.
</event>
<event>
 7    1  0.3151015E-009  0.1230558E+03  0.7561462E-02  0.1238139E+00
         -1   -1    0    0    0  501 -0.00000000000E+00  0.00000000000E+00  0.58846727604E+02  0.58846727604E+02  0.00000000000E+00 0. -1.
          1   -1    0    0  501    0  0.00000000000E+00 -0.00000000000E+00 -0.29343060512E+03  0.29343060512E+03  0.00000000000E+00 0.  1.
         25    2    1    2    0    0  0.33768723386E+02 -0.54570299679E+02 -0.17797052079E+03  0.22680299416E+03  0.12509135702E+03 0.  0.
          5    1    3    3  502    0 -0.42417767861E+02 -0.47443609004E+02 -0.86583533025E+02  0.10753763833E+03  0.41800000000E+01 0.  1.
         -5    1    3    3    0  502  0.76186491246E+02 -0.71266906747E+01 -0.91386987767E+02  0.11926535583E+03  0.41800000000E+01 0.  1.
        -11    1    1    2    0    0 -0.28292091842E+02 -0.17601876010E+02  0.42160286763E+00  0.33323358907E+02  0.00000000000E+00 0. -1.
         11    1    1    2    0    0 -0.54766315436E+01  0.72172175689E+02 -0.57034959589E+02  0.92150979659E+02  0.00000000000E+00 0.  1.
</event>
<event>
 7    1  0.3151015E-009  0.2055787E+03  0.7561462E-02  0.1145116E+00
          2   -1    0    0  501    0  0.00000000000E+00  0.00000000000E+00  0.31553094071E+03  0.31553094071E+03  0.00000000000E+00 0. -1.
         -2   -1    0    0    0  501 -0.00000000000E+00 -0.00000000000E+00 -0.22207878079E+03  0.22207878079E+03  0.00000000000E+00 0.  1.
         25    2    1    2    0    0 -0.16573767486E+03  0.56084198700E+02 -0.12043528508E+03  0.24650795783E+03  0.12508837342E+03 0.  0.
          5    1    3    3  502    0 -0.18425086417E+03  0.38251795095E+02 -0.98404930561E+02  0.21239723053E+03  0.41800000000E+01 0. -1.
         -5    1    3    3    0  502  0.18513189308E+02  0.17832403605E+02 -0.22030354520E+02  0.34110727301E+02  0.41800000000E+01 0.  1.
        -11    1    1    2    0    0  0.44226113218E+02 -0.60920598760E+02  0.71129172942E+02  0.10356943414E+03  0.00000000000E+00 0.  1.
         11    1    1    2    0    0  0.12151156165E+03  0.48364000606E+01  0.14275827206E+03  0.18753232954E+03  0.00000000000E+00 0. -1.
</event>
<event>
 7    1  0.3151015E-009  0.1160098E+03  0.7561462E-02  0.1249829E+00
          2   -1    0    0  501    0  0.00000000000E+00  0.00000000000E+00  0.39710650347E+03  0.39710650347E+03  0.00000000000E+00 0. -1.
         -2   -1    0    0    0  501 -0.00000000000E+00 -0.00000000000E+00 -0.78394487286E+02  0.78394487286E+02  0.00000000000E+00 0.  1.
         25    2    1    2    0    0  0.10228389660E+03 -0.25097803000E+02  0.46530595826E+02  0.17001219188E+03  0.12508858389E+03 0.  0.
          5    1    3    3  502    0  0.88344895281E+02 -0.42676596495E+02 -0.19526499230E+02  0.10012426770E+03  0.41800000000E+01 0. -1.
         -5    1    3    3    0  502  0.13939001318E+02  0.17578793496E+02  0.66057095056E+02  0.69887924177E+02  0.41800000000E+01 0. -1.
        -11    1    1    2    0    0 -0.80942887798E+02  0.40824258429E+01  0.91040763041E+02  0.12188862876E+03  0.00000000000E+00 0.  1.
         11    1    1    2    0    0 -0.21341008801E+02  0.21015377157E+02  0.18114065732E+03  0.18360017012E+03  0.00000000000E+00 0. -1.
</event>
<event>
 7    1  0.3151015E-009  0.1010783E+03  0.7561462E-02  0.1278045E+00
         -1   -1    0    0    0  501 -0.00000000000E+00  0.00000000000E+00  0.46163025857E+02  0.46163025857E+02  0.00000000000E+00 0.  1.
          1   -1    0    0  501    0  0.00000000000E+00 -0.00000000000E+00 -0.36055011154E+03  0.36055011154E+03  0.00000000000E+00 0. -1.
         25    2    1    2    0    0  0.16269985291E+02  0.25660599139E+02 -0.27583393556E+03  0.30439046500E+03  0.12508403737E+03 0.  0.
          5    1    3    3  502    0  0.34350662231E+02 -0.42341074341E+02 -0.86219995384E+02  0.10209845531E+03  0.41800000000E+01 0. -1.
         -5    1    3    3    0  502 -0.18080676940E+02  0.68001673480E+02 -0.18961394018E+03  0.20229200969E+03  0.41800000000E+01 0. -1.
        -11    1    1    2    0    0 -0.44280243445E+02 -0.12330743635E+02 -0.51215742770E+02  0.68817436058E+02  0.00000000000E+00 0. -1.
         11    1    1    2    0    0  0.28010258154E+02 -0.13329855504E+02  0.12662592650E+02  0.33505236340E+02  0.00000000000E+00 0.  1.
</event>
<event>
 7    1  0.3151015E-009  0.6645082E+02  0.7561462E-02  0.1372596E+00
          1   -1    0    0  501    0  0.00000000000E+00  0.00000000000E+00  0.62374512536E+02  0.62374512536E+02  0.00000000000E+00 0. -1.
         -1   -1    0    0    0  501 -0.00000000000E+00 -0.00000000000E+00 -0.21033217205E+03  0.21033217205E+03  0.00000000000E+00 0.  1.
         25    2    1    2    0    0 -0.23573447591E+02  0.11677471368E+02 -0.52863048934E+02  0.13833220562E+03  0.12509686806E+03 0.  0.
          5    1    3    3  502    0 -0.40813981149E+02  0.35978658075E+02  0.21082810959E+02  0.58499591554E+02  0.41800000000E+01 0. -1.
         -5    1    3    3    0  502  0.17240533558E+02 -0.24301186706E+02 -0.73945859894E+02  0.79832614063E+02  0.41800000000E+01 0. -1.
        -11    1    1    2    0    0  0.34809551197E+02 -0.12484542133E+02 -0.10979418670E+03  0.11585478876E+03  0.00000000000E+00 0.  1.
         11    1    1    2    0    0 -0.11236103606E+02  0.80707076416E+00  0.14699576115E+02  0.18519690208E+02  0.00000000000E+00 0. -1.
</event>
<event>
 7    1  0.3151015E-009  0.1164685E+03  0.7561462E-02  0.1249039E+00
          1   -1    0    0  501    0  0.00000000000E+00  0.00000000000E+00  0.20849792128E+03  0.20849792128E+03  0.00000000000E+00 0. -1.
         -1   -1    0    0    0  501 -0.00000000000E+00 -0.00000000000E+00 -0.94359238624E+02  0.94359238624E+02  0.00000000000E+00 0.  1.
         25    2    1    2    0    0  0.45509847265E+01  0.63087527401E+02  0.13170758832E+03  0.19234005494E+03  0.12508821023E+03 0.  0.
          5    1    3    3  502    0 -0.59672535755E+02  0.38624270844E+02  0.63081381753E+02  0.95128223707E+02  0.41800000000E+01 0. -1.
         -5    1    3    3    0  502  0.64223520482E+02  0.24463256557E+02  0.68626206566E+02  0.97211831235E+02  0.41800000000E+01 0. -1.
        -11    1    1    2    0    0  0.24786991202E+02 -0.17031690927E+01 -0.32454388419E+02  0.40872766550E+02  0.00000000000E+00 0.  1.
         11    1    1    2    0    0 -0.29337975928E+02 -0.61384358309E+02  0.14885482761E+02  0.69644338417E+02  0.00000000000E+00 0. -1.
</event>
<event>
 7    1  0.3151015E-009  0.1733290E+03  0.7561462E-02  0.1174420E+00
          1   -1    0    0  501    0  0.00000000000E+00  0.00000000000E+00  0.11166488383E+03  0.11166488383E+03  0.00000000000E+00 0. -1.
         -1   -1    0    0    0  501 -0.00000000000E+00 -0.00000000000E+00 -0.52784128924E+03  0.52784128924E+03  0.00000000000E+00 0.  1.
         25    2    1    2    0    0  0.14028227376E+03 -0.12129100464E+02  0.98755449932E-01  0.18834424527E+03  0.12508922241E+03 0.  0.
          5    1    3    3  502    0 -0.13199184585E+02  0.17623707545E+02 -0.20779034189E+02  0.30562300358E+02  0.41800000000E+01 0.  1.
         -5    1    3    3    0  502  0.15348145834E+03 -0.29752808009E+02  0.20877789639E+02  0.15778194491E+03  0.41800000000E+01 0.  1.
        -11    1    1    2    0    0 -0.31847266874E+02  0.44469117381E+02 -0.19645668863E+03  0.20392886337E+03  0.00000000000E+00 0.  1.
         11    1    1    2    0    0 -0.10843500688E+03 -0.32340016917E+02 -0.21981847223E+03  0.24723306443E+03  0.00000000000E+00 0. -1.
</event>
<event>
 7    1  0.3151015E-009  0.1171881E+03  0.7561462E-02  0.1247809E+00
          2   -1    0    0  501    0  0.00000000000E+00  0.00000000000E+00  0.10650352118E+04  0.10650352118E+04  0.00000000000E+00 0. -1.
         -2   -1    0    0    0  501 -0.00000000000E+00 -0.00000000000E+00 -0.14023372849E+02  0.14023372849E+02  0.00000000000E+00 0.  1.
         25    2    1    2    0    0  0.54004260748E+02  0.59539858690E+01  0.62070677118E+03  0.63551825908E+03  0.12511855063E+03 0.  0.
          5    1    3    3  502    0 -0.74048490997E+01 -0.51279761013E+02  0.26053071522E+03  0.26566552590E+03  0.41800000000E+01 0.  1.
         -5    1    3    3    0  502  0.61409109848E+02  0.57233746882E+02  0.36017605596E+03  0.36985273318E+03  0.41800000000E+01 0.  1.
        -11    1    1    2    0    0 -0.43982300589E+02 -0.42071890691E+02  0.34551532497E+03  0.35083518430E+03  0.00000000000E+00 0. -1.
         11    1    1    2    0    0 -0.10021960159E+02  0.36117904822E+02  0.84789742844E+02  0.92705141313E+02  0.00000000000E+00 0.  1.
</event>
<event>
 7    1  0.3151015E-009  0.7456665E+02  0.7561462E-02  0.1345218E+00
         -1   -1    0    0    0  501 -0.00000000000E+00  0.00000000000E+00  0.17603507459E+03  0.17603507459E+03  0.00000000000E+00 0.  1.
          1   -1    0    0  501    0  0.00000000000E+00 -0.00000000000E+00 -0.15135722899E+03  0.15135722899E+03  0.00000000000E+00 0. -1.
         25    2    1    2    0    0  0.47383094299E+02 -0.48630913991E+02 -0.89759052142E+02  0.16826741423E+03  0.12508841605E+03 0.  0.
          5    1    3    3  502    0  0.15917968815E+02 -0.36988924635E+02 -0.11766117860E+03  0.12443145754E+03  0.41800000000E+01 0. -1.
         -5    1    3    3    0  502  0.31465125484E+02 -0.11641989357E+02  0.27902126458E+02  0.43835956688E+02  0.41800000000E+01 0. -1.
        -11    1    1    2    0    0 -0.34373379262E+02  0.12732126217E+02 -0.18772307451E+01  0.36703681493E+02  0.00000000000E+00 0. -1.
         11    1    1    2    0    0 -0.13009715037E+02  0.35898787774E+02  0.11631412849E+03  0.12242120786E+03  0.00000000000E+00 0.  1.
</event>
<event>
 7    1  0.3151015E-009  0.9168400E+02  0.7561462E-02  0.1298824E+00
          2   -1    0    0  501    0  0.00000000000E+00  0.00000000000E+00  0.26172022929E+03  0.26172022929E+03  0.00000000000E+00 0. -1.
         -2   -1    0    0    0  501 -0.00000000000E+00 -0.00000000000E+00 -0.45603360179E+02  0.45603360179E+02  0.00000000000E+00 0.  1.
         25    2    1    2    0    0  0.24467272553E+01 -0.78048510901E+01  0.10030757445E+03  0.16055197856E+03  0.12509366952E+03 0.  0.
          5    1    3    3  502    0  0.40133232933E+01  0.46675730916E+02  0.94529579671E+02  0.10558430022E+03  0.41800000000E+01 0.  1.
         -5    1    3    3    0  502 -0.15665960380E+01 -0.54480582006E+02  0.57779947813E+01  0.54967678344E+02  0.41800000000E+01 0.  1.
        -11    1    1    2    0    0  0.17769729016E+02  0.39934753145E+02  0.92283857409E+02  0.10211198811E+03  0.00000000000E+00 0. -1.
         11    1    1    2    0    0 -0.20216456271E+02 -0.32129902055E+02  0.23525437252E+02  0.44659622794E+02  0.00000000000E+00 0.  1.
</event>
<event>
 7    1  0.3151015E-009  0.1302598E+03  0.7561462E-02  0.1227071E+00
          1   -1    0    0  501    0  0.00000000000E+00  0.00000000000E+00  0.36765291848E+03  0.36765291848E+03  0.00000000000E+00 0. -1.
         -1   -1    0    0    0  501 -0.00000000000E+00 -0.00000000000E+00 -0.67296265135E+02  0.67296265135E+02  0.00000000000E+00 0.  1.
         25    2    1    2    0    0 -0.76596220889E+02 -0.18966369450E+02  0.47467437948E+02  0.15535919116E+03  0.12512640164E+03 0.  0.
          5    1    3    3  502    0  0.30131969913E+02  0.82219299173E+01 -0.72092545210E+01  0.32326173500E+02  0.41800000000E+01 0.  1.
         -5    1    3    3    0  502 -0.10672819080E+03 -0.27188299367E+02  0.54676692469E+02  0.12303301766E+03  0.41800000000E+01 0.  1.
        -11    1    1    2    0    0  0.96769139780E+02  0.19009353661E+02  0.20022214163E+03  0.22319168430E+03  0.00000000000E+00 0.  1.
         11    1    1    2    0    0 -0.20172918891E+02 -0.42984211090E-01  0.52667073770E+02  0.56398308164E+02  0.00000000000E+00 0. -1.
</event>
<event>
 7    1  0.3151015E-009  0.1209676E+03  0.7561462E-02  0.1241509E+00
         -2   -1    0    0    0  501 -0.00000000000E+00  0.00000000000E+00  0.29253091616E+02  0.29253091616E+02  0.00000000000E+00 0.  1.
          2   -1    0    0  501    0  0.00000000000E+00 -0.00000000000E+00 -0.83728606806E+03  0.83728606806E+03  0.00000000000E+00 0. -1.
         25    2    1    2    0    0  0.14498753620E+02  0.10976731753E+03 -0.39522072066E+03  0.42907476132E+03  0.12508658964E+03 0.  0.
          5    1    3    3  502    0  0.15941892116E+02  0.92989847269E+02 -0.11720535137E+03  0.15051851185E+03  0.41800000000E+01 0. -1.
         -5    1    3    3    0  502 -0.14431384962E+01  0.16777470259E+02 -0.27801536929E+03  0.27855624947E+03  0.41800000000E+01 0. -1.
        -11    1    1    2    0    0 -0.35577497114E+02 -0.26798688562E+02 -0.61888445214E+02  0.76250296134E+02  0.00000000000E+00 0.  1.
         11    1    1    2    0    0  0.21078743494E+02 -0.82968628966E+02 -0.35092381057E+03  0.36121410223E+03  0.00000000000E+00 0. -1.
</event>
<event>
 7    1  0.3151015E-009  0.1180802E+03  0.7561462E-02  0.1246298E+00
          1   -1    0    0  501    0  0.00000000000E+00  0.00000000000E+00  0.96609180642E+02  0.96609180642E+02  0.00000000000E+00 0. -1.
         -1   -1    0    0    0  501 -0.00000000000E+00 -0.00000000000E+00 -0.23654045865E+03  0.23654045865E+03  0.00000000000E+00 0.  1.
         25    2    1    2    0    0 -0.46575789667E+02  0.40270148305E+02  0.17384998394E+02  0.14049956214E+03  0.12508756839E+03 0.  0.
          5    1    3    3  502    0  0.32029364213E+02  0.32750359722E+02 -0.23309306126E+02  0.51568036475E+02  0.41800000000E+01 0. -1.
         -5    1    3    3    0  502 -0.78605153880E+02  0.75197885834E+01  0.40694304520E+02  0.88931525666E+02  0.41800000000E+01 0. -1.
        -11    1    1    2    0    0 -0.28359896484E+02 -0.14435190967E+02 -0.49086743110E+02  0.58499289021E+02  0.00000000000E+00 0. -1.
         11    1    1    2    0    0  0.74935686151E+02 -0.25834957338E+02 -0.10822953329E+03  0.13415078813E+03  0.00000000000E+00 0.  1.
</event>
<event>
 7    1  0.3151015E-009  0.1079206E+03  0.7561462E-02  0.1264470E+00
         -2   -1    0    0    0  501 -0.00000000000E+00  0.00000000000E+00  0.48409790287E+03  0.48409790287E+03  0.00000000000E+00 0.  1.
          2   -1    0    0  501    0  0.00000000000E+00 -0.00000000000E+00 -0.30908079441E+02  0.30908079441E+02  0.00000000000E+00 0. -1.
         25    2    1    2    0    0  0.34312052546E+02  0.41328211353E+02  0.21807103295E+03  0.25707302314E+03  0.12508487442E+03 0.  0.
          5    1    3    3  502    0 -0.31309095207E+02  0.37039671290E+02  0.28573388322E+02  0.56445616412E+02  0.41800000000E+01 0. -1.
         -5    1    3    3    0  502  0.65621147753E+02  0.42885400634E+01  0.18949764463E+03  0.20062740673E+03  0.41800000000E+01 0. -1.
        -11    1    1    2    0    0 -0.43197973096E+02 -0.63831057233E+02  0.20674689514E+03  0.22064620413E+03  0.00000000000E+00 0.  1.
         11    1    1    2    0    0  0.88859205502E+01  0.22502845880E+02  0.28371895336E+02  0.37286755044E+02  0.00000000000E+00 0. -1.
</event>
<event>
 7    1  0.3264390E-009  0.1710654E+03  0.7561462E-02  0.1176741E+00
         -2   -1    0    0    0  501 -0.00000000000E+00  0.00000000000E+00  0.71077742440E+02  0.71077742440E+02  0.00000000000E+00 0.  1.
          2   -1    0    0  501    0  0.00000000000E+00 -0.00000000000E+00 -0.45656973233E+03  0.45656973233E+03  0.00000000000E+00 0. -1.
         25    2    1    2    0    0 -0.11232658225E+03 -0.84884337329E+02 -0.24156648498E+03  0.30630779335E+03  0.12508991086E+03 0.  0.
          5    1    3    3  502    0 -0.12607343932E+03 -0.34286181062E+02 -0.13759732759E+03  0.18979080924E+03  0.41800000000E+01 0.  1.
         -5    1    3    3    0  502  0.13746857074E+02 -0.50598156267E+02 -0.10396915739E+03  0.11651698411E+03  0.41800000000E+01 0.  1.
        -11    1    1    2    0    0  0.67092694289E+02  0.53378974844E+01 -0.98179203570E+02  0.11903393966E+03  0.00000000000E+00 0. -1.
         11    1    1    2    0    0  0.45233887958E+02  0.79546439845E+02 -0.45746301348E+02  0.10230574177E+03  0.00000000000E+00 0.  1.
</event>
<event>
 7    1  0.3151015E-009  0.6319936E+02  0.7561462E-02  0.1384876E+00
         -1   -1    0    0    0  501 -0.00000000000E+00  0.00000000000E+00  0.76191758944E+02  0.76191758944E+02  0.00000000000E+00 0.  1.
          1   -1    0    0  501    0  0.00000000000E+00 -0.00000000000E+00 -0.18513741518E+03  0.18513741518E+03  0.00000000000E+00 0. -1.
         25    2    1    2    0    0 -0.43610397840E+01  0.10386928531E+02 -0.11383823555E+03  0.16950893689E+03  0.12508888384E+03 0.  0.
          5    1    3    3  502    0 -0.36212497746E+02  0.22709114889E+02 -0.12591990608E+03  0.13304263993E+03  0.41800000000E+01 0. -1.
         -5    1    3    3    0  502  0.31851457962E+02 -0.12322186358E+02  0.12081670535E+02  0.36466296959E+02  0.41800000000E+01 0. -1.
        -11    1    1    2    0    0 -0.34543849756E+01  0.18653365186E+02 -0.36217118208E+02  0.40884721592E+02  0.00000000000E+00 0. -1.
         11    1    1    2    0    0  0.78154247596E+01 -0.29040293717E+02  0.41109697520E+02  0.50935515640E+02  0.00000000000E+00 0.  1.
</event>
<event>
 7    1  0.3151015E-009  0.4239864E+03  0.7561462E-02  0.1035777E+00
          1   -1    0    0  501    0  0.00000000000E+00  0.00000000000E+00  0.62554752319E+03  0.62554752319E+03  0.00000000000E+00 0. -1.
         -1   -1    0    0    0  501 -0.00000000000E+00 -0.00000000000E+00 -0.85627035132E+03  0.85627035132E+03  0.00000000000E+00 0.  1.
         25    2    1    2    0    0 -0.32537577837E+03  0.26656344940E+03  0.48055516946E+03  0.65077524216E+03  0.12509866190E+03 0.  0.
          5    1    3    3  502    0 -0.15174873908E+02  0.27439214697E+02  0.99113964993E+02  0.10403959707E+03  0.41800000000E+01 0. -1.
         -5    1    3    3    0  502 -0.31020090446E+03  0.23912423471E+03  0.38144120447E+03  0.54673564509E+03  0.41800000000E+01 0. -1.
        -11    1    1    2    0    0  0.27317216271E+03 -0.24883583380E+03 -0.56900016460E+03  0.67845669720E+03  0.00000000000E+00 0. -1.
         11    1    1    2    0    0  0.52203615660E+02 -0.17727615602E+02 -0.14227783299E+03  0.15258593514E+03  0.00000000000E+00 0.  1.
</event>
<event>
 7    1  0.3151015E-009  0.1613170E+03  0.7561462E-02  0.1187218E+00
         -2   -1    0    0    0  501 -0.00000000000E+00  0.00000000000E+00  0.23659353838E+03  0.23659353838E+03  0.00000000000E+00 0.  1.
          2   -1    0    0  501    0  0.00000000000E+00 -0.00000000000E+00 -0.14504200846E+03  0.14504200846E+03  0.00000000000E+00 0. -1.
         25    2    1    2    0    0 -0.13687433625E+03  0.38299942737E+01 -0.14168513844E+02  0.18600506765E+03  0.12509150902E+03 0.  0.
          5    1    3    3  502    0 -0.38769674629E+02  0.60570419222E+02 -0.68078453972E+01  0.72358016242E+02  0.41800000000E+01 0. -1.
         -5    1    3    3    0  502 -0.98104661619E+02 -0.56740424948E+02 -0.73606684468E+01  0.11364705141E+03  0.41800000000E+01 0. -1.
        -11    1    1    2    0    0  0.28516033808E+02 -0.42394945157E+01  0.78899346041E+02  0.84001454176E+02  0.00000000000E+00 0.  1.
         11    1    1    2    0    0  0.10835830244E+03  0.40950024203E+00  0.26820697725E+02  0.11162902501E+03  0.00000000000E+00 0. -1.
</event>
<event>
 7    1  0.3151015E-009  0.6659118E+02  0.7561462E-02  0.1372084E+00
          1   -1    0    0  501    0  0.00000000000E+00  0.00000000000E+00  0.53633717462E+02  0.53633717462E+02  0.00000000000E+00 0. -1.
         -1   -1    0    0    0  501 -0.00000000000E+00 -0.00000000000E+00 -0.24634747605E+03  0.24634747605E+03  0.00000000000E+00 0.  1.
         25    2    1    2    0    0 -0.11622746185E+02 -0.30726353983E+00 -0.60823953144E+02  0.13958020393E+03  0.12509155612E+03 0.  0.
          5    1    3    3  502    0 -0.88151070914E+01  0.35094740942E+02  0.26614426555E+02  0.45112604178E+02  0.41800000000E+01 0.  1.
         -5    1    3    3    0  502 -0.28076390934E+01 -0.35402004482E+02 -0.87438379699E+02  0.94467599752E+02  0.41800000000E+01 0.  1.
        -11    1    1    2    0    0  0.79797113523E+00 -0.29384372069E+02 -0.12452958166E+03  0.12795192373E+03  0.00000000000E+00 0.  1.
         11    1    1    2    0    0  0.10824775049E+02  0.29691635609E+02 -0.73602237843E+01  0.32449065845E+02  0.00000000000E+00 0. -1.
</event>
<event>
 7    1  0.3151015E-009  0.1203862E+03  0.7561462E-02  0.1242461E+00
         -1   -1    0    0    0  501 -0.00000000000E+00  0.00000000000E+00  0.19717125672E+03  0.19717125672E+03  0.00000000000E+00 0.  1.
          1   -1    0    0  501    0  0.00000000000E+00 -0.00000000000E+00 -0.18033838631E+03  0.18033838631E+03  0.00000000000E+00 0. -1.
         25    2    1    2    0    0 -0.66608124574E+02 -0.46834591766E+02  0.13709043885E+03  0.20266155024E+03  0.12509114388E+03 0.  0.
          5    1    3    3  502    0 -0.97494316841E+02 -0.51683896208E+02  0.12955679312E+03  0.17023161277E+03  0.41800000000E+01 0.  1.
         -5    1    3    3    0  502  0.30886192267E+02  0.48493044414E+01  0.75336457342E+01  0.32429937471E+02  0.41800000000E+01 0.  1.
        -11    1    1    2    0    0  0.21076206213E+01 -0.11587877124E+02  0.11814185937E+02  0.16682204598E+02  0.00000000000E+00 0.  1.
         11    1    1    2    0    0  0.64500503952E+02  0.58422468890E+02 -0.13207175438E+03  0.15816588819E+03  0.00000000000E+00 0. -1.
</event>
<event>
 7    1  0.3151015E-009  0.1021745E+03  0.7561462E-02  0.1275789E+00
          1   -1    0    0  501    0  0.00000000000E+00  0.00000000000E+00  0.11146108950E+03  0.11146108950E+03  0.00000000000E+00 0. -1.
         -1   -1    0    0    0  501 -0.00000000000E+00 -0.00000000000E+00 -0.15302707888E+03  0.15302707888E+03  0.00000000000E+00 0.  1.
         25    2    1    2    0    0  0.70604316940E+02  0.12693001552E+02 -0.19697200417E+02  0.14554076106E+03  0.12509217228E+03 0.  0.
          5    1    3    3  502    0  0.76019842294E+02 -0.10086068353E+02 -0.60866758610E+02  0.97994795274E+02  0.41800000000E+01 0. -1.
         -5    1    3    3    0  502 -0.54155253539E+01  0.22779069905E+02  0.41169558192E+02  0.47545965784E+02  0.41800000000E+01 0. -1.
        -11    1    1    2    0    0 -0.78459603056E+02 -0.30596295777E+02 -0.39135453070E+02  0.92863482134E+02  0.00000000000E+00 0.  1.
         11    1    1    2    0    0  0.78552861163E+01  0.17903294225E+02  0.17266664109E+02  0.26083925194E+02  0.00000000000E+00 0. -1.
</event>
<event>
 7    1  0.3151015E-009  0.1621250E+03  0.7561462E-02  0.1186318E+00
          4   -1    0    0  501    0  0.00000000000E+00  0.00000000000E+00  0.10982503268E+03  0.10982503268E+03  0.00000000000E+00 0. -1.
         -4   -1    0    0    0  501 -0.00000000000E+00 -0.00000000000E+00 -0.30500676902E+03  0.30500676902E+03  0.00000000000E+00 0.  1.
         25    2    1    2    0    0 -0.40521910714E+02  0.12433011780E+03 -0.23130527805E+02  0.18243733200E+03  0.12509338652E+03 0.  0.
          5    1    3    3  502    0 -0.51161273999E+02  0.14143641622E+03 -0.40158961182E+02  0.15573037711E+03  0.41800000000E+01 0.  1.
         -5    1    3    3    0  502  0.10639363286E+02 -0.17106298416E+02  0.17028433376E+02  0.26706954897E+02  0.41800000000E+01 0.  1.
        -11    1    1    2    0    0  0.64629951399E+02 -0.99132282760E+02 -0.15029069918E+03  0.19128913812E+03  0.00000000000E+00 0.  1.
         11    1    1    2    0    0 -0.24108040685E+02 -0.25197835045E+02 -0.21760509363E+02  0.41105331581E+02  0.00000000000E+00 0. -1.
</event>
<event>
 7    1  0.3151015E-009  0.1583121E+03  0.7561462E-02  0.1190616E+00
         -3   -1    0    0    0  501 -0.00000000000E+00  0.00000000000E+00  0.17311974018E+02  0.17311974018E+02  0.00000000000E+00 0.  1.
          3   -1    0    0  501    0  0.00000000000E+00 -0.00000000000E+00 -0.20197563976E+04  0.20197563976E+04  0.00000000000E+00 0. -1.
         25    2    1    2    0    0  0.76765807928E+02  0.11406705575E+03 -0.14062618524E+04  0.14184939719E+04  0.12509383728E+03 0.  0.
          5    1    3    3  502    0  0.10479955633E+02  0.10855939952E+03 -0.10795927986E+04  0.10850958740E+04  0.41800000000E+01 0. -1.
         -5    1    3    3    0  502  0.66285852295E+02  0.55076562275E+01 -0.32666905388E+03  0.33339809785E+03  0.41800000000E+01 0. -1.
        -11    1    1    2    0    0 -0.51435923350E+02 -0.98451197924E+02 -0.56362865613E+03  0.57446980303E+03  0.00000000000E+00 0. -1.
         11    1    1    2    0    0 -0.25329884578E+02 -0.15615857822E+02 -0.32553914970E+02  0.44104596678E+02  0.00000000000E+00 0.  1.
</event>
<event>
 7    1  0.3151015E-009  0.1058175E+03  0.7561462E-02  0.1268517E+00
          1   -1    0    0  501    0  0.00000000000E+00  0.00000000000E+00  0.41560314395E+03  0.41560314395E+03  0.00000000000E+00 0. -1.
         -1   -1    0    0    0  501 -0.00000000000E+00 -0.00000000000E+00 -0.36353233506E+02  0.36353233506E+02  0.00000000000E+00 0.  1.
         25    2    1    2    0    0 -0.20172554900E+01  0.50773133695E+02  0.16400150672E+03  0.21242630902E+03  0.12508581907E+03 0.  0.
          5    1    3    3  502    0 -0.53354710445E+02  0.27441198392E+02  0.30481838499E+02  0.67426696302E+02  0.41800000000E+01 0. -1.
         -5    1    3    3    0  502  0.51337454955E+02  0.23331935303E+02  0.13351966822E+03  0.14499961272E+03  0.41800000000E+01 0. -1.
        -11    1    1    2    0    0 -0.24310922858E+02 -0.61794249614E+02  0.19053763031E+03  0.20177744874E+03  0.00000000000E+00 0. -1.
         11    1    1    2    0    0  0.26328178348E+02  0.11021115919E+02  0.24710773407E+02  0.37752619692E+02  0.00000000000E+00 0.  1.
</event>
<event>
 7    1  0.3151015E-009  0.9356981E+02  0.7561462E-02  0.1294430E+00
         -1   -1    0    0    0  501 -0.00000000000E+00  0.00000000000E+00  0.48787030940E+02  0.48787030940E+02  0.00000000000E+00 0.  1.
          1   -1    0    0  501    0  0.00000000000E+00 -0.00000000000E+00 -0.31922028861E+03  0.31922028861E+03  0.00000000000E+00 0. -1.
         25    2    1    2    0    0  0.41740956512E+02 -0.74509677186E+00 -0.83037869034E+02  0.15583809710E+03  0.12508941680E+03 0.  0.
          5    1    3    3  502    0  0.72102303649E+02 -0.10138991604E+02 -0.96593686796E+02  0.12103451603E+03  0.41800000000E+01 0.  1.
         -5    1    3    3    0  502 -0.30361347137E+02  0.93938948322E+01  0.13555817762E+02  0.34803581070E+02  0.41800000000E+01 0.  1.
        -11    1    1    2    0    0 -0.16620444067E+02  0.35541938264E+02 -0.31036197368E+02  0.50027133474E+02  0.00000000000E+00 0.  1.
         11    1    1    2    0    0 -0.25120512445E+02 -0.34796841492E+02 -0.15635919127E+03  0.16214208898E+03  0.00000000000E+00 0. -1.
</event>
<event>
 7    1  0.3151015E-009  0.1207773E+03  0.7561462E-02  0.1241820E+00
          1   -1    0    0  501    0  0.00000000000E+00  0.00000000000E+00  0.39889475861E+03  0.39889475861E+03  0.00000000000E+00 0. -1.
         -1   -1    0    0    0  501 -0.00000000000E+00 -0.00000000000E+00 -0.42976933092E+02  0.42976933092E+02  0.00000000000E+00 0.  1.
         25    2    1    2    0    0 -0.42456437974E+02 -0.42705255075E+02  0.13862429499E+03  0.19618833984E+03  0.12508749574E+03 0.  0.
          5    1    3    3  502    0  0.37753934953E+02 -0.14156788937E+01  0.10500575182E+02  0.39434733806E+02  0.41800000000E+01 0.  1.
         -5    1    3    3    0  502 -0.80210372927E+02 -0.41289576181E+02  0.12812371981E+03  0.15675360604E+03  0.41800000000E+01 0.  1.
        -11    1    1    2    0    0 -0.25662626868E+02 -0.95474362404E+01  0.70460643699E+02  0.75593824265E+02  0.00000000000E+00 0.  1.
         11    1    1    2    0    0  0.68119064842E+02  0.52252691315E+02  0.14683288683E+03  0.17008952760E+03  0.00000000000E+00 0. -1.
</event>
<event>
 7    1  0.3151015E-009  0.1356070E+03  0.7561462E-02  0.1219365E+00
         -1   -1    0    0    0  501 -0.00000000000E+00  0.00000000000E+00  0.21408518178E+03  0.21408518178E+03  0.00000000000E+00 0.  1.
          1   -1    0    0  501    0  0.00000000000E+00 -0.00000000000E+00 -0.10401016972E+03  0.10401016972E+03  0.00000000000E+00 0. -1.
         25    2    1    2    0    0  0.19843952017E+01 -0.10144904307E+03  0.45573492435E+02  0.16739254497E+03  0.12508986664E+03 0.  0.
          5    1    3    3  502    0 -0.61122167396E+02 -0.42229992298E+02  0.19807385628E+02  0.77000626765E+02  0.41800000000E+01 0.  1.
         -5    1    3    3    0  502  0.63106562598E+02 -0.59219050770E+02  0.25766106807E+02  0.90391918207E+02  0.41800000000E+01 0.  1.
        -11    1    1    2    0    0 -0.22244723053E+02  0.45225181747E+02 -0.13748382354E+02  0.52241389578E+02  0.00000000000E+00 0.  1.
         11    1    1    2    0    0  0.20260327852E+02  0.56223861322E+02  0.78249901981E+02  0.98461416944E+02  0.00000000000E+00 0. -1.
</event>
<event>
 7    1  0.3151015E-009  0.1093437E+03  0.7561462E-02  0.1261790E+00
         -2   -1    0    0    0  501 -0.00000000000E+00  0.00000000000E+00  0.13083611062E+03  0.13083611062E+03  0.00000000000E+00 0.  1.
          2   -1    0    0  501    0  0.00000000000E+00 -0.00000000000E+00 -0.11682088778E+03  0.11682088778E+03  0.00000000000E+00 0. -1.
         25    2    1    2    0    0  0.33431252755E+02 -0.44932921203E+02  0.26645334899E+02  0.13962173412E+03  0.12509052202E+03 0.  0.
          5    1    3    3  502    0  0.29085702415E+02 -0.75907005958E+02 -0.19518379912E+02  0.83703591278E+02  0.41800000000E+01 0. -1.
         -5    1    3    3    0  502  0.43455503397E+01  0.30974084755E+02  0.46163714810E+02  0.55918142845E+02  0.41800000000E+01 0. -1.
        -11    1    1    2    0    0  0.12018188551E+02  0.57370021408E+02 -0.16103052127E+02  0.60787042206E+02  0.00000000000E+00 0. -1.
         11    1    1    2    0    0 -0.45449441306E+02 -0.12437100205E+02  0.34729400724E+01  0.47248222076E+02  0.00000000000E+00 0.  1.
</event>
<event>
 7    1  0.3151015E-009  0.1196450E+03  0.7561462E-02  0.1243684E+00
          1   -1    0    0  501    0  0.00000000000E+00  0.00000000000E+00  0.23290744447E+03  0.23290744447E+03  0.00000000000E+00 0. -1.
         -1   -1    0    0    0  501 -0.00000000000E+00 -0.00000000000E+00 -0.79237410448E+02  0.79237410448E+02  0.00000000000E+00 0.  1.
         25    2    1    2    0    0  0.78539189371E+02  0.18784502941E+02  0.94217111955E+02  0.17618880867E+03  0.12507745719E+03 0.  0.
          5    1    3    3  502    0 -0.33769909327E+02  0.34832761857E+01  0.31906697461E+02  0.46776593845E+02  0.41800000000E+01 0.  1.
         -5    1    3    3    0  502  0.11230909870E+03  0.15301226756E+02  0.62310414494E+02  0.12941221482E+03  0.41800000000E+01 0.  1.
        -11    1    1    2    0    0 -0.22854065388E+02 -0.26998961096E+02 -0.18410923203E+02  0.39877491122E+02  0.00000000000E+00 0.  1.
         11    1    1    2    0    0 -0.55685123982E+02  0.82144581542E+01  0.77863845269E+02  0.96078555129E+02  0.00000000000E+00 0. -1.
</event>
<event>
 7    1  0.3151015E-009  0.1357849E+03  0.7561462E-02  0.1219116E+00
         -2   -1    0    0    0  501 -0.00000000000E+00  0.00000000000E+00  0.64923198416E+02  0.64923198416E+02  0.00000000000E+00 0.  1.
          2   -1    0    0  501    0  0.00000000000E+00 -0.00000000000E+00 -0.39399565465E+03  0.39399565465E+03  0.00000000000E+00 0. -1.
         25    2    1    2    0    0  0.10411470570E+03 -0.52824709374E+02 -0.17874964468E+03  0.24744600547E+03  0.12509103999E+03 0.  0.
          5    1    3    3  502    0  0.10123224802E+03 -0.77397789740E+02 -0.92227227805E+02  0.15735857093E+03  0.41800000000E+01 0. -1.
         -5    1    3    3    0  502  0.28824576852E+01  0.24573080366E+02 -0.86522416876E+02  0.90087434545E+02  0.41800000000E+01 0. -1.
        -11    1    1    2    0    0 -0.22512050543E+02  0.22764563243E+02 -0.11191729740E+03  0.11640661157E+03  0.00000000000E+00 0. -1.
         11    1    1    2    0    0 -0.81602655160E+02  0.30060146131E+02 -0.38405514151E+02  0.95066236024E+02  0.00000000000E+00 0.  1.
</event>
<event>
 7    1  0.3151015E-009  0.2234418E+03  0.7561462E-02  0.1131343E+00
          2   -1    0    0  501    0  0.00000000000E+00  0.00000000000E+00  0.19266551776E+04  0.19266551776E+04  0.00000000000E+00 0. -1.
         -2   -1    0    0    0  501 -0.00000000000E+00 -0.00000000000E+00 -0.29182436404E+02  0.29182436404E+02  0.00000000000E+00 0.  1.
         25    2    1    2    0    0  0.10791960932E+03  0.17921109138E+03  0.10253816263E+04  0.10539502557E+04  0.12506160266E+03 0.  0.
          5    1    3    3  502    0 -0.23575867588E+02  0.35716342708E+02  0.29290481853E+03  0.29604422607E+03  0.41800000000E+01 0. -1.
         -5    1    3    3    0  502  0.13149547691E+03  0.14349474867E+03  0.73247680780E+03  0.75790602961E+03  0.41800000000E+01 0. -1.
        -11    1    1    2    0    0 -0.93031581257E+02 -0.15308810394E+03  0.83568705351E+03  0.85467168790E+03  0.00000000000E+00 0. -1.
         11    1    1    2    0    0 -0.14888028065E+02 -0.26122987436E+02  0.36404061358E+02  0.47215670445E+02  0.00000000000E+00 0.  1.
</event>
<event>
 7    1  0.3151015E-009  0.1793135E+03  0.7561462E-02  0.1168469E+00
          2   -1    0    0  501    0  0.00000000000E+00  0.00000000000E+00  0.16852871232E+03  0.16852871232E+03  0.00000000000E+00 0. -1.
         -2   -1    0    0    0  501 -0.00000000000E+00 -0.00000000000E+00 -0.26989718159E+03  0.26989718159E+03  0.00000000000E+00 0.  1.
         25    2    1    2    0    0 -0.15513185869E+03  0.83671682175E+02  0.11119134369E+00  0.21613685350E+03  0.12509309772E+03 0.  0.
          5    1    3    3  502    0 -0.59317752131E+02  0.13572583009E+02 -0.57755247844E+02  0.83999712981E+02  0.41800000000E+01 0. -1.
         -5    1    3    3    0  502 -0.95814106559E+02  0.70099099166E+02  0.57866439188E+02  0.13213714052E+03  0.41800000000E+01 0. -1.
        -11    1    1    2    0    0  0.85247677309E+02 -0.28776945394E+02 -0.98450821389E+02  0.13337107372E+03  0.00000000000E+00 0.  1.
         11    1    1    2    0    0  0.69884181380E+02 -0.54894736781E+02 -0.30288392237E+01  0.88917966691E+02  0.00000000000E+00 0. -1.
</event>
<event>
 7    1  0.3151015E-009  0.1294074E+03  0.7561462E-02  0.1228338E+00
         -2   -1    0    0    0  501 -0.00000000000E+00  0.00000000000E+00  0.15484903382E+02  0.15484903382E+02  0.00000000000E+00 0.  1.
          2   -1    0    0  501    0  0.00000000000E+00 -0.00000000000E+00 -0.12472180115E+04  0.12472180115E+04  0.00000000000E+00 0. -1.
         25    2    1    2    0    0 -0.77237248296E+02 -0.10272035072E+02 -0.74551833648E+03  0.75994540776E+03  0.12509326727E+03 0.  0.
          5    1    3    3  502    0  0.31597521227E+02 -0.17712962939E+01 -0.27830528911E+03  0.28013005405E+03  0.41800000000E+01 0. -1.
         -5    1    3    3    0  502 -0.10883476952E+03 -0.85007387779E+01 -0.46721304737E+03  0.47981535371E+03  0.41800000000E+01 0. -1.
        -11    1    1    2    0    0  0.41864128839E+02 -0.38850292653E+02 -0.13851455489E+03  0.14982734210E+03  0.00000000000E+00 0.  1.
         11    1    1    2    0    0  0.35373119456E+02  0.49122327725E+02 -0.34770021680E+03  0.35293016508E+03  0.00000000000E+00 0. -1.
</event>
<event>
 7    1  0.3151015E-009  0.1304859E+03  0.7561462E-02  0.1226737E+00
          1   -1    0    0  501    0  0.00000000000E+00  0.00000000000E+00  0.14331387146E+03  0.14331387146E+03  0.00000000000E+00 0. -1.
         -1   -1    0    0    0  501 -0.00000000000E+00 -0.00000000000E+00 -0.12398896337E+03  0.12398896337E+03  0.00000000000E+00 0.  1.
         25    2    1    2    0    0 -0.31192523537E+02  0.70956872707E+02  0.11854724463E+02  0.14763706887E+03  0.12509323844E+03 0.  0.
          5    1    3    3  502    0 -0.71607017894E+02  0.71027504322E+02 -0.10109306733E+02  0.10145019401E+03  0.41800000000E+01 0. -1.
         -5    1    3    3    0  502  0.40414494357E+02 -0.70631615149E-01  0.21964031196E+02  0.46186874860E+02  0.41800000000E+01 0. -1.
        -11    1    1    2    0    0  0.61652290447E+02 -0.30582216955E+02  0.57566811851E+01  0.69060960676E+02  0.00000000000E+00 0.  1.
         11    1    1    2    0    0 -0.30459766910E+02 -0.40374655752E+02  0.17135024330E+01  0.50604805284E+02  0.00000000000E+00 0. -1.
</event>
<event>
 6    1  0.3151015E-009  0.8863175E+02  0.7561462E-02  0.1306199E+00
         -4   -1    0    0    0  501 -0.00000000000E+00  0.00000000000E+00  0.29209541916E+03  0.29209541916E+03  0.00000000000E+00 0.  1.
          4   -1    0    0  501    0  0.00000000000E+00 -0.00000000000E+00 -0.11222238585E+03  0.11222238585E+03  0.00000000000E+00 0. -1.
          5    1    1    2  502    0 -0.49453592815E+00  0.50449334911E+02  0.16468200644E+03  0.17228759562E+03  0.41800000000E+01 0.  1.
         -5    1    1    2    0  502  0.32597611779E+02 -0.60494616307E+02  0.87785757368E+02  0.11156170711E+03  0.41800000000E+01 0.  1.
        -11    1    1    2    0    0 -0.36911703668E+02 -0.91303972961E+01  0.68192314383E+01  0.38630815936E+02  0.00000000000E+00 0.  1.
         11    1    1    2    0    0  0.48086278171E+01  0.19175678692E+02 -0.79413961939E+02  0.81837686341E+02  0.00000000000E+00 0. -1.
</event>
<event>
 7    1  0.3151015E-009  0.2255654E+03  0.7561462E-02  0.1129801E+00
          1   -1    0    0  501    0  0.00000000000E+00  0.00000000000E+00  0.67083960591E+03  0.67083960591E+03  0.00000000000E+00 0. -1.
         -1   -1    0    0    0  501 -0.00000000000E+00 -0.00000000000E+00 -0.95799034794E+02  0.95799034794E+02  0.00000000000E+00 0.  1.
         25    2    1    2    0    0  0.10027732315E+03  0.19608541083E+03  0.19793163134E+03  0.32144934985E+03  0.12509086279E+03 0.  0.
          5    1    3    3  502    0 -0.86176998322E+00  0.65489409359E+02  0.12428176128E+03  0.14054548720E+03  0.41800000000E+01 0.  1.
         -5    1    3    3    0  502  0.10113909313E+03  0.13059600147E+03  0.73649870057E+02  0.18090386265E+03  0.41800000000E+01 0.  1.
        -11    1    1    2    0    0 -0.65795835351E+02 -0.13247788046E+03  0.32163508005E+03  0.35401780390E+03  0.00000000000E+00 0. -1.
         11    1    1    2    0    0 -0.34481487800E+02 -0.63607530369E+02  0.55473859734E+02  0.91171486959E+02  0.00000000000E+00 0.  1.
</event>
<event>
 7    1  0.3151015E-009  0.1700724E+03  0.7561462E-02  0.1177772E+00
         -2   -1    0    0    0  501 -0.00000000000E+00  0.00000000000E+00  0.27116007037E+03  0.27116007037E+03  0.00000000000E+00 0.  1.
          2   -1    0    0  501    0  0.00000000000E+00 -0.00000000000E+00 -0.12989354964E+03  0.12989354964E+03  0.00000000000E+00 0. -1.
         25    2    1    2    0    0 -0.15191296289E+03 -0.11391343381E+02  0.64686719048E+02  0.20743943230E+03  0.12505772848E+03 0.  0.
          5    1    3    3  502    0 -0.12236753603E+03  0.33870166083E+02  0.81195815221E+02  0.15076881254E+03  0.41800000000E+01 0.  1.
         -5    1    3    3    0  502 -0.29545426854E+02 -0.45261509464E+02 -0.16509096173E+02  0.56670619755E+02  0.41800000000E+01 0.  1.
        -11    1    1    2    0    0  0.58669695654E+02 -0.17593038278E+02 -0.11256422041E+02  0.62276441944E+02  0.00000000000E+00 0. -1.
         11    1    1    2    0    0  0.93243267235E+02  0.28984381660E+02  0.87836223723E+02  0.13133774577E+03  0.00000000000E+00 0.  1.
</event>
<event>
 7    1  0.4451090E-009  0.1237411E+03  0.7561462E-02  0.1237050E+00
          2   -1    0    0  501    0  0.00000000000E+00  0.00000000000E+00  0.26705800583E+03  0.26705800583E+03  0.00000000000E+00 0. -1.
         -2   -1    0    0    0  501 -0.00000000000E+00 -0.00000000000E+00 -0.80859347504E+02  0.80859347504E+02  0.00000000000E+00 0.  1.
         25    2    1    2    0    0 -0.70360418999E+02 -0.64089317070E+02  0.67868172143E+02  0.17121703514E+03  0.12510457709E+03 0.  0.
          5    1    3    3  502    0  0.87365056860E+01  0.19486668634E+02 -0.17460812444E+02  0.27899984897E+02  0.41800000000E+01 0.  1.
         -5    1    3    3    0  502 -0.79096924685E+02 -0.83575985704E+02  0.85328984586E+02  0.14331705025E+03  0.41800000000E+01 0.  1.
        -11    1    1    2    0    0  0.12393741427E+02  0.49185328561E+02  0.10316004476E+03  0.11495562712E+03  0.00000000000E+00 0.  1.
         11    1    1    2    0    0  0.57966677572E+02  0.14903988509E+02  0.15170441425E+02  0.61744691070E+02  0.00000000000E+00 0. -1.
</event>
<event>
 7    1  0.3151015E-009  0.9504037E+02  0.7561462E-02  0.1291085E+00
         -1   -1    0    0    0  501 -0.00000000000E+00  0.00000000000E+00  0.18046479579E+02  0.18046479579E+02  0.00000000000E+00 0.  1.
          1   -1    0    0  501    0  0.00000000000E+00 -0.00000000000E+00 -0.63898617209E+03  0.63898617209E+03  0.00000000000E+00 0. -1.
         25    2    1    2    0    0  0.10098963875E+02 -0.16092186468E+02 -0.36294771959E+03  0.38436956802E+03  0.12509184678E+03 0.  0.
          5    1    3    3  502    0  0.31111270809E+02 -0.62365055318E+02 -0.15078767178E+03  0.16616770341E+03  0.41800000000E+01 0. -1.
         -5    1    3    3    0  502 -0.21012306934E+02  0.46272868850E+02 -0.21216004781E+03  0.21820186461E+03  0.41800000000E+01 0. -1.
        -11    1    1    2    0    0 -0.10237047172E+02  0.42066691772E+02 -0.23167779623E+03  0.23568836407E+03  0.00000000000E+00 0.  1.
         11    1    1    2    0    0  0.13808329688E+00 -0.25974505304E+02 -0.26314176694E+02  0.36974719578E+02  0.00000000000E+00 0. -1.
</event>
<event>
 7    1  0.3151015E-009  0.1398999E+03  0.7561462E-02  0.1213464E+00
         -2   -1    0    0    0  501 -0.00000000000E+00  0.00000000000E+00  0.29946907116E+02  0.29946907116E+02  0.00000000000E+00 0.  1.
          2   -1    0    0  501    0  0.00000000000E+00 -0.00000000000E+00 -0.73942523322E+03  0.73942523322E+03  0.00000000000E+00 0. -1.
         25    2    1    2    0    0  0.21281051981E+02  0.97163445752E+02 -0.34590472613E+03  0.38103962833E+03  0.12508996937E+03 0.  0.
          5    1    3    3  502    0  0.61702603752E+02  0.88581021911E+01 -0.12779292332E+03  0.14224690132E+03  0.41800000000E+01 0.  1.
         -5    1    3    3    0  502 -0.40421551770E+02  0.88305343561E+02 -0.21811180282E+03  0.23879272702E+03  0.41800000000E+01 0.  1.
        -11    1    1    2    0    0 -0.44032982469E+02 -0.81045677722E+02 -0.33847654709E+03  0.35081858325E+03  0.00000000000E+00 0. -1.
         11    1    1    2    0    0  0.22751930488E+02 -0.16117768030E+02 -0.25097052882E+02  0.37513928754E+02  0.00000000000E+00 0.  1.
</event>
<event>
 7    1  0.3151015E-009  0.1061629E+03  0.7561462E-02  0.1267845E+00
          1   -1    0    0  501    0  0.00000000000E+00  0.00000000000E+00  0.10390279298E+03  0.10390279298E+03  0.00000000000E+00 0. -1.
         -1   -1    0    0    0  501 -0.00000000000E+00 -0.00000000000E+00 -0.15229192732E+03  0.15229192732E+03  0.00000000000E+00 0.  1.
         25    2    1    2    0    0 -0.67116032851E+02 -0.16196179104E+02 -0.67337637300E+02  0.15795019203E+03  0.12508807969E+03 0.  0.
          5    1    3    3  502    0 -0.10330119667E+03 -0.19791813211E+02 -0.57959703926E+02  0.12016510635E+03  0.41800000000E+01 0.  1.
         -5    1    3    3    0  502  0.36185163821E+02  0.35956341074E+01 -0.93779333747E+01  0.37785085679E+02  0.41800000000E+01 0.  1.
        -11    1    1    2    0    0  0.32406162602E+02  0.15051423949E+02 -0.23976549723E+02  0.43029985755E+02  0.00000000000E+00 0.  1.
         11    1    1    2    0    0  0.34709870249E+02  0.11447551546E+01  0.42925052690E+02  0.55214542518E+02  0.00000000000E+00 0. -1.
</event>
<event>
 7    1  0.3151015E-009  0.1369721E+03  0.7561462E-02  0.1217462E+00
          2   -1    0    0  501    0  0.00000000000E+00  0.00000000000E+00  0.97707125342E+03  0.97707125342E+03  0.00000000000E+00 0.  1.
         -2   -1    0    0    0  501 -0.00000000000E+00 -0.00000000000E+00 -0.22690964076E+02  0.22690964076E+02  0.00000000000E+00 0. -1.
         25    2    1    2    0    0  0.55539241269E+02  0.83355834851E+02  0.42849007634E+03  0.45747313750E+03  0.12508046807E+03 0.  0.
          5    1    3    3  502    0  0.83608229025E+02  0.89017611062E+02  0.39366489143E+03  0.41219411712E+03  0.41800000000E+01 0.  1.
         -5    1    3    3    0  502 -0.28068987756E+02 -0.56617762113E+01  0.34825184907E+02  0.45279020388E+02  0.41800000000E+01 0.  1.
        -11    1    1    2    0    0 -0.72574778439E+02 -0.61704993008E+02  0.47462484711E+03  0.48409022932E+03  0.00000000000E+00 0.  1.
         11    1    1    2    0    0  0.17035537171E+02 -0.21650841843E+02  0.51265365902E+02  0.58198850678E+02  0.00000000000E+00 0. -1.
</event>
<event>
 7    1  0.3151015E-009  0.9526725E+02  0.7561462E-02  0.1290575E+00
         -1   -1    0    0    0  501 -0.00000000000E+00  0.00000000000E+00  0.27885442435E+03  0.27885442435E+03  0.00000000000E+00 0.  1.
          1   -1    0    0  501    0  0.00000000000E+00 -0.00000000000E+00 -0.10286660123E+03  0.10286660123E+03  0.00000000000E+00 0. -1.
         25    2    1    2    0    0  0.35807373959E+02 -0.83841239084E+01  0.22954745962E+03  0.26398870977E+03  0.12508213743E+03 0.  0.
          5    1    3    3  502    0  0.25148201288E+02  0.56273168797E+02  0.13926682880E+03  0.15235426991E+03  0.41800000000E+01 0. -1.
         -5    1    3    3    0  502  0.10659172671E+02 -0.64657292705E+02  0.90280630819E+02  0.11163443986E+03  0.41800000000E+01 0. -1.
        -11    1    1    2    0    0 -0.43874479626E+02 -0.82153053306E+01 -0.76328888041E+02  0.88422623540E+02  0.00000000000E+00 0. -1.
         11    1    1    2    0    0  0.80671056668E+01  0.16599429239E+02  0.22769251550E+02  0.29309692272E+02  0.00000000000E+00 0.  1.
</event>
<event>
 7    1  0.3151015E-009  0.2684477E+03  0.7561462E-02  0.1102171E+00
          1   -1    0    0  501    0  0.00000000000E+00  0.00000000000E+00  0.10432643905E+04  0.10432643905E+04  0.00000000000E+00 0. -1.
         -1   -1    0    0    0  501 -0.00000000000E+00 -0.00000000000E+00 -0.76930992004E+02  0.76930992004E+02  0.00000000000E+00 0.  1.
         25    2    1    2    0    0  0.17718935128E+03 -0.18888604567E+03  0.42750359645E+03  0.51525107879E+03  0.12510133793E+03 0.  0.
          5    1    3    3  502    0  0.33882973003E+02 -0.10524561946E+03  0.24342285565E+03  0.26738895888E+03  0.41800000000E+01 0.  1.
         -5    1    3    3    0  502  0.14330637828E+03 -0.83640426207E+02  0.18408074080E+03  0.24786211991E+03  0.41800000000E+01 0.  1.
        -11    1    1    2    0    0 -0.61232587414E+02  0.48020211358E+02  0.26268290560E+03  0.27396656613E+03  0.00000000000E+00 0. -1.
         11    1    1    2    0    0 -0.11595676386E+03  0.14086583431E+03  0.27614689639E+03  0.33097773754E+03  0.00000000000E+00 0.  1.
</event>
<event>
 7    1  0.3151015E-009  0.1881783E+03  0.7561462E-02  0.1160115E+00
         -1   -1    0    0    0  501 -0.00000000000E+00  0.00000000000E+00  0.51685716954E+02  0.51685716954E+02  0.00000000000E+00 0.  1.
          1   -1    0    0  501    0  0.00000000000E+00 -0.00000000000E+00 -0.82103187176E+03  0.82103187176E+03  0.00000000000E+00 0. -1.
         25    2    1    2    0    0  0.16588884820E+03  0.23225704076E+02 -0.50690119628E+03  0.54831952782E+03  0.12508772328E+03 0.  0.
          5    1    3    3  502    0  0.41203251551E+02  0.64962429332E+02 -0.20516813828E+03  0.21915579511E+03  0.41800000000E+01 0. -1.
         -5    1    3    3    0  502  0.12468559665E+03 -0.41736725256E+02 -0.30173305800E+03  0.32916373272E+03  0.41800000000E+01 0. -1.
        -11    1    1    2    0    0 -0.14819771049E+03 -0.23620241087E+02 -0.26685889544E+03  0.30616032934E+03  0.00000000000E+00 0. -1.
         11    1    1    2    0    0 -0.17691137707E+02  0.39453701076E+00  0.44139369232E+01  0.18237731547E+02  0.00000000000E+00 0.  1.
</event>
<event>
 7    1  0.3151015E-009  0.1693499E+03  0.7561462E-02  0.1178528E+00
         -2   -1    0    0    0  501 -0.00000000000E+00  0.00000000000E+00  0.26924210289E+03  0.26924210289E+03  0.00000000000E+00 0.  1.
          2   -1    0    0  501    0  0.00000000000E+00 -0.00000000000E+00 -0.12771985945E+03  0.12771985945E+03  0.00000000000E+00 0. -1.
         25    2    1    2    0    0  0.60845133849E+02  0.13321443462E+03  0.38604169880E+02  0.19643371621E+03  0.12509079513E+03 0.  0.
          5    1    3    3  502    0  0.49822356236E+02  0.15573095432E+03  0.19666196876E+02  0.16473806182E+03  0.41800000000E+01 0. -1.
         -5    1    3    3    0  502  0.11022777613E+02 -0.22516519694E+02  0.18937973004E+02  0.31695654385E+02  0.41800000000E+01 0. -1.
        -11    1    1    2    0    0 -0.24658199256E+02 -0.22996416579E+02  0.73477422740E+02  0.80844255322E+02  0.00000000000E+00 0.  1.
         11    1    1    2    0    0 -0.36186934593E+02 -0.11021801804E+03  0.29440650812E+02  0.11968399081E+03  0.00000000000E+00 0. -1.
</event>
<event>
 7    1  0.3151015E-009  0.1148391E+03  0.7561462E-02  0.1251862E+00
         -1   -1    0    0    0  501 -0.00000000000E+00  0.00000000000E+00  0.18962235329E+03  0.18962235329E+03  0.00000000000E+00 0.  1.
          1   -1    0    0  501    0  0.00000000000E+00 -0.00000000000E+00 -0.29494363731E+03  0.29494363731E+03  0.00000000000E+00 0. -1.
         25    2    1    2    0    0 -0.34832359524E+02 -0.76927496709E+02 -0.25086231880E+03  0.29276290426E+03  0.12508829720E+03 0.  0.
          5    1    3    3  502    0 -0.74399421172E+02 -0.56093850160E+02 -0.10646188448E+03  0.14153939078E+03  0.41800000000E+01 0.  1.
         -5    1    3    3    0  502  0.39567061648E+02 -0.20833646549E+02 -0.14440043432E+03  0.15122351347E+03  0.41800000000E+01 0.  1.
        -11    1    1    2    0    0  0.19242488592E+01  0.46925777531E+02  0.13909206272E+03  0.14680712940E+03  0.00000000000E+00 0.  1.
         11    1    1    2    0    0  0.32908110665E+02  0.30001719179E+02  0.64489720491E+01  0.44995956948E+02  0.00000000000E+00 0. -1.
</event>
<event>
 7    1  0.3151015E-009  0.4109896E+03  0.7561462E-02  0.1040039E+00
          2   -1    0    0  501    0  0.00000000000E+00  0.00000000000E+00  0.27574612186E+04  0.27574612186E+04  0.00000000000E+00 0. -1.
         -2   -1    0    0    0  501 -0.00000000000E+00 -0.00000000000E+00 -0.73201204487E+02  0.73201204487E+02  0.00000000000E+00 0.  1.
         25    2    1    2    0    0  0.37529142375E+03 -0.16399425067E+03  0.88880210218E+03  0.98658815156E+03  0.12509691035E+03 0.  0.
          5    1    3    3  502    0  0.11784909667E+03 -0.32560637269E+02  0.40424067375E+03  0.42234653947E+03  0.41800000000E+01 0. -1.
         -5    1    3    3    0  502  0.25744232708E+03 -0.13143361340E+03  0.48456142842E+03  0.56424161209E+03  0.41800000000E+01 0. -1.
        -11    1    1    2    0    0 -0.19232005448E+03  0.68394071567E+02  0.10935581631E+04  0.11124451485E+04  0.00000000000E+00 0.  1.
         11    1    1    2    0    0 -0.18297136926E+03  0.95600179100E+02  0.70189974889E+03  0.73162912306E+03  0.00000000000E+00 0. -1.
</event>
<event>
 7    1  0.3151015E-009  0.2506884E+03  0.7561462E-02  0.1112871E+00
         -1   -1    0    0    0  501 -0.00000000000E+00  0.00000000000E+00  0.50239960471E+03  0.50239960471E+03  0.00000000000E+00 0.  1.
          1   -1    0    0  501    0  0.00000000000E+00 -0.00000000000E+00 -0.14150609358E+03  0.14150609358E+03  0.00000000000E+00 0. -1.
         25    2    1    2    0    0  0.20016333112E+03  0.10404317138E+03  0.75484123514E+02  0.26876708373E+03  0.12509017450E+03 0.  0.
          5    1    3    3  502    0 -0.17627746700E+02  0.97568459628E+01  0.67084115733E+01  0.21642751274E+02  0.41800000000E+01 0.  1.
         -5    1    3    3    0  502  0.21779107782E+03  0.94286325418E+02  0.68775711941E+02  0.24712433245E+03  0.41800000000E+01 0.  1.
        -11    1    1    2    0    0 -0.13083311629E+02 -0.45604007671E+02  0.57367566630E+02  0.74444182176E+02  0.00000000000E+00 0.  1.
         11    1    1    2    0    0 -0.18708001949E+03 -0.58439163710E+02  0.22804182099E+03  0.30069443238E+03  0.00000000000E+00 0. -1.
</event>
<event>
 7    1  0.3856080E-009  0.6664236E+02  0.7561462E-02  0.1371898E+00
         -1   -1    0    0    0  501 -0.00000000000E+00  0.00000000000E+00  0.97346475003E+02  0.97346475003E+02  0.00000000000E+00 0.  1.
          1   -1    0    0  501    0  0.00000000000E+00 -0.00000000000E+00 -0.15434157363E+03  0.15434157363E+03  0.00000000000E+00 0. -1.
         25    2    1    2    0    0 -0.27718983831E+02  0.57547853661E+01 -0.82949706952E+02  0.15273444935E+03  0.12508276666E+03 0.  0.
          5    1    3    3  502    0 -0.24466893734E+02  0.50807024459E+02 -0.90534308408E+02  0.10674228788E+03  0.41800000000E+01 0. -1.
         -5    1    3    3    0  502 -0.32520900974E+01 -0.45052239093E+02  0.75846014563E+01  0.45992161468E+02  0.41800000000E+01 0. -1.
        -11    1    1    2    0    0  0.13797002418E+02  0.40137559456E+01  0.59571237926E+02  0.61279685872E+02  0.00000000000E+00 0.  1.
         11    1    1    2    0    0  0.13921981413E+02 -0.97685413116E+01 -0.33616629597E+02  0.37673913406E+02  0.00000000000E+00 0. -1.
</event>
<event>
 7    1  0.3151015E-009  0.8994797E+02  0.7561462E-02  0.1302978E+00
          2   -1    0    0  501    0  0.00000000000E+00  0.00000000000E+00  0.30881302620E+03  0.30881302620E+03  0.00000000000E+00 0. -1.
         -2   -1    0    0    0  501 -0.00000000000E+00 -0.00000000000E+00 -0.52187502883E+02  0.52187502883E+02  0.00000000000E+00 0.  1.
         25    2    1    2    0    0  0.26322397626E+02 -0.42678849213E+02  0.82690876093E+02  0.15810868391E+03  0.12508485981E+03 0.  0.
          5    1    3    3  502    0 -0.20908440402E+01  0.16021090255E+02 -0.26229420027E+02  0.31088612654E+02  0.41800000000E+01 0.  1.
         -5    1    3    3    0  502  0.28413241666E+02 -0.58699939468E+02  0.10892029612E+03  0.12702007126E+03  0.41800000000E+01 0.  1.
        -11    1    1    2    0    0 -0.51790324945E+02  0.45282270534E+01  0.56307966377E+02  0.76637651814E+02  0.00000000000E+00 0.  1.
         11    1    1    2    0    0  0.25467927319E+02  0.38150622160E+02  0.11762668085E+03  0.12625419336E+03  0.00000000000E+00 0. -1.
</event>
<event>
 7    1  0.3151015E-009  0.9549324E+02  0.7561462E-02  0.1290069E+00
         -1   -1    0    0    0  501 -0.00000000000E+00  0.00000000000E+00  0.30601243710E+02  0.30601243710E+02  0.00000000000E+00 0.  1.
          1   -1    0    0  501    0  0.00000000000E+00 -0.00000000000E+00 -0.38599448952E+03  0.38599448952E+03  0.00000000000E+00 0. -1.
         25    2    1    2    0    0  0.15116090999E+02  0.18056867070E+02 -0.15166053984E+03  0.19799678212E+03  0.12508900723E+03 0.  0.
          5    1    3    3  502    0  0.62493984885E+02  0.20402511855E+02 -0.41166799165E+02  0.77678429376E+02  0.41800000000E+01 0.  1.
         -5    1    3    3    0  502 -0.47377893886E+02 -0.23456447858E+01 -0.11049374067E+03  0.12031835274E+03  0.41800000000E+01 0.  1.
        -11    1    1    2    0    0 -0.10708660747E+02 -0.47006409934E+02 -0.10352526684E+03  0.11420052042E+03  0.00000000000E+00 0.  1.
         11    1    1    2    0    0 -0.44074302522E+01  0.28949542864E+02 -0.10020743913E+03  0.10439843069E+03  0.00000000000E+00 0. -1.
</event>
<event>
 7    1  0.3151015E-009  0.1041558E+03  0.7561462E-02  0.1271792E+00
         -2   -1    0    0    0  501 -0.00000000000E+00  0.00000000000E+00  0.38402145895E+02  0.38402145895E+02  0.00000000000E+00 0.  1.
          2   -1    0    0  501    0  0.00000000000E+00 -0.00000000000E+00 -0.46317947842E+03  0.46317947842E+03  0.00000000000E+00 0. -1.
         25    2    1    2    0    0 -0.54295490211E+02  0.53346314927E+02 -0.20492514972E+03  0.25186532475E+03  0.12509194719E+03 0.  0.
          5    1    3    3  502    0 -0.10060023492E+02  0.52558818411E+02 -0.20008894973E+03  0.20716344675E+03  0.41800000000E+01 0. -1.
         -5    1    3    3    0  502 -0.44235466719E+02  0.78749651625E+00 -0.48361999901E+01  0.44701878002E+02  0.41800000000E+01 0. -1.
        -11    1    1    2    0    0  0.46903469149E+02  0.87064403172E+01 -0.51793950271E+02  0.70415557982E+02  0.00000000000E+00 0.  1.
         11    1    1    2    0    0  0.73920210626E+01 -0.62052755244E+02 -0.16805823253E+03  0.17930074157E+03  0.00000000000E+00 0. -1.
</event>
<event>
 7    1  0.3151015E-009  0.1258193E+03  0.7561462E-02  0.1233794E+00
         -2   -1    0    0    0  501 -0.00000000000E+00  0.00000000000E+00  0.17649071060E+02  0.17649071060E+02  0.00000000000E+00 0.  1.
          2   -1    0    0  501    0  0.00000000000E+00 -0.00000000000E+00 -0.94559474466E+03  0.94559474466E+03  0.00000000000E+00 0. -1.
         25    2    1    2    0    0 -0.55715731744E+02  0.13663362813E+02 -0.42013022935E+03  0.44209653912E+03  0.12509600332E+03 0.  0.
          5    1    3    3  502    0 -0.15860366641E+02 -0.54316458465E+02 -0.21349517803E+03  0.22090607129E+03  0.41800000000E+01 0. -1.
         -5    1    3    3    0  502 -0.39855365103E+02  0.67979821279E+02 -0.20663505131E+03  0.22119046783E+03  0.41800000000E+01 0. -1.
        -11    1    1    2    0    0  0.65121552973E+02 -0.47669432141E+02 -0.38479697247E+03  0.39316904945E+03  0.00000000000E+00 0. -1.
         11    1    1    2    0    0 -0.94058212286E+01  0.34006069328E+02 -0.12301847179E+03  0.12797822715E+03  0.00000000000E+00 0.  1.
</event>
<event>
 7    1  0.3151015E-009  0.1005553E+03  0.7561462E-02  0.1279133E+00
          1   -1    0    0  501    0  0.00000000000E+00  0.00000000000E+00  0.16332167213E+03  0.16332167213E+03  0.00000000000E+00 0. -1.
         -1   -1    0    0    0  501 -0.00000000000E+00 -0.00000000000E+00 -0.10611081306E+03  0.10611081306E+03  0.00000000000E+00 0.  1.
         25    2    1    2    0    0 -0.10999111746E+02 -0.60981803212E+02 -0.14531382549E+02  0.14034843089E+03  0.12508701048E+03 0.  0.
          5    1    3    3  502    0  0.18865364023E+02 -0.77386475864E+02 -0.47431408185E+02  0.92799673969E+02  0.41800000000E+01 0. -1.
         -5    1    3    3    0  502 -0.29864475768E+02  0.16404672652E+02  0.32900025635E+02  0.47548756919E+02  0.41800000000E+01 0. -1.
        -11    1    1    2    0    0 -0.12010665382E+02 -0.79133833793E+01 -0.11638486571E+02  0.18502218491E+02  0.00000000000E+00 0.  1.
         11    1    1    2    0    0  0.23009777128E+02  0.68895186591E+02  0.83380728187E+02  0.11058183581E+03  0.00000000000E+00 0. -1.
</event>
<event>
 7    1  0.3151015E-009  0.1093658E+03  0.7561462E-02  0.1261749E+00
         -1   -1    0    0    0  501 -0.00000000000E+00  0.00000000000E+00  0.11614968702E+03  0.11614968702E+03  0.00000000000E+00 0.  1.
          1   -1    0    0  501    0  0.00000000000E+00 -0.00000000000E+00 -0.14156885257E+03  0.14156885257E+03  0.00000000000E+00 0. -1.
         25    2    1    2    0    0  0.46759473166E+02  0.38532891460E+02 -0.46594185595E+02  0.14659533685E+03  0.12509173674E+03 0.  0.
          5    1    3    3  502    0  0.69747341837E+02 -0.58960216240E+01 -0.62506022216E+02  0.93935775813E+02  0.41800000000E+01 0.  1.
         -5    1    3    3    0  502 -0.22987868671E+02  0.44428913084E+02  0.15911836621E+02  0.52659561037E+02  0.41800000000E+01 0.  1.
        -11    1    1    2    0    0  0.13150611597E+02 -0.36136297914E+02  0.32205026913E+02  0.50159090610E+02  0.00000000000E+00 0. -1.
         11    1    1    2    0    0 -0.59910084763E+02 -0.23965935460E+01 -0.11030006861E+02  0.60964112134E+02  0.00000000000E+00 0.  1.
</event>
<event>
 7    1  0.3151015E-009  0.9901251E+02  0.7561462E-02  0.1282386E+00
         -3   -1    0    0    0  501 -0.00000000000E+00  0.00000000000E+00  0.65878496681E+03  0.65878496681E+03  0.00000000000E+00 0.  1.
          3   -1    0    0  501    0  0.00000000000E+00 -0.00000000000E+00 -0.19609917402E+02  0.19609917402E+02  0.00000000000E+00 0. -1.
         25    2    1    2    0    0 -0.68467185594E+01  0.32290899116E+02  0.39200189940E+03  0.41280186111E+03  0.12510118977E+03 0.  0.
          5    1    3    3  502    0 -0.42698490443E+02 -0.32072939596E+02  0.20174641694E+03  0.20873649343E+03  0.41800000000E+01 0.  1.
         -5    1    3    3    0  502  0.35851771883E+02  0.64363838713E+02  0.19025548246E+03  0.20406536768E+03  0.41800000000E+01 0.  1.
        -11    1    1    2    0    0 -0.17101778876E+02 -0.41594576123E+02  0.23076914210E+03  0.23511056240E+03  0.00000000000E+00 0.  1.
         11    1    1    2    0    0  0.23948497436E+02  0.93036770067E+01  0.16404007904E+02  0.30482460704E+02  0.00000000000E+00 0. -1.
</event>
<event>
 7    1  0.3151015E-009  0.1187046E+03  0.7561462E-02  0.1245249E+00
         -1   -1    0    0    0  501 -0.00000000000E+00  0.00000000000E+00  0.12615773260E+03  0.12615773260E+03  0.00000000000E+00 0.  1.
          1   -1    0    0  501    0  0.00000000000E+00 -0.00000000000E+00 -0.14795041041E+03  0.14795041041E+03  0.00000000000E+00 0. -1.
         25    2    1    2    0    0  0.64039988728E+02 -0.31363227931E+02 -0.51711237935E+02  0.15299019826E+03  0.12508867420E+03 0.  0.
          5    1    3    3  502    0  0.58857294913E+02 -0.70769548337E+02 -0.60936169365E+01  0.92342377616E+02  0.41800000000E+01 0. -1.
         -5    1    3    3    0  502  0.51826938143E+01  0.39406320406E+02 -0.45617620999E+02  0.60647820643E+02  0.41800000000E+01 0. -1.
        -11    1    1    2    0    0  0.17754611929E+02  0.11427239413E+02 -0.14804462819E+02  0.25787209324E+02  0.00000000000E+00 0. -1.
         11    1    1    2    0    0 -0.81794600657E+02  0.19935988518E+02  0.44723022947E+02  0.95330735423E+02  0.00000000000E+00 0.  1.
</event>
<event>
 7    1  0.3151015E-009  0.6257875E+02  0.7561462E-02  0.1387318E+00
         -2   -1    0    0    0  501 -0.00000000000E+00  0.00000000000E+00  0.29944929807E+02  0.29944929807E+02  0.00000000000E+00 0.  1.
          2   -1    0    0  501    0  0.00000000000E+00 -0.00000000000E+00 -0.40735020037E+03  0.40735020037E+03  0.00000000000E+00 0. -1.
         25    2    1    2    0    0  0.12982152153E+02  0.10936961136E+02 -0.25074591065E+03  0.28072912066E+03  0.12508866490E+03 0.  0.
          5    1    3    3  502    0  0.22039446394E+02  0.26549122611E+01  0.62253187252E+01  0.23431021098E+02  0.41800000000E+01 0.  1.
         -5    1    3    3    0  502 -0.90572942408E+01  0.82820488749E+01 -0.25697122937E+03  0.25729809956E+03  0.41800000000E+01 0.  1.
        -11    1    1    2    0    0 -0.19527291834E+02 -0.48076785289E+02 -0.90489116196E+02  0.10431190038E+03  0.00000000000E+00 0. -1.
         11    1    1    2    0    0  0.65451396809E+01  0.37139824153E+02 -0.36170243720E+02  0.52254109142E+02  0.00000000000E+00 0.  1.
</event>
<event>
 7    1  0.3151015E-009  0.1809519E+03  0.7561462E-02  0.1166885E+00
          4   -1    0    0  501    0  0.00000000000E+00  0.00000000000E+00  0.29947059090E+03  0.29947059090E+03  0.00000000000E+00 0.  1.
         -4   -1    0    0    0  501 -0.00000000000E+00 -0.00000000000E+00 -0.14491711716E+03  0.14491711716E+03  0.00000000000E+00 0. -1.
         25    2    1    2    0    0 -0.12801436866E+03 -0.11897091620E+03  0.11289773934E+03  0.24276492755E+03  0.12508858068E+03 0.  0.
          5    1    3    3  502    0 -0.36561370049E+02 -0.48193038875E+02  0.11163522452E+03  0.12704014534E+03  0.41800000000E+01 0. -1.
         -5    1    3    3    0  502 -0.91452998610E+02 -0.70777877328E+02  0.12625148210E+01  0.11572478221E+03  0.41800000000E+01 0. -1.
        -11    1    1    2    0    0  0.43059372594E+02  0.82572872554E+02  0.55131933377E+02  0.10822161950E+03  0.00000000000E+00 0.  1.
         11    1    1    2    0    0  0.84954996066E+02  0.36398043649E+02 -0.13476198971E+02  0.93401161003E+02  0.00000000000E+00 0. -1.
</event>
<event>
 7    1  0.3151015E-009  0.8163971E+02  0.7561462E-02  0.1324462E+00
          2   -1    0    0  501    0  0.00000000000E+00  0.00000000000E+00  0.15059209830E+03  0.15059209830E+03  0.00000000000E+00 0. -1.
         -2   -1    0    0    0  501 -0.00000000000E+00 -0.00000000000E+00 -0.99751055377E+02  0.99751055377E+02  0.00000000000E+00 0.  1.
         25    2    1    2    0    0 -0.21565770343E+02 -0.36326975329E+02  0.65848712294E+02  0.14755368651E+03  0.12510517937E+03 0.  0.
          5    1    3    3  502    0 -0.45787035756E+02 -0.94303141104E+01 -0.22453943773E+02  0.52029178915E+02  0.41800000000E+01 0. -1.
         -5    1    3    3    0  502  0.24221265414E+02 -0.26896661219E+02  0.88302656067E+02  0.95524507596E+02  0.41800000000E+01 0. -1.
        -11    1    1    2    0    0 -0.21632663492E+02 -0.25627847549E+01  0.24289439910E+02  0.32626934986E+02  0.00000000000E+00 0. -1.
         11    1    1    2    0    0  0.43198433835E+02  0.38889760084E+02 -0.39297109277E+02  0.70162532185E+02  0.00000000000E+00 0.  1.
</event>
<event>
 7    1  0.3151015E-009  0.1127285E+03  0.7561462E-02  0.1255599E+00
          1   -1    0    0  501    0  0.00000000000E+00  0.00000000000E+00  0.16827584070E+03  0.16827584070E+03  0.00000000000E+00 0. -1.
         -1   -1    0    0    0  501 -0.00000000000E+00 -0.00000000000E+00 -0.92704927360E+02  0.92704927360E+02  0.00000000000E+00 0.  1.
         25    2    1    2    0    0 -0.37269552488E+02 -0.48981079889E+02  0.29325726728E+02  0.14246275799E+03  0.12508986145E+03 0.  0.
          5    1    3    3  502    0  0.24050894989E+02  0.28613889686E+02  0.21117440204E+02  0.43134892065E+02  0.41800000000E+01 0. -1.
         -5    1    3    3    0  502 -0.61320447477E+02 -0.77594969574E+02  0.82082865245E+01  0.99327865928E+02  0.41800000000E+01 0. -1.
        -11    1    1    2    0    0 -0.17990037491E+02  0.64002953375E+01  0.44846062550E+02  0.48741917849E+02  0.00000000000E+00 0. -1.
         11    1    1    2    0    0  0.55259589979E+02  0.42580784551E+02  0.13991240663E+01  0.69776092222E+02  0.00000000000E+00 0.  1.
</event>
<event>
 7    1  0.3151015E-009  0.9630760E+02  0.7561462E-02  0.1288258E+00
          1   -1    0    0  501    0  0.00000000000E+00  0.00000000000E+00  0.24915532465E+02  0.24915532465E+02  0.00000000000E+00 0. -1.
         -1   -1    0    0    0  501 -0.00000000000E+00 -0.00000000000E+00 -0.60444144282E+03  0.60444144282E+03  0.00000000000E+00 0.  1.
         25    2    1    2    0    0  0.28916309198E+02  0.46075740979E+02 -0.27848027358E+03  0.31008866217E+03  0.12507833063E+03 0.  0.
          5    1    3    3  502    0 -0.31042693797E+02 -0.27887969082E+01 -0.13863291484E+02  0.34366982369E+02  0.41800000000E+01 0. -1.
         -5    1    3    3    0  502  0.59959002995E+02  0.48864537887E+02 -0.26461698209E+03  0.27572167980E+03  0.41800000000E+01 0. -1.
        -11    1    1    2    0    0  0.65454631670E+01 -0.47758712917E+02 -0.26240006326E+03  0.26679117479E+03  0.00000000000E+00 0.  1.
         11    1    1    2    0    0 -0.35461772365E+02  0.16829719381E+01 -0.38645573526E+02  0.52477138326E+02  0.00000000000E+00 0. -1.
</event>
<event>
 7    1  0.3151015E-009  0.1012327E+03  0.7561462E-02  0.1277725E+00
         -1   -1    0    0    0  501 -0.00000000000E+00  0.00000000000E+00  0.49259822288E+02  0.49259822288E+02  0.00000000000E+00 0.  1.
          1   -1    0    0  501    0  0.00000000000E+00 -0.00000000000E+00 -0.38681735197E+03  0.38681735197E+03  0.00000000000E+00 0. -1.
         25    2    1    2    0    0 -0.58233567879E+02 -0.51709491012E+02 -0.23265285828E+03  0.27539116902E+03  0.12509166087E+03 0.  0.
          5    1    3    3  502    0 -0.44662485373E+02  0.16355023921E+02 -0.20188160372E+02  0.51838775317E+02  0.41800000000E+01 0.  1.
         -5    1    3    3    0  502 -0.13571082507E+02 -0.68064514933E+02 -0.21246469791E+03  0.22355239370E+03  0.41800000000E+01 0.  1.
        -11    1    1    2    0    0  0.28040809865E+02  0.46860541543E+02 -0.11595515428E+03  0.12817096073E+03  0.00000000000E+00 0. -1.
         11    1    1    2    0    0  0.30192758014E+02  0.48489494692E+01  0.11050482874E+02  0.32515044506E+02  0.00000000000E+00 0.  1.
</event>
<event>
 7    1  0.3151015E-009  0.1481870E+03  0.7561462E-02  0.1202719E+00
          2   -1    0    0  501    0  0.00000000000E+00  0.00000000000E+00  0.25964946568E+03  0.25964946568E+03  0.00000000000E+00 0. -1.
         -2   -1    0    0    0  501 -0.00000000000E+00 -0.00000000000E+00 -0.10169558212E+03  0.10169558212E+03  0.00000000000E+00 0.  1.
         25    2    1    2    0    0 -0.12440227583E+03 -0.13534782426E+02  0.10382808987E+03  0.20517113536E+03  0.12512316321E+03 0.  0.
          5    1    3    3  502    0 -0.72182936265E+02 -0.62392934821E+02  0.25131128417E+02  0.98753737240E+02  0.41800000000E+01 0.  1.
         -5    1    3    3    0  502 -0.52219339562E+02  0.48858152395E+02  0.78696961452E+02  0.10641739811E+03  0.41800000000E+01 0.  1.
        -11    1    1    2    0    0  0.11844932784E+02  0.11723099515E+02 -0.16361814563E+02  0.23354709818E+02  0.00000000000E+00 0. -1.
         11    1    1    2    0    0  0.11255734304E+03  0.18116829106E+01  0.70487608260E+02  0.13281920263E+03  0.00000000000E+00 0.  1.
</event>
<event>
 7    1  0.3151015E-009  0.1043981E+03  0.7561462E-02  0.1271310E+00
          1   -1    0    0  501    0  0.00000000000E+00  0.00000000000E+00  0.35520267073E+02  0.35520267073E+02  0.00000000000E+00 0. -1.
         -1   -1    0    0    0  501 -0.00000000000E+00 -0.00000000000E+00 -0.46332414006E+03  0.46332414006E+03  0.00000000000E+00 0.  1.
         25    2    1    2    0    0  0.13442336300E+02 -0.63286153978E+02 -0.27875115366E+03  0.31230599196E+03  0.12508794210E+03 0.  0.
          5    1    3    3  502    0 -0.37684769048E+02 -0.33881154723E+02 -0.23034599456E+03  0.23589155151E+03  0.41800000000E+01 0.  1.
         -5    1    3    3    0  502  0.51127105348E+02 -0.29404999254E+02 -0.48405159102E+02  0.76414440455E+02  0.41800000000E+01 0.  1.
        -11    1    1    2    0    0  0.54982456677E+01  0.75877252979E+02 -0.14455870667E+03  0.16335485270E+03  0.00000000000E+00 0.  1.
         11    1    1    2    0    0 -0.18940581968E+02 -0.12591099001E+02 -0.44940126583E+01  0.23183562477E+02  0.00000000000E+00 0. -1.
</event>
<event>
 7    1  0.3151015E-009  0.7946962E+02  0.7561462E-02  0.1330563E+00
          3   -1    0    0  501    0  0.00000000000E+00  0.00000000000E+00  0.44072015728E+03  0.44072015728E+03  0.00000000000E+00 0. -1.
         -3   -1    0    0    0  501 -0.00000000000E+00 -0.00000000000E+00 -0.26969844163E+02  0.26969844163E+02  0.00000000000E+00 0.  1.
         25    2    1    2    0    0  0.20556495828E+01  0.11342252811E+02  0.24727212087E+03  0.27735094013E+03  0.12508864793E+03 0.  0.
          5    1    3    3  502    0 -0.28929180105E+02  0.20578062966E+02  0.24163651878E+03  0.24426631726E+03  0.41800000000E+01 0. -1.
         -5    1    3    3    0  502  0.30984829688E+02 -0.92358101551E+01  0.56356020869E+01  0.33084622877E+02  0.41800000000E+01 0. -1.
        -11    1    1    2    0    0  0.43094794884E+02 -0.14137615277E+02  0.10141985923E+03  0.11109915103E+03  0.00000000000E+00 0.  1.
         11    1    1    2    0    0 -0.45150444467E+02  0.27953624661E+01  0.65058333009E+02  0.79239910278E+02  0.00000000000E+00 0. -1.
</event>
<event>
 7    1  0.3151015E-009  0.1010123E+03  0.7561462E-02  0.1278181E+00
         -1   -1    0    0    0  501 -0.00000000000E+00  0.00000000000E+00  0.77868799332E+02  0.77868799332E+02  0.00000000000E+00 0.  1.
          1   -1    0    0  501    0  0.00000000000E+00 -0.00000000000E+00 -0.15998032299E+03  0.15998032299E+03  0.00000000000E+00 0. -1.
         25    2    1    2    0    0 -0.14352382930E+02 -0.18882104970E+02 -0.33645525940E+02  0.13164321446E+03  0.12504155195E+03 0.  0.
          5    1    3    3  502    0  0.24919305346E+02 -0.62013758982E+02 -0.29012364105E+02  0.72978543099E+02  0.41800000000E+01 0.  1.
         -5    1    3    3    0  502 -0.39271688275E+02  0.43131654011E+02 -0.46331618344E+01  0.58664671365E+02  0.41800000000E+01 0.  1.
        -11    1    1    2    0    0 -0.25473999765E+02 -0.10017006889E+02  0.10578156176E+02  0.29345570009E+02  0.00000000000E+00 0.  1.
         11    1    1    2    0    0  0.39826382695E+02  0.28899111860E+02 -0.59044153892E+02  0.76860337845E+02  0.00000000000E+00 0. -1.
</event>
<event>
 7    1  0.3151015E-009  0.1178431E+03  0.7561462E-02  0.1246698E+00
          1   -1    0    0  501    0  0.00000000000E+00  0.00000000000E+00  0.58452404098E+02  0.58452404098E+02  0.00000000000E+00 0. -1.
         -1   -1    0    0    0  501 -0.00000000000E+00 -0.00000000000E+00 -0.69420625080E+03  0.69420625080E+03  0.00000000000E+00 0.  1.
         25    2    1    2    0    0 -0.32977375320E+02 -0.90857807673E+02 -0.59199619015E+03  0.61273958495E+03  0.12509061239E+03 0.  0.
          5    1    3    3  502    0 -0.17138718369E+02 -0.99576708004E+02 -0.24237022833E+03  0.26262150793E+03  0.41800000000E+01 0. -1.
         -5    1    3    3    0  502 -0.15838656952E+02  0.87189003301E+01 -0.34962596182E+03  0.35011807702E+03  0.41800000000E+01 0. -1.
        -11    1    1    2    0    0  0.33864729767E+02  0.10239500677E+02 -0.47478067069E+02  0.59210084858E+02  0.00000000000E+00 0.  1.
         11    1    1    2    0    0 -0.88735444693E+00  0.80618306997E+02  0.37204105153E+01  0.80708985097E+02  0.00000000000E+00 0. -1.
</event>
<event>
 7    1  0.3151015E-009  0.1138047E+03  0.7561462E-02  0.1253682E+00
         -2   -1    0    0    0  501 -0.00000000000E+00  0.00000000000E+00  0.24892112058E+02  0.24892112058E+02  0.00000000000E+00 0.  1.
          2   -1    0    0  501    0  0.00000000000E+00 -0.00000000000E+00 -0.71284499833E+03  0.71284499833E+03  0.00000000000E+00 0. -1.
         25    2    1    2    0    0  0.69561719079E+02  0.20478155244E+02 -0.48548935311E+03  0.50656216257E+03  0.12508846856E+03 0.  0.
          5    1    3    3  502    0  0.24903415978E+02 -0.40477060285E+02 -0.33220772495E+03  0.33561587783E+03  0.41800000000E+01 0. -1.
         -5    1    3    3    0  502  0.44658303102E+02  0.60955215529E+02 -0.15328162815E+03  0.17094628474E+03  0.41800000000E+01 0. -1.
        -11    1    1    2    0    0 -0.21935835136E+02 -0.45435142296E+02 -0.13968640645E+03  0.14851877041E+03  0.00000000000E+00 0. -1.
         11    1    1    2    0    0 -0.47625883944E+02  0.24956987052E+02 -0.62777126717E+02  0.82656177404E+02  0.00000000000E+00 0.  1.
</event>
<event>
 7    1  0.3151015E-009  0.5897570E+02  0.7561462E-02  0.1402181E+00
         -1   -1    0    0    0  501 -0.00000000000E+00  0.00000000000E+00  0.47391502181E+03  0.47391502181E+03  0.00000000000E+00 0.  1.
          1   -1    0    0  501    0  0.00000000000E+00 -0.00000000000E+00 -0.35909751616E+02  0.35909751616E+02  0.00000000000E+00 0. -1.
         25    2    1    2    0    0  0.22451639359E+01  0.58458981695E+02  0.31358913664E+03  0.34265122346E+03  0.12509684656E+03 0.  0.
          5    1    3    3  502    0  0.12278278558E+01  0.34912709740E+02  0.31657996908E+03  0.31852904747E+03  0.41800000000E+01 0.  1.
         -5    1    3    3    0  502  0.10173360801E+01  0.23546271955E+02 -0.29908324395E+01  0.24122175988E+02  0.41800000000E+01 0.  1.
        -11    1    1    2    0    0  0.20733099993E+01 -0.26742726590E+02 -0.10280713553E+02  0.28725687302E+02  0.00000000000E+00 0. -1.
         11    1    1    2    0    0 -0.43184739352E+01 -0.31716255104E+02  0.13469684711E+03  0.13844786266E+03  0.00000000000E+00 0.  1.
</event>
<event>
 7    1  0.3151015E-009  0.1313204E+03  0.7561462E-02  0.1225510E+00
          1   -1    0    0  501    0  0.00000000000E+00  0.00000000000E+00  0.29162442802E+02  0.29162442802E+02  0.00000000000E+00 0. -1.
         -1   -1    0    0    0  501 -0.00000000000E+00 -0.00000000000E+00 -0.67324484649E+03  0.67324484649E+03  0.00000000000E+00 0.  1.
         25    2    1    2    0    0  0.29493977451E+02 -0.81380895207E+02 -0.30441316351E+03  0.34030657505E+03  0.12509374923E+03 0.  0.
          5    1    3    3  502    0  0.44667152499E+02  0.10680250561E+02 -0.17329064289E+03  0.17932189375E+03  0.41800000000E+01 0. -1.
         -5    1    3    3    0  502 -0.15173175049E+02 -0.92061145768E+02 -0.13112252062E+03  0.16098468130E+03  0.41800000000E+01 0. -1.
        -11    1    1    2    0    0 -0.19353957023E+02 -0.16066921523E+02 -0.10143094080E+03  0.10450338449E+03  0.00000000000E+00 0.  1.
         11    1    1    2    0    0 -0.10140020427E+02  0.97447816730E+02 -0.23823829939E+03  0.25759732975E+03  0.00000000000E+00 0. -1.
</event>
<event>
 7    1  0.3151015E-009  0.1111025E+03  0.7561462E-02  0.1258542E+00
         -2   -1    0    0    0  501 -0.00000000000E+00  0.00000000000E+00  0.36624685505E+02  0.36624685505E+02  0.00000000000E+00 0.  1.
          2   -1    0    0  501    0  0.00000000000E+00 -0.00000000000E+00 -0.35951512688E+03  0.35951512688E+03  0.00000000000E+00 0. -1.
         25    2    1    2    0    0 -0.41817323546E+01 -0.24031662412E+02 -0.14005587857E+03  0.18936176905E+03  0.12508885950E+03 0.  0.
          5    1    3    3  502    0  0.60092262220E+02 -0.59388506753E+01 -0.67867272631E+02  0.90938380349E+02  0.41800000000E+01 0.  1.
         -5    1    3    3    0  502 -0.64273994575E+02 -0.18092811737E+02 -0.72188605939E+02  0.98423388697E+02  0.41800000000E+01 0.  1.
        -11    1    1    2    0    0 -0.28539014274E+01 -0.35104089144E+02 -0.49526656528E+02  0.60772786137E+02  0.00000000000E+00 0.  1.
         11    1    1    2    0    0  0.70356337820E+01  0.59135751557E+02 -0.13330790627E+03  0.14600525720E+03  0.00000000000E+00 0. -1.
</event>
<event>
 7    1  0.3151015E-009  0.1363760E+03  0.7561462E-02  0.1218290E+00
         -1   -1    0    0    0  501 -0.00000000000E+00  0.00000000000E+00  0.16944787084E+03  0.16944787084E+03  0.00000000000E+00 0.  1.
          1   -1    0    0  501    0  0.00000000000E+00 -0.00000000000E+00 -0.11972012605E+03  0.11972012605E+03  0.00000000000E+00 0. -1.
         25    2    1    2    0    0 -0.14783944203E+02  0.91054207284E+02  0.12846545913E+02  0.15595779716E+03  0.12509343341E+03 0.  0.
          5    1    3    3  502    0 -0.55667058172E+02  0.13930616019E+02 -0.22380439315E+02  0.61735240278E+02  0.41800000000E+01 0.  1.
         -5    1    3    3    0  502  0.40883113969E+02  0.77123591264E+02  0.35226985228E+02  0.94222556883E+02  0.41800000000E+01 0.  1.
        -11    1    1    2    0    0  0.18582825308E+02 -0.10844510093E+03  0.34130986345E+02  0.11519802750E+03  0.00000000000E+00 0. -1.
         11    1    1    2    0    0 -0.37988811044E+01  0.17390893643E+02  0.27502125351E+01  0.18012172227E+02  0.00000000000E+00 0.  1.
</event>
<event>
 7    1  0.3151015E-009  0.1610507E+03  0.7561462E-02  0.1187516E+00
          2   -1    0    0  501    0  0.00000000000E+00  0.00000000000E+00  0.15288060494E+04  0.15288060494E+04  0.00000000000E+00 0.  1.
         -2   -1    0    0    0  501 -0.00000000000E+00 -0.00000000000E+00 -0.21119507077E+02  0.21119507077E+02  0.00000000000E+00 0. -1.
         25    2    1    2    0    0 -0.75294939509E+02  0.11407811316E+03  0.98760003020E+03  0.10048305705E+04  0.12509001549E+03 0.  0.
          5    1    3    3  502    0 -0.84315634408E+02  0.59016457978E+02  0.35167941357E+03  0.36645320417E+03  0.41800000000E+01 0. -1.
         -5    1    3    3    0  502  0.90206948987E+01  0.55061655184E+02  0.63592061663E+03  0.63837736634E+03  0.41800000000E+01 0. -1.
        -11    1    1    2    0    0 -0.14079980581E+02  0.43883887848E+01  0.42723120904E+02  0.45197000664E+02  0.00000000000E+00 0. -1.
         11    1    1    2    0    0  0.89374920091E+02 -0.11846650195E+03  0.47736339119E+03  0.49989798526E+03  0.00000000000E+00 0.  1.
</event>
<event>
 7    1  0.3151015E-009  0.2308053E+03  0.7561462E-02  0.1126074E+00
         -3   -1    0    0    0  501 -0.00000000000E+00  0.00000000000E+00  0.40628871722E+02  0.40628871722E+02  0.00000000000E+00 0.  1.
          3   -1    0    0  501    0  0.00000000000E+00 -0.00000000000E+00 -0.15636647522E+04  0.15636647522E+04  0.00000000000E+00 0. -1.
         25    2    1    2    0    0  0.17530283446E+03  0.14040820062E+03 -0.71901380151E+03  0.76359003589E+03  0.12507337679E+03 0.  0.
          5    1    3    3  502    0  0.71819235222E+02  0.14402569368E+02 -0.10373153731E+03  0.12705566018E+03  0.41800000000E+01 0. -1.
         -5    1    3    3    0  502  0.10348359924E+03  0.12600563125E+03 -0.61528226420E+03  0.63653437571E+03  0.41800000000E+01 0. -1.
        -11    1    1    2    0    0 -0.60141138740E+02 -0.38916960995E+02 -0.12073612374E+03  0.14038767039E+03  0.00000000000E+00 0.  1.
         11    1    1    2    0    0 -0.11516169572E+03 -0.10149123963E+03 -0.68328595519E+03  0.70031591760E+03  0.00000000000E+00 0. -1.
</event>
<event>
 7    1  0.3151015E-009  0.1250754E+03  0.7561462E-02  0.1234952E+00
         -1   -1    0    0    0  501 -0.00000000000E+00  0.00000000000E+00  0.12678669170E+03  0.12678669170E+03  0.00000000000E+00 0.  1.
          1   -1    0    0  501    0  0.00000000000E+00 -0.00000000000E+00 -0.15627130129E+03  0.15627130129E+03  0.00000000000E+00 0. -1.
         25    2    1    2    0    0  0.60191107235E+02 -0.60426965188E+02  0.95607634084E+01  0.15169986353E+03  0.12508818044E+03 0.  0.
          5    1    3    3  502    0  0.67620273696E+02 -0.11563417939E+01 -0.35746732057E+02  0.76610311276E+02  0.41800000000E+01 0. -1.
         -5    1    3    3    0  502 -0.74291664610E+01 -0.59270623394E+02  0.45307495465E+02  0.75089552250E+02  0.41800000000E+01 0. -1.
        -11    1    1    2    0    0 -0.58341376547E+02 -0.36047441832E+01 -0.32722030504E+02  0.66988369725E+02  0.00000000000E+00 0. -1.
         11    1    1    2    0    0 -0.18497306882E+01  0.64031709371E+02 -0.63233424918E+01  0.64369759739E+02  0.00000000000E+00 0.  1.
</event>
<event>
 7    1  0.3151015E-009  0.1219519E+03  0.7561462E-02  0.1239911E+00
         -1   -1    0    0    0  501 -0.00000000000E+00  0.00000000000E+00  0.17236162076E+02  0.17236162076E+02  0.00000000000E+00 0.  1.
          1   -1    0    0  501    0  0.00000000000E+00 -0.00000000000E+00 -0.92780834204E+03  0.92780834204E+03  0.00000000000E+00 0. -1.
         25    2    1    2    0    0 -0.47853558233E+02  0.36977806569E+02 -0.45695790325E+03  0.47760638426E+03  0.12506003250E+03 0.  0.
          5    1    3    3  502    0  0.40491759513E+02  0.16598384327E+02 -0.20864683233E+03  0.21322772332E+03  0.41800000000E+01 0.  1.
         -5    1    3    3    0  502 -0.88345317746E+02  0.20379422242E+02 -0.24831107092E+03  0.26437866094E+03  0.41800000000E+01 0.  1.
        -11    1    1    2    0    0  0.45930176097E+02  0.21470874409E+02 -0.15279717748E+03  0.16098930700E+03  0.00000000000E+00 0.  1.
         11    1    1    2    0    0  0.19233821362E+01 -0.58448680978E+02 -0.30081709924E+03  0.30644881285E+03  0.00000000000E+00 0. -1.
</event>
<event>
 7    1  0.3151015E-009  0.1436644E+03  0.7561462E-02  0.1208482E+00
         -2   -1    0    0    0  501 -0.00000000000E+00  0.00000000000E+00  0.48287502840E+03  0.48287502840E+03  0.00000000000E+00 0.  1.
          2   -1    0    0  501    0  0.00000000000E+00 -0.00000000000E+00 -0.49233970904E+02  0.49233970904E+02  0.00000000000E+00 0. -1.
         25    2    1    2    0    0 -0.97528087202E+02  0.53566460275E+02  0.27175810764E+03  0.31919278927E+03  0.12510185528E+03 0.  0.
          5    1    3    3  502    0  0.66841619041E+01 -0.30460853036E+02  0.73310301532E+02  0.79777279339E+02  0.41800000000E+01 0.  1.
         -5    1    3    3    0  502 -0.10421224911E+03  0.84027313311E+02  0.19844780611E+03  0.23941550993E+03  0.41800000000E+01 0.  1.
        -11    1    1    2    0    0  0.32354882611E+02  0.68380733847E+01  0.98126932275E+02  0.10354946892E+03  0.00000000000E+00 0.  1.
         11    1    1    2    0    0  0.65173204591E+02 -0.60404533660E+02  0.63756017575E+02  0.10936674111E+03  0.00000000000E+00 0. -1.
</event>
<event>
 7    1  0.3151015E-009  0.1820672E+03  0.7561462E-02  0.1165817E+00
          2   -1    0    0  501    0  0.00000000000E+00  0.00000000000E+00  0.55467425637E+03  0.55467425637E+03  0.00000000000E+00 0. -1.
         -2   -1    0    0    0  501 -0.00000000000E+00 -0.00000000000E+00 -0.68769659568E+02  0.68769659568E+02  0.00000000000E+00 0.  1.
         25    2    1    2    0    0 -0.75121174491E-01  0.15076367536E+03  0.35004859603E+03  0.40113740677E+03  0.12508999990E+03 0.  0.
          5    1    3    3  502    0  0.46135942152E+02  0.10313086811E+02  0.72909882504E+02  0.86995449792E+02  0.41800000000E+01 0.  1.
         -5    1    3    3    0  502 -0.46211063327E+02  0.14045058855E+03  0.27713871353E+03  0.31414195698E+03  0.41800000000E+01 0.  1.
        -11    1    1    2    0    0 -0.23800500010E+02 -0.14094941236E+03  0.87799355544E+02  0.16775555871E+03  0.00000000000E+00 0. -1.
         11    1    1    2    0    0  0.23875621185E+02 -0.98142629966E+01  0.48056645221E+02  0.54550950450E+02  0.00000000000E+00 0.  1.
</event>
<event>
 7    1  0.3151015E-009  0.1346694E+03  0.7561462E-02  0.1220687E+00
         -2   -1    0    0    0  501 -0.00000000000E+00  0.00000000000E+00  0.22222512991E+02  0.22222512991E+02  0.00000000000E+00 0. -1.
          2   -1    0    0  501    0  0.00000000000E+00 -0.00000000000E+00 -0.83298266163E+03  0.83298266163E+03  0.00000000000E+00 0.  1.
         25    2    1    2    0    0  0.64406631272E+02 -0.45761072134E+02 -0.50342232923E+03  0.52471221921E+03  0.12508629638E+03 0.  0.
          5    1    3    3  502    0  0.40450244037E+02  0.41002164594E+02 -0.20580321742E+03  0.21375181038E+03  0.41800000000E+01 0.  1.
         -5    1    3    3    0  502  0.23956387235E+02 -0.86763236729E+02 -0.29761911182E+03  0.31096040882E+03  0.41800000000E+01 0.  1.
        -11    1    1    2    0    0 -0.74496693379E+02 -0.12965698625E+00 -0.18409555464E+03  0.19859745057E+03  0.00000000000E+00 0. -1.
         11    1    1    2    0    0  0.10090062107E+02  0.45890729120E+02 -0.12324226477E+03  0.13189550484E+03  0.00000000000E+00 0.  1.
</event>
<event>
 7    1  0.3151015E-009  0.1227286E+03  0.7561462E-02  0.1238662E+00
         -1   -1    0    0    0  501 -0.00000000000E+00  0.00000000000E+00  0.93343334656E+02  0.93343334656E+02  0.00000000000E+00 0. -1.
          1   -1    0    0  501    0  0.00000000000E+00 -0.00000000000E+00 -0.20141451120E+03  0.20141451120E+03  0.00000000000E+00 0.  1.
         25    2    1    2    0    0  0.69946501075E+02 -0.43971451798E+02 -0.50195858044E+02  0.15808949042E+03  0.12508661492E+03 0.  0.
          5    1    3    3  502    0 -0.12047395253E+02 -0.63949335492E+02 -0.17780954712E+02  0.67589141086E+02  0.41800000000E+01 0. -1.
         -5    1    3    3    0  502  0.81993896328E+02  0.19977883694E+02 -0.32414903332E+02  0.90500349336E+02  0.41800000000E+01 0. -1.
        -11    1    1    2    0    0 -0.40185025255E+02 -0.28359090792E+01 -0.69185300435E+02  0.80059255750E+02  0.00000000000E+00 0.  1.
         11    1    1    2    0    0 -0.29761475820E+02  0.46807360877E+02  0.11309981938E+02  0.56609099681E+02  0.00000000000E+00 0. -1.
</event>
<event>
 7    1  0.3151015E-009  0.5343832E+02  0.7561462E-02  0.1427632E+00
          2   -1    0    0  501    0  0.00000000000E+00  0.00000000000E+00  0.19761274577E+03  0.19761274577E+03  0.00000000000E+00 0.  1.
         -2   -1    0    0    0  501 -0.00000000000E+00 -0.00000000000E+00 -0.69749420703E+02  0.69749420703E+02  0.00000000000E+00 0. -1.
         25    2    1    2    0    0  0.16993648378E+02 -0.37026558860E+02  0.10129936007E+03  0.16603890216E+03  0.12509039345E+03 0.  0.
          5    1    3    3  502    0 -0.68065025698E+01 -0.84605262713E+01  0.12248848260E+03  0.12303987058E+03  0.41800000000E+01 0.  1.
         -5    1    3    3    0  502  0.23800150948E+02 -0.28566032589E+02 -0.21189122532E+02  0.42999031579E+02  0.41800000000E+01 0.  1.
        -11    1    1    2    0    0 -0.29275441611E+02  0.15710914435E+02  0.54668394020E+02  0.63972788111E+02  0.00000000000E+00 0.  1.
         11    1    1    2    0    0  0.12281793233E+02  0.21315644425E+02 -0.28104429021E+02  0.37350476207E+02  0.00000000000E+00 0. -1.
</event>
<event>
 7    1  0.3151015E-009  0.1224849E+03  0.7561462E-02  0.1239053E+00
         -2   -1    0    0    0  501 -0.00000000000E+00  0.00000000000E+00  0.12727126306E+03  0.12727126306E+03  0.00000000000E+00 0.  1.
          2   -1    0    0  501    0  0.00000000000E+00 -0.00000000000E+00 -0.13525344576E+03  0.13525344576E+03  0.00000000000E+00 0. -1.
         25    2    1    2    0    0  0.69870829985E+02 -0.18346100578E+02 -0.99006971622E+01  0.14478974010E+03  0.12509009851E+03 0.  0.
          5    1    3    3  502    0 -0.26541499346E+02  0.26675567740E+02 -0.22057454706E+00  0.37862358021E+02  0.41800000000E+01 0. -1.
         -5    1    3    3    0  502  0.96412329331E+02 -0.45021668317E+02 -0.96801226151E+01  0.10692738208E+03  0.41800000000E+01 0. -1.
        -11    1    1    2    0    0 -0.83575997070E+02  0.22024982045E+02 -0.22663232699E+02  0.89351380721E+02  0.00000000000E+00 0. -1.
         11    1    1    2    0    0  0.13705167086E+02 -0.36788814679E+01  0.24581747169E+02  0.28383587997E+02  0.00000000000E+00 0.  1.
</event>
<event>
 7    1  0.3151015E-009  0.9294918E+02  0.7561462E-02  0.1295863E+00
         -1   -1    0    0    0  501 -0.00000000000E+00  0.00000000000E+00  0.11730563983E+03  0.11730563983E+03  0.00000000000E+00 0.  1.
          1   -1    0    0  501    0  0.00000000000E+00 -0.00000000000E+00 -0.11290779975E+03  0.11290779975E+03  0.00000000000E+00 0. -1.
         25    2    1    2    0    0 -0.15541092391E+02 -0.16952550926E+02 -0.21910581913E+02  0.12905635965E+03  0.12508619361E+03 0.  0.
          5    1    3    3  502    0 -0.15990520463E+02 -0.71026094549E+02 -0.11368586253E+02  0.73804606936E+02  0.41800000000E+01 0. -1.
         -5    1    3    3    0  502  0.44942807251E+00  0.54073543624E+02 -0.10541995659E+02  0.55251752715E+02  0.41800000000E+01 0. -1.
        -11    1    1    2    0    0  0.20101614512E+02  0.34870002489E+02  0.54312284079E+02  0.67600415542E+02  0.00000000000E+00 0.  1.
         11    1    1    2    0    0 -0.45605221209E+01 -0.17917451564E+02 -0.28003862092E+02  0.33556664385E+02  0.00000000000E+00 0. -1.
</event>
<event>
 7    1  0.3151015E-009  0.1221679E+03  0.7561462E-02  0.1239563E+00
         -2   -1    0    0    0  501 -0.00000000000E+00  0.00000000000E+00  0.57360949533E+02  0.57360949533E+02  0.00000000000E+00 0.  1.
          2   -1    0    0  501    0  0.00000000000E+00 -0.00000000000E+00 -0.44641339721E+03  0.44641339721E+03  0.00000000000E+00 0. -1.
         25    2    1    2    0    0 -0.95333507347E+02 -0.35746669437E+02 -0.29743318061E+03  0.33834881359E+03  0.12508845164E+03 0.  0.
          5    1    3    3  502    0 -0.11001798086E+03 -0.10764426488E+02 -0.14108398466E+03  0.17928187894E+03  0.41800000000E+01 0. -1.
         -5    1    3    3    0  502  0.14684473512E+02 -0.24982242949E+02 -0.15634919595E+03  0.15906693465E+03  0.41800000000E+01 0. -1.
        -11    1    1    2    0    0  0.48199864714E+02  0.56924499425E+01  0.98991732265E+01  0.49534074892E+02  0.00000000000E+00 0.  1.
         11    1    1    2    0    0  0.47133642633E+02  0.30054219495E+02 -0.10151844029E+03  0.11589145826E+03  0.00000000000E+00 0. -1.
</event>
<event>
 7    1  0.3151015E-009  0.1251814E+03  0.7561462E-02  0.1234786E+00
         -1   -1    0    0    0  501 -0.00000000000E+00  0.00000000000E+00  0.39062763579E+02  0.39062763579E+02  0.00000000000E+00 0.  1.
          1   -1    0    0  501    0  0.00000000000E+00 -0.00000000000E+00 -0.67329349431E+03  0.67329349431E+03  0.00000000000E+00 0. -1.
         25    2    1    2    0    0  0.57896221563E+02  0.10440858695E+03 -0.30394917982E+03  0.34969282751E+03  0.12508734628E+03 0.  0.
          5    1    3    3  502    0  0.63032214631E+02  0.71749137390E+02 -0.84072925846E+02  0.12730564818E+03  0.41800000000E+01 0. -1.
         -5    1    3    3    0  502 -0.51359930671E+01  0.32659449560E+02 -0.21987625398E+03  0.22238717934E+03  0.41800000000E+01 0. -1.
        -11    1    1    2    0    0 -0.12652222385E+02 -0.45138781717E+02 -0.24472292714E+03  0.24917242908E+03  0.00000000000E+00 0. -1.
         11    1    1    2    0    0 -0.45243999178E+02 -0.59269805233E+02 -0.85558623769E+02  0.11349100130E+03  0.00000000000E+00 0.  1.
</event>
<event>
 7    1  0.3151015E-009  0.9571434E+02  0.7561462E-02  0.1289575E+00
         -2   -1    0    0    0  501 -0.00000000000E+00  0.00000000000E+00  0.21184911338E+03  0.21184911338E+03  0.00000000000E+00 0.  1.
          2   -1    0    0  501    0  0.00000000000E+00 -0.00000000000E+00 -0.80794092777E+02  0.80794092777E+02  0.00000000000E+00 0. -1.
         25    2    1    2    0    0  0.75681733554E+01  0.43447080755E+02  0.43651713816E+02  0.13963206288E+03  0.12508682901E+03 0.  0.
          5    1    3    3  502    0 -0.20850266861E+02 -0.92335511687E+01  0.70266026461E+02  0.73991749337E+02  0.41800000000E+01 0.  1.
         -5    1    3    3    0  502  0.28418440217E+02  0.52680631924E+02 -0.26614312645E+02  0.65640313541E+02  0.41800000000E+01 0.  1.
        -11    1    1    2    0    0 -0.40878375282E+02  0.12831583525E+02  0.75105948119E+02  0.86467303325E+02  0.00000000000E+00 0.  1.
         11    1    1    2    0    0  0.33310201927E+02 -0.56278664280E+02  0.12297358668E+02  0.66543839953E+02  0.00000000000E+00 0. -1.
</event>
<event>
 7    1  0.3151015E-009  0.1194580E+03  0.7561462E-02  0.1243994E+00
         -3   -1    0    0    0  501 -0.00000000000E+00  0.00000000000E+00  0.66906216757E+02  0.66906216757E+02  0.00000000000E+00 0.  1.
          3   -1    0    0  501    0  0.00000000000E+00 -0.00000000000E+00 -0.27815058039E+03  0.27815058039E+03  0.00000000000E+00 0. -1.
         25    2    1    2    0    0  0.77089239144E+02 -0.12946573734E+02 -0.94997515496E+02  0.17544351220E+03  0.12508210687E+03 0.  0.
          5    1    3    3  502    0 -0.17064271095E+02  0.24027332972E+02  0.82040300215E+01  0.30875242288E+02  0.41800000000E+01 0. -1.
         -5    1    3    3    0  502  0.94153510239E+02 -0.36973906706E+02 -0.10320154552E+03  0.14456826991E+03  0.41800000000E+01 0. -1.
        -11    1    1    2    0    0 -0.92105149885E+02  0.10601857988E+02 -0.57872812057E+02  0.10929327703E+03  0.00000000000E+00 0.  1.
         11    1    1    2    0    0  0.15015910741E+02  0.23447157467E+01 -0.58374036078E+02  0.60320007919E+02  0.00000000000E+00 0. -1.
</event>
<event>
 7    1  0.3151015E-009  0.1058992E+03  0.7561462E-02  0.1268358E+00
         -2   -1    0    0    0  501 -0.00000000000E+00  0.00000000000E+00  0.55009073555E+02  0.55009073555E+02  0.00000000000E+00 0.  1.
          2   -1    0    0  501    0  0.00000000000E+00 -0.00000000000E+00 -0.33784978647E+03  0.33784978647E+03  0.00000000000E+00 0. -1.
         25    2    1    2    0    0 -0.36166420386E+02  0.58313972620E+02 -0.88578124042E+02  0.16793668773E+03  0.12509243647E+03 0.  0.
          5    1    3    3  502    0  0.25242970912E+02  0.63984726677E+02 -0.79910575408E+02  0.10551978625E+03  0.41800000000E+01 0.  1.
         -5    1    3    3    0  502 -0.61409391298E+02 -0.56707540572E+01 -0.86675486337E+01  0.62416901481E+02  0.41800000000E+01 0.  1.
        -11    1    1    2    0    0  0.41830153508E+02 -0.28234882774E+02 -0.31909656385E+02  0.59709266604E+02  0.00000000000E+00 0.  1.
         11    1    1    2    0    0 -0.56637331222E+01 -0.30079089845E+02 -0.16235293249E+03  0.16521290569E+03  0.00000000000E+00 0. -1.
</event>
<event>
 7    1  0.3151015E-009  0.1465961E+03  0.7561462E-02  0.1204719E+00
         -2   -1    0    0    0  501 -0.00000000000E+00  0.00000000000E+00  0.41462730506E+02  0.41462730506E+02  0.00000000000E+00 0.  1.
          2   -1    0    0  501    0  0.00000000000E+00 -0.00000000000E+00 -0.56788937318E+03  0.56788937318E+03  0.00000000000E+00 0. -1.
         25    2    1    2    0    0  0.79542335297E+02  0.72744896816E+02 -0.30696212781E+03  0.34855761382E+03  0.12509140306E+03 0.  0.
          5    1    3    3  502    0  0.10129767021E+03  0.80288333237E+02 -0.19371119637E+03  0.23291400655E+03  0.41800000000E+01 0. -1.
         -5    1    3    3    0  502 -0.21755334915E+02 -0.75434364204E+01 -0.11325093144E+03  0.11564360727E+03  0.41800000000E+01 0. -1.
        -11    1    1    2    0    0 -0.44865315162E+02  0.14038211694E+02 -0.64148528099E+02  0.79529878344E+02  0.00000000000E+00 0.  1.
         11    1    1    2    0    0 -0.34677020135E+02 -0.86783108511E+02 -0.15531598676E+03  0.18126461153E+03  0.00000000000E+00 0. -1.
</event>
<event>
 7    1  0.3151015E-009  0.7850279E+02  0.7561462E-02  0.1333355E+00
          2   -1    0    0  501    0  0.00000000000E+00  0.00000000000E+00  0.26263871910E+03  0.26263871910E+03  0.00000000000E+00 0. -1.
         -2   -1    0    0    0  501 -0.00000000000E+00 -0.00000000000E+00 -0.48871061043E+02  0.48871061043E+02  0.00000000000E+00 0.  1.
         25    2    1    2    0    0 -0.36907745344E+00  0.67525677933E+01  0.77326485086E+02  0.14721546757E+03  0.12508906909E+03 0.  0.
          5    1    3    3  502    0  0.20946260573E+02  0.54620263953E+02  0.74169415097E+02  0.94555241008E+02  0.41800000000E+01 0.  1.
         -5    1    3    3    0  502 -0.21315338026E+02 -0.47867696160E+02  0.31570699892E+01  0.52660226564E+02  0.41800000000E+01 0.  1.
        -11    1    1    2    0    0 -0.20912333643E+02  0.49711142040E+01 -0.39166855912E+01  0.21848983977E+02  0.00000000000E+00 0.  1.
         11    1    1    2    0    0  0.21281411097E+02 -0.11723681997E+02  0.14035785856E+03  0.14244532859E+03  0.00000000000E+00 0. -1.
</event>
<event>
 7    1  0.3151015E-009  0.1578326E+03  0.7561462E-02  0.1191166E+00
         -1   -1    0    0    0  501 -0.00000000000E+00  0.00000000000E+00  0.15173351685E+04  0.15173351685E+04  0.00000000000E+00 0.  1.
          1   -1    0    0  501    0  0.00000000000E+00 -0.00000000000E+00 -0.27085501921E+02  0.27085501921E+02  0.00000000000E+00 0. -1.
         25    2    1    2    0    0 -0.14842231459E+03 -0.24220880646E+01  0.11038919240E+04  0.11208290376E+04  0.12508118037E+03 0.  0.
          5    1    3    3  502    0 -0.87217452048E+02 -0.25811899532E+00  0.25144544892E+03  0.26617519935E+03  0.41800000000E+01 0.  1.
         -5    1    3    3    0  502 -0.61204862545E+02 -0.21639690692E+01  0.85244647511E+03  0.85465383828E+03  0.41800000000E+01 0.  1.
        -11    1    1    2    0    0  0.46037978171E+02 -0.35127406392E+02  0.19414987106E+03  0.20260207932E+03  0.00000000000E+00 0. -1.
         11    1    1    2    0    0  0.10238433642E+03  0.37549494456E+02  0.19220787149E+03  0.22098955347E+03  0.00000000000E+00 0.  1.
</event>
<event>
 7    1  0.3461748E-009  0.9309894E+02  0.7561462E-02  0.1295516E+00
         -2   -1    0    0    0  501 -0.00000000000E+00  0.00000000000E+00  0.65835382582E+02  0.65835382582E+02  0.00000000000E+00 0.  1.
          2   -1    0    0  501    0  0.00000000000E+00 -0.00000000000E+00 -0.35694632694E+03  0.35694632694E+03  0.00000000000E+00 0. -1.
         25    2    1    2    0    0 -0.51529781081E+01 -0.19943229125E+02 -0.10767962076E+02  0.12723516284E+03  0.12509417287E+03 0.  0.
          5    1    3    3  502    0  0.23427640416E+02  0.33479458349E+02  0.32740148766E+02  0.52527309164E+02  0.41800000000E+01 0. -1.
         -5    1    3    3    0  502 -0.28580618524E+02 -0.53422687474E+02 -0.43508110842E+02  0.74707853678E+02  0.41800000000E+01 0. -1.
        -11    1    1    2    0    0 -0.38259069508E+02  0.13118489646E+02 -0.19923195880E+03  0.20329590398E+03  0.00000000000E+00 0.  1.
         11    1    1    2    0    0  0.43412047617E+02  0.68247394786E+01 -0.81111023485E+02  0.92250642697E+02  0.00000000000E+00 0. -1.
</event>
<event>
 7    1  0.3151015E-009  0.6864581E+02  0.7561462E-02  0.1364760E+00
          2   -1    0    0  501    0  0.00000000000E+00  0.00000000000E+00  0.10651556777E+03  0.10651556777E+03  0.00000000000E+00 0. -1.
         -2   -1    0    0    0  501 -0.00000000000E+00 -0.00000000000E+00 -0.12832519031E+03  0.12832519031E+03  0.00000000000E+00 0.  1.
         25    2    1    2    0    0  0.10137828067E+02 -0.15850401187E+02  0.28709171659E+02  0.12971323867E+03  0.12508915609E+03 0.  0.
          5    1    3    3  502    0 -0.64721965406E+01  0.38168006584E+02 -0.29214695654E+02  0.48679121776E+02  0.41800000000E+01 0. -1.
         -5    1    3    3    0  502  0.16610024607E+02 -0.54018407772E+02  0.57923867314E+02  0.81034116890E+02  0.41800000000E+01 0. -1.
        -11    1    1    2    0    0  0.14058729332E+02  0.83550998800E+01 -0.70808500714E+02  0.72672548723E+02  0.00000000000E+00 0.  1.
         11    1    1    2    0    0 -0.24196557398E+02  0.74953013073E+01  0.20289706518E+02  0.32454970686E+02  0.00000000000E+00 0. -1.
</event>
<event>
 7    1  0.3151015E-009  0.1102379E+03  0.7561462E-02  0.1260130E+00
         -3   -1    0    0    0  501 -0.00000000000E+00  0.00000000000E+00  0.13920423146E+03  0.13920423146E+03  0.00000000000E+00 0.  1.
          3   -1    0    0  501    0  0.00000000000E+00 -0.00000000000E+00 -0.10629112010E+03  0.10629112010E+03  0.00000000000E+00 0. -1.
         25    2    1    2    0    0  0.46062593856E+02  0.15628526610E+02  0.53123799313E+02  0.14434757229E+03  0.12509224666E+03 0.  0.
          5    1    3    3  502    0 -0.26398678901E+02  0.46163221318E+02  0.34193744062E+02  0.63361011538E+02  0.41800000000E+01 0.  1.
         -5    1    3    3    0  502  0.72461272757E+02 -0.30534694708E+02  0.18930055252E+02  0.80986560751E+02  0.41800000000E+01 0.  1.
        -11    1    1    2    0    0 -0.66447183753E+02 -0.96292867521E+01  0.59964677035E+01  0.67408523326E+02  0.00000000000E+00 0.  1.
         11    1    1    2    0    0  0.20384589897E+02 -0.59992398574E+01 -0.26207155662E+02  0.33739255949E+02  0.00000000000E+00 0. -1.
</event>
<event>
 7    1  0.3151015E-009  0.4140313E+03  0.7561462E-02  0.1039027E+00
          2   -1    0    0  501    0  0.00000000000E+00  0.00000000000E+00  0.46110275319E+03  0.46110275319E+03  0.00000000000E+00 0. -1.
         -2   -1    0    0    0  501 -0.00000000000E+00 -0.00000000000E+00 -0.39870981746E+03  0.39870981746E+03  0.00000000000E+00 0.  1.
         25    2    1    2    0    0 -0.14979804164E+03 -0.38572820022E+03  0.58753770066E+02  0.43626278265E+03  0.12509001680E+03 0.  0.
          5    1    3    3  502    0 -0.10351850120E+03 -0.24459032730E+03 -0.23079552904E+02  0.26662829268E+03  0.41800000000E+01 0.  1.
         -5    1    3    3    0  502 -0.46279540442E+02 -0.14113787292E+03  0.81833322970E+02  0.16963448996E+03  0.41800000000E+01 0.  1.
        -11    1    1    2    0    0  0.20434012672E+02  0.58987398285E+02  0.33532816502E+02  0.70862626348E+02  0.00000000000E+00 0. -1.
         11    1    1    2    0    0  0.12936402897E+03  0.32674080193E+03 -0.29893650834E+02  0.35268716166E+03  0.00000000000E+00 0.  1.
</event>
<event>
 7    1  0.3151015E-009  0.1053032E+03  0.7561462E-02  0.1269523E+00
         -1   -1    0    0    0  501 -0.00000000000E+00  0.00000000000E+00  0.47396034641E+02  0.47396034641E+02  0.00000000000E+00 0. -1.
          1   -1    0    0  501    0  0.00000000000E+00 -0.00000000000E+00 -0.35739269721E+03  0.35739269721E+03  0.00000000000E+00 0.  1.
         25    2    1    2    0    0 -0.62626071350E+02  0.14879549794E+02 -0.22372022679E+03  0.26427616613E+03  0.12509087216E+03 0.  0.
          5    1    3    3  502    0 -0.77967954532E+02 -0.17482414561E+02 -0.21162195381E+03  0.22624314462E+03  0.41800000000E+01 0.  1.
         -5    1    3    3    0  502  0.15341883182E+02  0.32361964355E+02 -0.12098272978E+02  0.38033021515E+02  0.41800000000E+01 0.  1.
        -11    1    1    2    0    0  0.29623361441E+02 -0.42290930529E+02 -0.82656259312E+02  0.97458316996E+02  0.00000000000E+00 0.  1.
         11    1    1    2    0    0  0.33002709908E+02  0.27411380736E+02 -0.36201764670E+01  0.43054248719E+02  0.00000000000E+00 0. -1.
</event>
<event>
 7    1  0.3151015E-009  0.1333061E+03  0.7561462E-02  0.1222631E+00
         -3   -1    0    0    0  501 -0.00000000000E+00  0.00000000000E+00  0.10519890976E+03  0.10519890976E+03  0.00000000000E+00 0.  1.
          3   -1    0    0  501    0  0.00000000000E+00 -0.00000000000E+00 -0.22519400220E+03  0.22519400220E+03  0.00000000000E+00 0. -1.
         25    2    1    2    0    0 -0.98280005190E+02 -0.82094191805E-01 -0.27595217932E+02  0.16145719589E+03  0.12509182185E+03 0.  0.
          5    1    3    3  502    0 -0.26967105002E+02 -0.56373142100E+02 -0.32137699409E+02  0.70395028417E+02  0.41800000000E+01 0. -1.
         -5    1    3    3    0  502 -0.71312900188E+02  0.56291047908E+02  0.45424814780E+01  0.91062167478E+02  0.41800000000E+01 0. -1.
        -11    1    1    2    0    0  0.98946092870E+02  0.13266235987E+02 -0.28689508739E+02  0.10387208587E+03  0.00000000000E+00 0.  1.
         11    1    1    2    0    0 -0.66608768001E+00 -0.13184141795E+02 -0.63710365768E+02  0.65063630193E+02  0.00000000000E+00 0. -1.
</event>
<event>
 7    1  0.3151015E-009  0.8652832E+02  0.7561462E-02  0.1311484E+00
          2   -1    0    0  501    0  0.00000000000E+00  0.00000000000E+00  0.20158053937E+03  0.20158053937E+03  0.00000000000E+00 0. -1.
         -2   -1    0    0    0  501 -0.00000000000E+00 -0.00000000000E+00 -0.66947929383E+02  0.66947929383E+02  0.00000000000E+00 0.  1.
         25    2    1    2    0    0  0.23298230962E+02 -0.24868190124E+02  0.50605345624E+02  0.13917498820E+03  0.12509013505E+03 0.  0.
          5    1    3    3  502    0 -0.58049343241E+01 -0.69126474560E+02  0.50727928458E+02  0.86040466486E+02  0.41800000000E+01 0. -1.
         -5    1    3    3    0  502  0.29103165286E+02  0.44258284436E+02 -0.12258283376E+00  0.53134521711E+02  0.41800000000E+01 0. -1.
        -11    1    1    2    0    0 -0.31926213217E+02  0.10393194142E+02  0.10039560915E+03  0.10586113504E+03  0.00000000000E+00 0. -1.
         11    1    1    2    0    0  0.86279822549E+01  0.14474995982E+02 -0.16368344793E+02  0.23492345514E+02  0.00000000000E+00 0.  1.
</event>
<event>
 7    1  0.3151015E-009  0.2063575E+03  0.7561462E-02  0.1144483E+00
          2   -1    0    0  501    0  0.00000000000E+00  0.00000000000E+00  0.20007912054E+04  0.20007912054E+04  0.00000000000E+00 0.  1.
         -2   -1    0    0    0  501 -0.00000000000E+00 -0.00000000000E+00 -0.32823820710E+02  0.32823820710E+02  0.00000000000E+00 0. -1.
         25    2    1    2    0    0  0.16370441752E+03  0.10265446315E+03  0.14773118234E+04  0.14951378400E+04  0.12509940894E+03 0.  0.
          5    1    3    3  502    0  0.72806577065E+02  0.90330427559E+02  0.11280000782E+04  0.11339585674E+04  0.41800000000E+01 0. -1.
         -5    1    3    3    0  502  0.90897840457E+02  0.12324035593E+02  0.34931174516E+03  0.36117927260E+03  0.41800000000E+01 0. -1.
        -11    1    1    2    0    0 -0.30802290351E+02  0.80386513309E+01  0.18111229046E+03  0.18388872386E+03  0.00000000000E+00 0.  1.
         11    1    1    2    0    0 -0.13290212717E+03 -0.11069311448E+03  0.30954327082E+03  0.35458846218E+03  0.00000000000E+00 0. -1.
</event>
<event>
 7    1  0.3252227E-009  0.1550311E+03  0.7561462E-02  0.1194424E+00
          4   -1    0    0  501    0  0.00000000000E+00  0.00000000000E+00  0.21523663456E+03  0.21523663456E+03  0.00000000000E+00 0. -1.
         -4   -1    0    0    0  501 -0.00000000000E+00 -0.00000000000E+00 -0.15168865249E+03  0.15168865249E+03  0.00000000000E+00 0.  1.
         25    2    1    2    0    0 -0.12651486024E+03 -0.79616979621E+01 -0.36278263256E+02  0.18174893049E+03  0.12508861999E+03 0.  0.
          5    1    3    3  502    0 -0.11795058094E+03  0.42176025308E+02 -0.14176405421E+02  0.12613326098E+03  0.41800000000E+01 0.  1.
         -5    1    3    3    0  502 -0.85642793009E+01 -0.50137723270E+02 -0.22101857835E+02  0.55615669504E+02  0.41800000000E+01 0.  1.
        -11    1    1    2    0    0  0.72199483578E+02  0.25571239825E+02  0.79535889055E+01  0.77005930366E+02  0.00000000000E+00 0.  1.
         11    1    1    2    0    0  0.54315376666E+02 -0.17609541863E+02  0.91872656418E+02  0.10817042620E+03  0.00000000000E+00 0. -1.
</event>
<event>
 6    1  0.3151015E-009  0.1137262E+03  0.7561462E-02  0.1253821E+00
          1   -1    0    0  501    0  0.00000000000E+00  0.00000000000E+00  0.56273262657E+03  0.56273262657E+03  0.00000000000E+00 0. -1.
         -1   -1    0    0    0  501 -0.00000000000E+00 -0.00000000000E+00 -0.23897857889E+02  0.23897857889E+02  0.00000000000E+00 0.  1.
          5    1    1    2  502    0  0.23751536451E+02  0.68313270435E+02  0.13322929908E+03  0.15165209176E+03  0.41800000000E+01 0.  1.
         -5    1    1    2    0  502 -0.41642421542E+02 -0.38982429952E+02  0.12116832268E+03  0.13398864108E+03  0.41800000000E+01 0.  1.
        -11    1    1    2    0    0 -0.37710198800E+02 -0.11719553202E+02  0.98540809279E+02  0.10615883437E+03  0.00000000000E+00 0.  1.
         11    1    1    2    0    0  0.55601083891E+02 -0.17611287281E+02  0.18589633764E+03  0.19483091725E+03  0.00000000000E+00 0. -1.
</event>
<event>
 7    1  0.3151015E-009  0.8500633E+02  0.7561462E-02  0.1315416E+00
         -1   -1    0    0    0  501 -0.00000000000E+00  0.00000000000E+00  0.17058102559E+03  0.17058102559E+03  0.00000000000E+00 0.  1.
          1   -1    0    0  501    0  0.00000000000E+00 -0.00000000000E+00 -0.97730880922E+02  0.97730880922E+02  0.00000000000E+00 0. -1.
         25    2    1    2    0    0  0.19827011750E+02  0.51265232628E+01 -0.28269602321E+02  0.12986717312E+03  0.12508765168E+03 0.  0.
          5    1    3    3  502    0  0.69075340660E+02  0.19305153405E+02 -0.14150892024E+01  0.71857960678E+02  0.41800000000E+01 0.  1.
         -5    1    3    3    0  502 -0.49248328910E+02 -0.14178630142E+02 -0.26854513118E+02  0.58009212440E+02  0.41800000000E+01 0.  1.
        -11    1    1    2    0    0 -0.25268980032E+02  0.12578959332E+02  0.11297826305E+03  0.11645101756E+03  0.00000000000E+00 0.  1.
         11    1    1    2    0    0  0.54419682817E+01 -0.17705482594E+02 -0.11858516064E+02  0.21993715828E+02  0.00000000000E+00 0. -1.
</event>
<event>
 7    1  0.3151015E-009  0.4869908E+02  0.7561462E-02  0.1452487E+00
          2   -1    0    0  501    0  0.00000000000E+00  0.00000000000E+00  0.10467195139E+03  0.10467195139E+03  0.00000000000E+00 0. -1.
         -2   -1    0    0    0  501 -0.00000000000E+00 -0.00000000000E+00 -0.12824213913E+03  0.12824213913E+03  0.00000000000E+00 0.  1.
         25    2    1    2    0    0 -0.26654053066E+02 -0.24534782192E+02 -0.13938166811E+01  0.13022994860E+03  0.12508198394E+03 0.  0.
          5    1    3    3  502    0  0.97114321066E+01 -0.17146744856E+02 -0.58571042422E+02  0.61938374076E+02  0.41800000000E+01 0.  1.
         -5    1    3    3    0  502 -0.36365485173E+02 -0.73880373361E+01  0.57177225741E+02  0.68291574524E+02  0.41800000000E+01 0.  1.
        -11    1    1    2    0    0  0.19596106696E+02  0.66665109542E+01  0.35940085967E+02  0.41474565040E+02  0.00000000000E+00 0. -1.
         11    1    1    2    0    0  0.70579463706E+01  0.17868271237E+02 -0.58116457032E+02  0.61209576880E+02  0.00000000000E+00 0.  1.
</event>
<event>
 7    1  0.3151015E-009  0.2651618E+03  0.7561462E-02  0.1104081E+00
          1   -1    0    0  501    0  0.00000000000E+00  0.00000000000E+00  0.16431877617E+03  0.16431877617E+03  0.00000000000E+00 0. -1.
         -1   -1    0    0    0  501 -0.00000000000E+00 -0.00000000000E+00 -0.67746133038E+03  0.67746133038E+03  0.00000000000E+00 0.  1.
         25    2    1    2    0    0  0.38749441469E+02  0.25413909934E+03 -0.31028690074E+02  0.28757228805E+03  0.12508733036E+03 0.  0.
          5    1    3    3  502    0  0.37316824638E+02  0.43839311610E+02 -0.50007251756E+02  0.76371645731E+02  0.41800000000E+01 0.  1.
         -5    1    3    3    0  502  0.14326168311E+01  0.21029978773E+03  0.18978561681E+02  0.21120064231E+03  0.41800000000E+01 0.  1.
        -11    1    1    2    0    0  0.86671137679E+01 -0.11364070130E+03 -0.13453949317E+03  0.17632414206E+03  0.00000000000E+00 0. -1.
         11    1    1    2    0    0 -0.47416555237E+02 -0.14049839804E+03 -0.34757437097E+03  0.37788367644E+03  0.00000000000E+00 0.  1.
</event>
<event>
 7    1  0.3151015E-009  0.1128364E+03  0.7561462E-02  0.1255406E+00
         -3   -1    0    0    0  501 -0.00000000000E+00  0.00000000000E+00  0.30964302995E+03  0.30964302995E+03  0.00000000000E+00 0.  1.
          3   -1    0    0  501    0  0.00000000000E+00 -0.00000000000E+00 -0.71617590269E+02  0.71617590269E+02  0.00000000000E+00 0. -1.
         25    2    1    2    0    0  0.22180297105E+01 -0.60427319081E+02  0.26500862807E+02  0.14144276651E+03  0.12508948765E+03 0.  0.
          5    1    3    3  502    0  0.48626841993E+02 -0.30916437510E+02 -0.27736697625E+02  0.64087383046E+02  0.41800000000E+01 0. -1.
         -5    1    3    3    0  502 -0.46408812282E+02 -0.29510881570E+02  0.54237560432E+02  0.77355383459E+02  0.41800000000E+01 0. -1.
        -11    1    1    2    0    0 -0.15283443305E+02  0.84221826860E+02  0.15336660678E+03  0.17563660164E+03  0.00000000000E+00 0.  1.
         11    1    1    2    0    0  0.13065413594E+02 -0.23794507780E+02  0.58157970090E+02  0.64181252075E+02  0.00000000000E+00 0. -1.
</event>
<event>
 7    1  0.3151015E-009  0.1328136E+03  0.7561462E-02  0.1223340E+00
          2   -1    0    0  501    0  0.00000000000E+00  0.00000000000E+00  0.51085914308E+03  0.51085914308E+03  0.00000000000E+00 0. -1.
         -2   -1    0    0    0  501 -0.00000000000E+00 -0.00000000000E+00 -0.51883707890E+02  0.51883707890E+02  0.00000000000E+00 0.  1.
         25    2    1    2    0    0  0.86889337308E+02  0.33095127560E+02  0.37949737703E+03  0.41025717853E+03  0.12509056301E+03 0.  0.
          5    1    3    3  502    0  0.31597329856E+02 -0.36264849277E+02  0.24062485169E+03  0.24542070450E+03  0.41800000000E+01 0. -1.
         -5    1    3    3    0  502  0.55292007452E+02  0.69359976838E+02  0.13887252535E+03  0.16483647403E+03  0.41800000000E+01 0. -1.
        -11    1    1    2    0    0 -0.98219910338E+02 -0.48405114751E+02  0.75561630956E+02  0.13304046750E+03  0.00000000000E+00 0.  1.
         11    1    1    2    0    0  0.11330573030E+02  0.15309987191E+02  0.39164271996E+01  0.19445204935E+02  0.00000000000E+00 0. -1.
</event>
<event>
 7    1  0.3151015E-009  0.1142293E+03  0.7561462E-02  0.1252932E+00
         -1   -1    0    0    0  501 -0.00000000000E+00  0.00000000000E+00  0.58936852397E+02  0.58936852397E+02  0.00000000000E+00 0.  1.
          1   -1    0    0  501    0  0.00000000000E+00 -0.00000000000E+00 -0.26704564444E+03  0.26704564444E+03  0.00000000000E+00 0. -1.
         25    2    1    2    0    0 -0.34565074719E+02 -0.34037950030E+02 -0.16511677143E+03  0.21275397415E+03  0.12508948348E+03 0.  0.
          5    1    3    3  502    0  0.59761884230E+01  0.40008077161E+02 -0.93536670955E+02  0.10199481496E+03  0.41800000000E+01 0. -1.
         -5    1    3    3    0  502 -0.40541263142E+02 -0.74046027191E+02 -0.71580100476E+02  0.11075915919E+03  0.41800000000E+01 0. -1.
        -11    1    1    2    0    0  0.45159543707E+02 -0.19138974555E+02 -0.10979592342E+02  0.50261677080E+02  0.00000000000E+00 0.  1.
         11    1    1    2    0    0 -0.10594468988E+02  0.53176924585E+02 -0.32012428267E+02  0.62966845602E+02  0.00000000000E+00 0. -1.
</event>
<event>
 7    1  0.3151015E-009  0.9174737E+02  0.7561462E-02  0.1298675E+00
          2   -1    0    0  501    0  0.00000000000E+00  0.00000000000E+00  0.54830146007E+03  0.54830146007E+03  0.00000000000E+00 0. -1.
         -2   -1    0    0    0  501 -0.00000000000E+00 -0.00000000000E+00 -0.25817302005E+02  0.25817302005E+02  0.00000000000E+00 0.  1.
         25    2    1    2    0    0 -0.10210810616E+02 -0.38091152704E+02  0.37071385470E+03  0.39324156661E+03  0.12511982688E+03 0.  0.
          5    1    3    3  502    0  0.90311855272E+01 -0.79504696993E+02  0.28479050790E+03  0.29584736765E+03  0.41800000000E+01 0.  1.
         -5    1    3    3    0  502 -0.19241996143E+02  0.41413544289E+02  0.85923346797E+02  0.97394198959E+02  0.41800000000E+01 0.  1.
        -11    1    1    2    0    0  0.12360164067E+02 -0.57410420888E+01 -0.75799094781E+01  0.15594494148E+02  0.00000000000E+00 0.  1.
         11    1    1    2    0    0 -0.21493534514E+01  0.43832194793E+02  0.15935021284E+03  0.16528270132E+03  0.00000000000E+00 0. -1.
</event>
<event>
 7    1  0.3151015E-009  0.2076900E+03  0.7561462E-02  0.1143408E+00
          2   -1    0    0  501    0  0.00000000000E+00  0.00000000000E+00  0.11331924642E+04  0.11331924642E+04  0.00000000000E+00 0. -1.
         -2   -1    0    0    0  501 -0.00000000000E+00 -0.00000000000E+00 -0.53046167021E+02  0.53046167021E+02  0.00000000000E+00 0.  1.
         25    2    1    2    0    0  0.14967685656E+03 -0.13244828145E+03  0.33628262286E+03  0.41070672162E+03  0.12509316569E+03 0.  0.
          5    1    3    3  502    0  0.47433295388E+02 -0.70358902488E+02  0.45767730094E+02  0.96501037241E+02  0.41800000000E+01 0. -1.
         -5    1    3    3    0  502  0.10224356117E+03 -0.62089378958E+02  0.29051489276E+03  0.31420568438E+03  0.41800000000E+01 0. -1.
        -11    1    1    2    0    0 -0.36944746661E+02  0.76333349444E+02  0.19919133284E+03  0.21649222070E+03  0.00000000000E+00 0.  1.
         11    1    1    2    0    0 -0.11273210990E+03  0.56114932002E+02  0.54467234151E+03  0.55903968894E+03  0.00000000000E+00 0. -1.
</event>
<event>
 7    1  0.3151015E-009  0.9764682E+02  0.7561462E-02  0.1285324E+00
          1   -1    0    0  501    0  0.00000000000E+00  0.00000000000E+00  0.32979468666E+03  0.32979468666E+03  0.00000000000E+00 0. -1.
         -1   -1    0    0    0  501 -0.00000000000E+00 -0.00000000000E+00 -0.46319698706E+02  0.46319698706E+02  0.00000000000E+00 0.  1.
         25    2    1    2    0    0  0.17716636184E+02 -0.43564957555E+02  0.98693722912E+02  0.16613317602E+03  0.12509195221E+03 0.  0.
          5    1    3    3  502    0 -0.31006520209E+02  0.16815857298E+02 -0.57242280137E+01  0.35978000758E+02  0.41800000000E+01 0.  1.
         -5    1    3    3    0  502  0.48723156394E+02 -0.60380814853E+02  0.10441795093E+03  0.13015517526E+03  0.41800000000E+01 0.  1.
        -11    1    1    2    0    0  0.25054829114E+02  0.25171135225E+02  0.24682696346E+02  0.43250040570E+02  0.00000000000E+00 0.  1.
         11    1    1    2    0    0 -0.42771465298E+02  0.18393822331E+02  0.16009856870E+03  0.16673116878E+03  0.00000000000E+00 0. -1.
</event>
<event>
 7    1  0.3151015E-009  0.1439992E+03  0.7561462E-02  0.1208047E+00
          2   -1    0    0  501    0  0.00000000000E+00  0.00000000000E+00  0.13195199288E+03  0.13195199288E+03  0.00000000000E+00 0. -1.
         -2   -1    0    0    0  501 -0.00000000000E+00 -0.00000000000E+00 -0.21758236934E+03  0.21758236934E+03  0.00000000000E+00 0.  1.
         25    2    1    2    0    0  0.66638394393E+02  0.74281355206E+02 -0.13028679240E+03  0.20635244418E+03  0.12509311574E+03 0.  0.
          5    1    3    3  502    0  0.20077271544E+02  0.10308408658E+03 -0.86529455662E+02  0.13614053341E+03  0.41800000000E+01 0. -1.
         -5    1    3    3    0  502  0.46561122849E+02 -0.28802731375E+02 -0.43757336738E+02  0.70211910770E+02  0.41800000000E+01 0. -1.
        -11    1    1    2    0    0 -0.82086319063E+02 -0.42020791392E+02  0.53125145091E+02  0.10642458235E+03  0.00000000000E+00 0. -1.
         11    1    1    2    0    0  0.15447924671E+02 -0.32260563814E+02 -0.84687291553E+01  0.36757335700E+02  0.00000000000E+00 0.  1.
</event>
<event>
 7    1  0.7259555E-009  0.1498923E+03  0.7561462E-02  0.1200605E+00
         -1   -1    0    0    0  501 -0.00000000000E+00  0.00000000000E+00  0.19417108386E+02  0.19417108386E+02  0.00000000000E+00 0.  1.
          1   -1    0    0  501    0  0.00000000000E+00 -0.00000000000E+00 -0.12281833568E+04  0.12281833568E+04  0.00000000000E+00 0. -1.
         25    2    1    2    0    0 -0.80657469655E+02  0.65260204935E+02 -0.79057820703E+03  0.80711100545E+03  0.12509896855E+03 0.  0.
          5    1    3    3  502    0 -0.41001484603E+02 -0.35174538534E+02 -0.28681991688E+03  0.29189297186E+03  0.41800000000E+01 0.  1.
         -5    1    3    3    0  502 -0.39655985052E+02  0.10043474347E+03 -0.50375829015E+03  0.51521803359E+03  0.41800000000E+01 0.  1.
        -11    1    1    2    0    0  0.26131713248E+02 -0.77388748003E+02 -0.22403438732E+03  0.23846025131E+03  0.00000000000E+00 0.  1.
         11    1    1    2    0    0  0.54525756407E+02  0.12128543068E+02 -0.19415365406E+03  0.20202920842E+03  0.00000000000E+00 0. -1.
</event>
<event>
 7    1  0.3151015E-009  0.1036679E+03  0.7561462E-02  0.1272767E+00
          2   -1    0    0  501    0  0.00000000000E+00  0.00000000000E+00  0.58654764706E+03  0.58654764706E+03  0.00000000000E+00 0. -1.
         -2   -1    0    0    0  501 -0.00000000000E+00 -0.00000000000E+00 -0.23148285288E+02  0.23148285288E+02  0.00000000000E+00 0.  1.
         25    2    1    2    0    0 -0.29766593510E+02  0.21309682584E+02  0.38400244188E+03  0.40551819849E+03  0.12508789417E+03 0.  0.
          5    1    3    3  502    0 -0.74194956121E+02  0.36407096560E+02  0.26093022512E+03  0.27373787274E+03  0.41800000000E+01 0. -1.
         -5    1    3    3    0  502  0.44428362611E+02 -0.15097413976E+02  0.12307221677E+03  0.13178032574E+03  0.41800000000E+01 0. -1.
        -11    1    1    2    0    0  0.61028828086E+01  0.24857877441E+02  0.10803127373E+02  0.27782491077E+02  0.00000000000E+00 0.  1.
         11    1    1    2    0    0  0.23663710702E+02 -0.46167560025E+02  0.16859379252E+03  0.17639524279E+03  0.00000000000E+00 0. -1.
</event>
<event>
 7    1  0.3151015E-009  0.9153514E+02  0.7561462E-02  0.1299176E+00
          1   -1    0    0  501    0  0.00000000000E+00  0.00000000000E+00  0.42929894266E+03  0.42929894266E+03  0.00000000000E+00 0. -1.
         -1   -1    0    0    0  501 -0.00000000000E+00 -0.00000000000E+00 -0.38479445262E+02  0.38479445262E+02  0.00000000000E+00 0.  1.
         25    2    1    2    0    0  0.57928365868E+02  0.14228675391E+02  0.15262879529E+03  0.20615404093E+03  0.12508312701E+03 0.  0.
          5    1    3    3  502    0  0.16825026238E+02  0.44755434288E+02  0.14680939935E+03  0.15445582716E+03  0.41800000000E+01 0. -1.
         -5    1    3    3    0  502  0.41103339630E+02 -0.30526758897E+02  0.58193959402E+01  0.51698213766E+02  0.41800000000E+01 0. -1.
        -11    1    1    2    0    0  0.53150753668E+00 -0.24366584369E+02  0.10867145601E+02  0.26685347807E+02  0.00000000000E+00 0.  1.
         11    1    1    2    0    0 -0.58459873405E+02  0.10137908977E+02  0.22732355650E+03  0.23493899918E+03  0.00000000000E+00 0. -1.
</event>
<event>
 7    1  0.3151015E-009  0.1333409E+03  0.7561462E-02  0.1222581E+00
          2   -1    0    0  501    0  0.00000000000E+00  0.00000000000E+00  0.42313439985E+03  0.42313439985E+03  0.00000000000E+00 0. -1.
         -2   -1    0    0    0  501 -0.00000000000E+00 -0.00000000000E+00 -0.44969708548E+02  0.44969708548E+02  0.00000000000E+00 0.  1.
         25    2    1    2    0    0  0.18544273358E+01 -0.83876766515E+02  0.17993064184E+03  0.23465191884E+03  0.12509091206E+03 0.  0.
          5    1    3    3  502    0  0.38529446577E+02  0.14810856242E+02  0.29154339792E+02  0.50708260125E+02  0.41800000000E+01 0.  1.
         -5    1    3    3    0  502 -0.36675019241E+02 -0.98687622757E+02  0.15077630204E+03  0.18394365871E+03  0.41800000000E+01 0.  1.
        -11    1    1    2    0    0 -0.30434391922E+02 -0.81331207137E+00  0.77238759515E+02  0.83022525014E+02  0.00000000000E+00 0. -1.
         11    1    1    2    0    0  0.28579964586E+02  0.84690078586E+02  0.12099528995E+03  0.15042966455E+03  0.00000000000E+00 0.  1.
</event>
<event>
 7    1  0.3151015E-009  0.1269594E+03  0.7561462E-02  0.1232038E+00
          2   -1    0    0  501    0  0.00000000000E+00  0.00000000000E+00  0.80393838353E+02  0.80393838353E+02  0.00000000000E+00 0.  1.
         -2   -1    0    0    0  501 -0.00000000000E+00 -0.00000000000E+00 -0.26023239368E+03  0.26023239368E+03  0.00000000000E+00 0. -1.
         25    2    1    2    0    0 -0.67643000891E+02  0.36880295927E+02 -0.31498492452E+02  0.15024733563E+03  0.12508547094E+03 0.  0.
          5    1    3    3  502    0  0.69416919381E+01  0.57536055677E+02 -0.42468898981E+02  0.71969886553E+02  0.41800000000E+01 0. -1.
         -5    1    3    3    0  502 -0.74584692829E+02 -0.20655759750E+02  0.10970406529E+02  0.78277449081E+02  0.41800000000E+01 0. -1.
        -11    1    1    2    0    0  0.78307402102E+02 -0.56100674709E+02 -0.11027956900E+03  0.14642717735E+03  0.00000000000E+00 0.  1.
         11    1    1    2    0    0 -0.10664401211E+02  0.19220378782E+02 -0.38060493877E+02  0.43951719055E+02  0.00000000000E+00 0. -1.
</event>
<event>
 7    1  0.3151015E-009  0.1718809E+03  0.7561462E-02  0.1175900E+00
         -2   -1    0    0    0  501 -0.00000000000E+00  0.00000000000E+00  0.26812979276E+02  0.26812979276E+02  0.00000000000E+00 0.  1.
          2   -1    0    0  501    0  0.00000000000E+00 -0.00000000000E+00 -0.11550015362E+04  0.11550015362E+04  0.00000000000E+00 0. -1.
         25    2    1    2    0    0 -0.10168193510E+03  0.91307103646E+02 -0.52912349838E+03  0.56062066640E+03  0.12509057500E+03 0.  0.
          5    1    3    3  502    0 -0.12141525024E+03  0.10086829410E+03 -0.40864487943E+03  0.43809152655E+03  0.41800000000E+01 0.  1.
         -5    1    3    3    0  502  0.19733315142E+02 -0.95611904585E+01 -0.12047861894E+03  0.12252913985E+03  0.41800000000E+01 0.  1.
        -11    1    1    2    0    0  0.11867405048E+03 -0.79353400695E+02 -0.50044051974E+03  0.52040484842E+03  0.00000000000E+00 0.  1.
         11    1    1    2    0    0 -0.16992115383E+02 -0.11953702951E+02 -0.98624538787E+02  0.10078900064E+03  0.00000000000E+00 0. -1.
</event>
<event>
 7    1  0.3151015E-009  0.6358142E+02  0.7561462E-02  0.1383388E+00
         -2   -1    0    0    0  501 -0.00000000000E+00  0.00000000000E+00  0.21002732483E+03  0.21002732483E+03  0.00000000000E+00 0.  1.
          2   -1    0    0  501    0  0.00000000000E+00 -0.00000000000E+00 -0.71979478035E+02  0.71979478035E+02  0.00000000000E+00 0. -1.
         25    2    1    2    0    0  0.54866928093E+02  0.89849555004E+01  0.92355309106E+02  0.16513688698E+03  0.12509827776E+03 0.  0.
          5    1    3    3  502    0  0.27507528023E+02  0.20802344672E+02 -0.25759579320E+02  0.43248467817E+02  0.41800000000E+01 0.  1.
         -5    1    3    3    0  502  0.27359400070E+02 -0.11817389171E+02  0.11811488843E+03  0.12188841917E+03  0.41800000000E+01 0.  1.
        -11    1    1    2    0    0 -0.26766319979E+02  0.98260262832E+01  0.69761278909E+02  0.75363271643E+02  0.00000000000E+00 0.  1.
         11    1    1    2    0    0 -0.28100608114E+02 -0.18810981784E+02 -0.24068741220E+02  0.41506644239E+02  0.00000000000E+00 0. -1.
</event>
<event>
 7    1  0.3151015E-009  0.1139889E+03  0.7561462E-02  0.1253356E+00
          1   -1    0    0  501    0  0.00000000000E+00  0.00000000000E+00  0.23278234448E+02  0.23278234448E+02  0.00000000000E+00 0. -1.
         -1   -1    0    0    0  501 -0.00000000000E+00 -0.00000000000E+00 -0.84552530353E+03  0.84552530353E+03  0.00000000000E+00 0.  1.
         25    2    1    2    0    0 -0.56788534646E+01  0.91276891523E+02 -0.47400921352E+03  0.49869480483E+03  0.12509218023E+03 0.  0.
          5    1    3    3  502    0 -0.35742315900E+02 -0.58764683373E+00 -0.27574770567E+03  0.27808654778E+03  0.41800000000E+01 0. -1.
         -5    1    3    3    0  502  0.30063462435E+02  0.91864538357E+02 -0.19826150785E+03  0.22060825705E+03  0.41800000000E+01 0. -1.
        -11    1    1    2    0    0  0.15878638966E+02 -0.67915415039E+02 -0.33339230702E+03  0.34060984301E+03  0.00000000000E+00 0.  1.
         11    1    1    2    0    0 -0.10199785502E+02 -0.23361476484E+02 -0.14845548529E+02  0.29498890131E+02  0.00000000000E+00 0. -1.
</event>
<event>
 7    1  0.3151015E-009  0.9275253E+02  0.7561462E-02  0.1296320E+00
          1   -1    0    0  501    0  0.00000000000E+00  0.00000000000E+00  0.13679036545E+03  0.13679036545E+03  0.00000000000E+00 0. -1.
         -1   -1    0    0    0  501 -0.00000000000E+00 -0.00000000000E+00 -0.32065510291E+03  0.32065510291E+03  0.00000000000E+00 0.  1.
         25    2    1    2    0    0  0.34996092852E+01 -0.23731381692E+02 -0.28999312033E+03  0.31673299254E+03  0.12509337706E+03 0.  0.
          5    1    3    3  502    0 -0.41677814709E+02  0.17071797003E+02 -0.43340667096E+02  0.62644810768E+02  0.41800000000E+01 0. -1.
         -5    1    3    3    0  502  0.45177423995E+02 -0.40803178695E+02 -0.24665245323E+03  0.25408818177E+03  0.41800000000E+01 0. -1.
        -11    1    1    2    0    0 -0.29013412193E+02  0.39686929645E+02  0.97845167706E+02  0.10950117495E+03  0.00000000000E+00 0. -1.
         11    1    1    2    0    0  0.25513802907E+02 -0.15955547953E+02  0.82832151627E+01  0.31211300881E+02  0.00000000000E+00 0.  1.
</event>
<event>
 7    1  0.3151015E-009  0.9474862E+02  0.7561462E-02  0.1291743E+00
          2   -1    0    0  501    0  0.00000000000E+00  0.00000000000E+00  0.13201060048E+04  0.13201060048E+04  0.00000000000E+00 0.  1.
         -2   -1    0    0    0  501 -0.00000000000E+00 -0.00000000000E+00 -0.27136342173E+02  0.27136342173E+02  0.00000000000E+00 0. -1.
         25    2    1    2    0    0 -0.58706172582E+02 -0.30401188323E+02  0.11780865823E+04  0.11865528849E+04  0.12509638816E+03 0.  0.
          5    1    3    3  502    0 -0.27574580914E+02  0.25311739162E+02  0.10479834974E+03  0.11136071193E+03  0.41800000000E+01 0. -1.
         -5    1    3    3    0  502 -0.31131591667E+02 -0.55712927485E+02  0.10732882325E+04  0.10751921729E+04  0.41800000000E+01 0. -1.
        -11    1    1    2    0    0  0.56355887271E+02 -0.10223163321E+01  0.11620175600E+03  0.12915060688E+03  0.00000000000E+00 0.  1.
         11    1    1    2    0    0  0.23502853104E+01  0.31423504655E+02 -0.13186755953E+01  0.31538855261E+02  0.00000000000E+00 0. -1.
</event>
<event>
 7    1  0.3151015E-009  0.7487158E+02  0.7561462E-02  0.1344269E+00
         -1   -1    0    0    0  501 -0.00000000000E+00  0.00000000000E+00  0.36705074174E+02  0.36705074174E+02  0.00000000000E+00 0.  1.
          1   -1    0    0  501    0  0.00000000000E+00 -0.00000000000E+00 -0.39058340036E+03  0.39058340036E+03  0.00000000000E+00 0. -1.
         25    2    1    2    0    0  0.92406084082E+01 -0.42470335177E+02 -0.24884470983E+03  0.28188674302E+03  0.12508928039E+03 0.  0.
          5    1    3    3  502    0  0.16742914004E+02 -0.16567860263E+01  0.97908784814E+01  0.19909892283E+02  0.41800000000E+01 0. -1.
         -5    1    3    3    0  502 -0.75023055954E+01 -0.40813549150E+02 -0.25863558831E+03  0.26197685074E+03  0.41800000000E+01 0. -1.
        -11    1    1    2    0    0  0.35424323874E+02  0.17158214754E+02 -0.78027410019E+02  0.87393156310E+02  0.00000000000E+00 0. -1.
         11    1    1    2    0    0 -0.44664932282E+02  0.25312120423E+02 -0.27006206340E+02  0.58008575202E+02  0.00000000000E+00 0.  1.
</event>
<event>
 7    1  0.3151015E-009  0.5798865E+02  0.7561462E-02  0.1406472E+00
         -3   -1    0    0    0  501 -0.00000000000E+00  0.00000000000E+00  0.67570930399E+02  0.67570930399E+02  0.00000000000E+00 0.  1.
          3   -1    0    0  501    0  0.00000000000E+00 -0.00000000000E+00 -0.18590467703E+03  0.18590467703E+03  0.00000000000E+00 0. -1.
         25    2    1    2    0    0 -0.13869372444E+02  0.26174727564E+02 -0.79559871424E+02  0.15117871651E+03  0.12509098820E+03 0.  0.
          5    1    3    3  502    0  0.85099170335E+01  0.22337641089E+02  0.30356630014E+02  0.38863688491E+02  0.41800000000E+01 0.  1.
         -5    1    3    3    0  502 -0.22379289478E+02  0.38370864751E+01 -0.10991650144E+03  0.11231502802E+03  0.41800000000E+01 0.  1.
        -11    1    1    2    0    0  0.37560626063E+02 -0.24559318018E+02  0.11819831856E+02  0.46407641147E+02  0.00000000000E+00 0.  1.
         11    1    1    2    0    0 -0.23691253619E+02 -0.16154095463E+01 -0.50593707066E+02  0.55889249778E+02  0.00000000000E+00 0. -1.
</event>
<event>
 7    1  0.3151015E-009  0.5995731E+02  0.7561462E-02  0.1398011E+00
          1   -1    0    0  501    0  0.00000000000E+00  0.00000000000E+00  0.35350212554E+03  0.35350212554E+03  0.00000000000E+00 0. -1.
         -1   -1    0    0    0  501 -0.00000000000E+00 -0.00000000000E+00 -0.44456708141E+02  0.44456708141E+02  0.00000000000E+00 0.  1.
         25    2    1    2    0    0  0.38900075839E+02  0.43055555133E+02  0.21093796826E+03  0.25201038990E+03  0.12508962162E+03 0.  0.
          5    1    3    3  502    0  0.81829574101E+01  0.43634886594E+01 -0.16416663891E+02  0.19312692163E+02  0.41800000000E+01 0. -1.
         -5    1    3    3    0  502  0.30717118429E+02  0.38692066473E+02  0.22735463215E+03  0.23269769774E+03  0.41800000000E+01 0. -1.
        -11    1    1    2    0    0 -0.17894393506E+02 -0.31399068833E+02 -0.81177704566E+01  0.37040640379E+02  0.00000000000E+00 0.  1.
         11    1    1    2    0    0 -0.21005682334E+02 -0.11656486300E+02  0.10622521960E+03  0.10890780340E+03  0.00000000000E+00 0. -1.
</event>
<event>
 7    1  0.3151015E-009  0.1238649E+03  0.7561462E-02  0.1236854E+00
         -1   -1    0    0    0  501 -0.00000000000E+00  0.00000000000E+00  0.21134765796E+03  0.21134765796E+03  0.00000000000E+00 0.  1.
          1   -1    0    0  501    0  0.00000000000E+00 -0.00000000000E+00 -0.91445876293E+02  0.91445876293E+02  0.00000000000E+00 0. -1.
         25    2    1    2    0    0  0.32734132491E+02 -0.78019802997E+02  0.47253264067E+02  0.15823764506E+03  0.12509064017E+03 0.  0.
          5    1    3    3  502    0  0.62185654735E+02 -0.90355380632E+02  0.58179520228E+02  0.12423155573E+03  0.41800000000E+01 0.  1.
         -5    1    3    3    0  502 -0.29451522244E+02  0.12335577635E+02 -0.10926256161E+02  0.34006089334E+02  0.41800000000E+01 0.  1.
        -11    1    1    2    0    0  0.99524133166E+01  0.57578189312E+02  0.69991205153E+00  0.58436189918E+02  0.00000000000E+00 0. -1.
         11    1    1    2    0    0 -0.42686545808E+02  0.20441613685E+02  0.71948605546E+02  0.86119699274E+02  0.00000000000E+00 0.  1.
</event>
<event>
 7    1  0.3151015E-009  0.7240090E+02  0.7561462E-02  0.1352114E+00
          2   -1    0    0  501    0  0.00000000000E+00  0.00000000000E+00  0.14472126320E+03  0.14472126320E+03  0.00000000000E+00 0. -1.
         -2   -1    0    0    0  501 -0.00000000000E+00 -0.00000000000E+00 -0.13512650513E+03  0.13512650513E+03  0.00000000000E+00 0.  1.
         25    2    1    2    0    0 -0.59621772814E+02  0.68596042005E+01  0.75997661753E+02  0.15820395249E+03  0.12510410077E+03 0.  0.
          5    1    3    3  502    0 -0.14538982073E+02  0.29357258783E+02  0.97740398391E+02  0.10316922274E+03  0.41800000000E+01 0. -1.
         -5    1    3    3    0  502 -0.45082790740E+02 -0.22497654582E+02 -0.21742736638E+02  0.55034729754E+02  0.41800000000E+01 0. -1.
        -11    1    1    2    0    0  0.34217324746E+02  0.20963764816E+01  0.13863088916E+02  0.36978444281E+02  0.00000000000E+00 0. -1.
         11    1    1    2    0    0  0.25404448068E+02 -0.89559806821E+01 -0.80265992602E+02  0.84665371552E+02  0.00000000000E+00 0.  1.
</event>
<event>
 7    1  0.3151015E-009  0.1334188E+03  0.7561462E-02  0.1222469E+00
          2   -1    0    0  501    0  0.00000000000E+00  0.00000000000E+00  0.13482182719E+04  0.13482182719E+04  0.00000000000E+00 0. -1.
         -2   -1    0    0    0  501 -0.00000000000E+00 -0.00000000000E+00 -0.13433778299E+02  0.13433778299E+02  0.00000000000E+00 0.  1.
         25    2    1    2    0    0  0.27182013011E+02 -0.37092693870E+02  0.59572743115E+03  0.61045024541E+03  0.12507437837E+03 0.  0.
          5    1    3    3  502    0 -0.34789387426E+02  0.26154687772E+02  0.23127198328E+03  0.23536901202E+03  0.41800000000E+01 0. -1.
         -5    1    3    3    0  502  0.61971400437E+02 -0.63247381642E+02  0.36445544787E+03  0.37508123339E+03  0.41800000000E+01 0. -1.
        -11    1    1    2    0    0  0.34154833059E+02  0.59960425521E+02  0.39092993742E+03  0.39697357749E+03  0.00000000000E+00 0. -1.
         11    1    1    2    0    0 -0.61336846070E+02 -0.22867731651E+02  0.34812712500E+03  0.35422822727E+03  0.00000000000E+00 0.  1.
</event>
<event>
 7    1  0.3151015E-009  0.2088978E+03  0.7561462E-02  0.1142442E+00
         -1   -1    0    0    0  501 -0.00000000000E+00  0.00000000000E+00  0.22868094315E+03  0.22868094315E+03  0.00000000000E+00 0.  1.
          1   -1    0    0  501    0  0.00000000000E+00 -0.00000000000E+00 -0.25598829697E+03  0.25598829697E+03  0.00000000000E+00 0. -1.
         25    2    1    2    0    0  0.13893250975E+03  0.11209211731E+03 -0.13619049584E+03  0.25705259696E+03  0.12514512143E+03 0.  0.
          5    1    3    3  502    0  0.83171211765E+02  0.13414880040E+03 -0.99330033311E+02  0.18654028796E+03  0.41800000000E+01 0. -1.
         -5    1    3    3    0  502  0.55761297986E+02 -0.22056683094E+02 -0.36860462533E+02  0.70512308999E+02  0.41800000000E+01 0. -1.
        -11    1    1    2    0    0 -0.57568044522E+02  0.43557167879E+01  0.34659172602E+02  0.67337287325E+02  0.00000000000E+00 0. -1.
         11    1    1    2    0    0 -0.81364465229E+02 -0.11644783410E+03  0.74223969422E+02  0.16027935583E+03  0.00000000000E+00 0.  1.
</event>
<event>
 7    1  0.3151015E-009  0.9343244E+02  0.7561462E-02  0.1294746E+00
          2   -1    0    0  501    0  0.00000000000E+00  0.00000000000E+00  0.78739853674E+02  0.78739853674E+02  0.00000000000E+00 0.  1.
         -2   -1    0    0    0  501 -0.00000000000E+00 -0.00000000000E+00 -0.20722675426E+03  0.20722675426E+03  0.00000000000E+00 0. -1.
         25    2    1    2    0    0 -0.39191132477E+02 -0.54838338963E+02 -0.70557571696E+02  0.15864227965E+03  0.12508322703E+03 0.  0.
          5    1    3    3  502    0 -0.55403134102E+02 -0.12056856280E+02 -0.91838189096E+02  0.10801203835E+03  0.41800000000E+01 0.  1.
         -5    1    3    3    0  502  0.16212001625E+02 -0.42781482683E+02  0.21280617401E+02  0.50630241301E+02  0.41800000000E+01 0.  1.
        -11    1    1    2    0    0  0.24259604924E+02  0.62675703028E+02 -0.76775108084E+02  0.10203523608E+03  0.00000000000E+00 0. -1.
         11    1    1    2    0    0  0.14931527554E+02 -0.78373640645E+01  0.18845779199E+02  0.25289092198E+02  0.00000000000E+00 0.  1.
</event>
<event>
 7    1  0.3151015E-009  0.8800827E+02  0.7561462E-02  0.1307748E+00
         -1   -1    0    0    0  501 -0.00000000000E+00  0.00000000000E+00  0.14611667880E+03  0.14611667880E+03  0.00000000000E+00 0.  1.
          1   -1    0    0  501    0  0.00000000000E+00 -0.00000000000E+00 -0.10489843261E+03  0.10489843261E+03  0.00000000000E+00 0. -1.
         25    2    1    2    0    0 -0.23292614056E+02  0.24469536833E+02  0.74602497602E+02  0.14950894959E+03  0.12508432859E+03 0.  0.
          5    1    3    3  502    0 -0.39298705835E+02  0.59255957436E+02  0.68273915228E+01  0.71552375551E+02  0.41800000000E+01 0. -1.
         -5    1    3    3    0  502  0.16006091779E+02 -0.34786420604E+02  0.67775106079E+02  0.77956574042E+02  0.41800000000E+01 0. -1.
        -11    1    1    2    0    0 -0.34471914626E+01  0.16770230995E+02  0.21726886788E+02  0.27661912191E+02  0.00000000000E+00 0.  1.
         11    1    1    2    0    0  0.26739805518E+02 -0.41239767828E+02 -0.55111138191E+02  0.73844249623E+02  0.00000000000E+00 0. -1.
</event>
<event>
 7    1  0.3151015E-009  0.1392009E+03  0.7561462E-02  0.1214408E+00
         -1   -1    0    0    0  501 -0.00000000000E+00  0.00000000000E+00  0.27793991386E+02  0.27793991386E+02  0.00000000000E+00 0.  1.
          1   -1    0    0  501    0  0.00000000000E+00 -0.00000000000E+00 -0.89369635461E+03  0.89369635461E+03  0.00000000000E+00 0. -1.
         25    2    1    2    0    0 -0.41531319504E+02 -0.93460485201E+02 -0.61798167356E+03  0.63875657845E+03  0.12509558292E+03 0.  0.
          5    1    3    3  502    0  0.20943298680E+02 -0.74060879065E+02 -0.47815055538E+03  0.48432330274E+03  0.41800000000E+01 0. -1.
         -5    1    3    3    0  502 -0.62474618184E+02 -0.19399606136E+02 -0.13983111818E+03  0.15443327571E+03  0.41800000000E+01 0. -1.
        -11    1    1    2    0    0  0.68412275627E+02  0.81342174236E+02 -0.19932306468E+03  0.22589040015E+03  0.00000000000E+00 0.  1.
         11    1    1    2    0    0 -0.26880956123E+02  0.12118310965E+02 -0.48597624986E+02  0.56843367397E+02  0.00000000000E+00 0. -1.
</event>
<event>
 7    1  0.3151015E-009  0.1438856E+03  0.7561462E-02  0.1208194E+00
         -2   -1    0    0    0  501 -0.00000000000E+00  0.00000000000E+00  0.50978791324E+02  0.50978791324E+02  0.00000000000E+00 0.  1.
          2   -1    0    0  501    0  0.00000000000E+00 -0.00000000000E+00 -0.65997022542E+03  0.65997022542E+03  0.00000000000E+00 0. -1.
         25    2    1    2    0    0 -0.11366516723E+03 -0.46501041125E+02 -0.48035816633E+03  0.51134451514E+03  0.12508848127E+03 0.  0.
          5    1    3    3  502    0 -0.12521557858E+03 -0.63714969492E+02 -0.46337040655E+03  0.48421910797E+03  0.41800000000E+01 0. -1.
         -5    1    3    3    0  502  0.11550411351E+02  0.17213928366E+02 -0.16987759774E+02  0.27125407173E+02  0.41800000000E+01 0. -1.
        -11    1    1    2    0    0  0.64277016827E+02  0.10921043141E+02 -0.12205914420E+03  0.13838077452E+03  0.00000000000E+00 0. -1.
         11    1    1    2    0    0  0.49388150403E+02  0.35579997984E+02 -0.65741235765E+01  0.61223727080E+02  0.00000000000E+00 0.  1.
</event>
<event>
 7    1  0.3151015E-009  0.1052722E+03  0.7561462E-02  0.1269584E+00
         -2   -1    0    0    0  501 -0.00000000000E+00  0.00000000000E+00  0.15921033359E+02  0.15921033359E+02  0.00000000000E+00 0.  1.
          2   -1    0    0  501    0  0.00000000000E+00 -0.00000000000E+00 -0.85370501242E+03  0.85370501242E+03  0.00000000000E+00 0. -1.
         25    2    1    2    0    0  0.30260438922E+02 -0.30138472135E+02 -0.51199864881E+03  0.52878553162E+03  0.12508996924E+03 0.  0.
          5    1    3    3  502    0  0.62234221966E+02 -0.43730247721E+02 -0.45898854641E+03  0.46526701052E+03  0.41800000000E+01 0. -1.
         -5    1    3    3    0  502 -0.31973783044E+02  0.13591775585E+02 -0.53010102400E+02  0.63518521096E+02  0.41800000000E+01 0. -1.
        -11    1    1    2    0    0  0.32202791996E+02  0.91125281322E+01 -0.90154197833E+02  0.96165676664E+02  0.00000000000E+00 0.  1.
         11    1    1    2    0    0 -0.62463230918E+02  0.21025944003E+02 -0.23563113242E+03  0.24467483750E+03  0.00000000000E+00 0. -1.
</event>
<event>
 7    1  0.3151015E-009  0.9468475E+02  0.7561462E-02  0.1291888E+00
          2   -1    0    0  501    0  0.00000000000E+00  0.00000000000E+00  0.11992875426E+03  0.11992875426E+03  0.00000000000E+00 0. -1.
         -2   -1    0    0    0  501 -0.00000000000E+00 -0.00000000000E+00 -0.12465689904E+03  0.12465689904E+03  0.00000000000E+00 0.  1.
         25    2    1    2    0    0 -0.37699253472E+02 -0.11874743346E+02  0.31070538844E+02  0.13481578949E+03  0.12509066900E+03 0.  0.
          5    1    3    3  502    0 -0.10188322259E+02 -0.54100421598E+02  0.55822653318E+02  0.78513047011E+02  0.41800000000E+01 0.  1.
         -5    1    3    3    0  502 -0.27510931213E+02  0.42225678252E+02 -0.24752114474E+02  0.56302742482E+02  0.41800000000E+01 0.  1.
        -11    1    1    2    0    0  0.60214331030E+02  0.79984578538E+01 -0.53440352321E+02  0.80904958103E+02  0.00000000000E+00 0.  1.
         11    1    1    2    0    0 -0.22515077557E+02  0.38762854926E+01  0.17641668701E+02  0.28864905702E+02  0.00000000000E+00 0. -1.
</event>
<event>
 7    1  0.3151015E-009  0.1080335E+03  0.7561462E-02  0.1264255E+00
         -1   -1    0    0    0  501 -0.00000000000E+00  0.00000000000E+00  0.71785333672E+03  0.71785333672E+03  0.00000000000E+00 0.  1.
          1   -1    0    0  501    0  0.00000000000E+00 -0.00000000000E+00 -0.21492458604E+02  0.21492458604E+02  0.00000000000E+00 0. -1.
         25    2    1    2    0    0  0.36979994235E+02  0.12447790288E+02  0.52726685689E+03  0.54330459434E+03  0.12508827444E+03 0.  0.
          5    1    3    3  502    0  0.28483351399E+02  0.68336976880E+02  0.28409624441E+03  0.29361435967E+03  0.41800000000E+01 0.  1.
         -5    1    3    3    0  502  0.84966428362E+01 -0.55889186592E+02  0.24317061248E+03  0.24969023467E+03  0.41800000000E+01 0.  1.
        -11    1    1    2    0    0 -0.30215691204E+02  0.29802163233E+02  0.13444155149E+03  0.14098116078E+03  0.00000000000E+00 0.  1.
         11    1    1    2    0    0 -0.67643030313E+01 -0.42249953521E+02  0.34652469733E+02  0.55060040198E+02  0.00000000000E+00 0. -1.
</event>
<event>
 7    1  0.3151015E-009  0.4451791E+03  0.7561462E-02  0.1029170E+00
          1   -1    0    0  501    0  0.00000000000E+00  0.00000000000E+00  0.21325485608E+03  0.21325485608E+03  0.00000000000E+00 0. -1.
         -1   -1    0    0    0  501 -0.00000000000E+00 -0.00000000000E+00 -0.97607272340E+03  0.97607272340E+03  0.00000000000E+00 0.  1.
         25    2    1    2    0    0  0.43449154236E+03  0.47402292738E+02 -0.47818857358E+03  0.65980475171E+03  0.12509244879E+03 0.  0.
          5    1    3    3  502    0  0.10333610883E+03 -0.38334517156E+02 -0.89754188594E+02  0.14220117216E+03  0.41800000000E+01 0.  1.
         -5    1    3    3    0  502  0.33115543353E+03  0.85736809894E+02 -0.38843438498E+03  0.51760357955E+03  0.41800000000E+01 0.  1.
        -11    1    1    2    0    0 -0.11870206663E+02  0.32730581895E+01  0.64147922138E+01  0.13883957479E+02  0.00000000000E+00 0. -1.
         11    1    1    2    0    0 -0.42262133570E+03 -0.50675350927E+02 -0.29104408596E+03  0.51563887029E+03  0.00000000000E+00 0.  1.
</event>
<event>
 7    1  0.3151015E-009  0.9670979E+02  0.7561462E-02  0.1287371E+00
          2   -1    0    0  501    0  0.00000000000E+00  0.00000000000E+00  0.10316910330E+03  0.10316910330E+03  0.00000000000E+00 0. -1.
         -2   -1    0    0    0  501 -0.00000000000E+00 -0.00000000000E+00 -0.25424636821E+03  0.25424636821E+03  0.00000000000E+00 0.  1.
         25    2    1    2    0    0 -0.50093812713E+01 -0.46074571453E+02 -0.20288178592E+03  0.24281058436E+03  0.12509196931E+03 0.  0.
          5    1    3    3  502    0  0.37007439399E+02 -0.39416503584E+02 -0.19084849111E+03  0.19840320129E+03  0.41800000000E+01 0. -1.
         -5    1    3    3    0  502 -0.42016820671E+02 -0.66580678691E+01 -0.12033294809E+02  0.44407383068E+02  0.41800000000E+01 0. -1.
        -11    1    1    2    0    0 -0.39044444753E+02  0.12304469832E+02  0.41224166325E+02  0.58097336712E+02  0.00000000000E+00 0. -1.
         11    1    1    2    0    0  0.44053826024E+02  0.33770101621E+02  0.10580354682E+02  0.56507550434E+02  0.00000000000E+00 0.  1.
</event>
<event>
 7    1  0.3151015E-009  0.1250410E+03  0.7561462E-02  0.1235005E+00
          4   -1    0    0  501    0  0.00000000000E+00  0.00000000000E+00  0.26224978209E+03  0.26224978209E+03  0.00000000000E+00 0.  1.
         -4   -1    0    0    0  501 -0.00000000000E+00 -0.00000000000E+00 -0.86264645518E+02  0.86264645518E+02  0.00000000000E+00 0. -1.
         25    2    1    2    0    0 -0.93422575754E+02 -0.26522393962E+02  0.13919307362E+03  0.21084054323E+03  0.12509119826E+03 0.  0.
          5    1    3    3  502    0  0.16030654203E+02 -0.18043023327E+01 -0.13401326726E+02  0.21384698715E+02  0.41800000000E+01 0.  1.
         -5    1    3    3    0  502 -0.10945322996E+03 -0.24718091630E+02  0.15259440035E+03  0.18945584451E+03  0.41800000000E+01 0.  1.
        -11    1    1    2    0    0  0.88254999990E+02  0.47014323161E+02  0.58031014124E+01  0.10016470232E+03  0.00000000000E+00 0. -1.
         11    1    1    2    0    0  0.51675757635E+01 -0.20491929198E+02  0.30988961534E+02  0.37509182056E+02  0.00000000000E+00 0.  1.
</event>
<event>
 7    1  0.3151015E-009  0.1130739E+03  0.7561462E-02  0.1254981E+00
         -1   -1    0    0    0  501 -0.00000000000E+00  0.00000000000E+00  0.42696260868E+03  0.42696260868E+03  0.00000000000E+00 0.  1.
          1   -1    0    0  501    0  0.00000000000E+00 -0.00000000000E+00 -0.34681336899E+02  0.34681336899E+02  0.00000000000E+00 0. -1.
         25    2    1    2    0    0 -0.46721627170E+02  0.13729825937E+02  0.16852412040E+03  0.21545401648E+03  0.12509450624E+03 0.  0.
          5    1    3    3  502    0 -0.13220833630E+02 -0.51438747644E+02  0.37084078641E+02  0.64910988975E+02  0.41800000000E+01 0. -1.
         -5    1    3    3    0  502 -0.33500793540E+02  0.65168573581E+02  0.13144004176E+03  0.15054302750E+03  0.41800000000E+01 0. -1.
        -11    1    1    2    0    0  0.71931746094E+02 -0.17390783189E+02  0.18996887120E+03  0.20387444044E+03  0.00000000000E+00 0. -1.
         11    1    1    2    0    0 -0.25210118925E+02  0.36609572515E+01  0.33788280171E+02  0.42315488667E+02  0.00000000000E+00 0.  1.
</event>
<event>
 7    1  0.3151015E-009  0.1121598E+03  0.7561462E-02  0.1256622E+00
         -1   -1    0    0    0  501 -0.00000000000E+00  0.00000000000E+00  0.52253234701E+03  0.52253234701E+03  0.00000000000E+00 0.  1.
          1   -1    0    0  501    0  0.00000000000E+00 -0.00000000000E+00 -0.34326086271E+02  0.34326086271E+02  0.00000000000E+00 0. -1.
         25    2    1    2    0    0 -0.88242306907E+01  0.47702336157E+02  0.39937604569E+03  0.42131002354E+03  0.12509008812E+03 0.  0.
          5    1    3    3  502    0  0.29051806589E+02  0.79368278606E+02  0.25179366002E+03  0.26563292481E+03  0.41800000000E+01 0.  1.
         -5    1    3    3    0  502 -0.37876037280E+02 -0.31665942449E+02  0.14758238566E+03  0.15567709873E+03  0.41800000000E+01 0.  1.
        -11    1    1    2    0    0  0.40495351254E+02 -0.41299286077E+02  0.85276505280E+02  0.10304167534E+03  0.00000000000E+00 0.  1.
         11    1    1    2    0    0 -0.31671120564E+02 -0.64030500799E+01  0.35537097668E+01  0.32506734398E+02  0.00000000000E+00 0. -1.
</event>
<event>
 7    1  0.3151015E-009  0.1712754E+03  0.7561462E-02  0.1176524E+00
         -1   -1    0    0    0  501 -0.00000000000E+00  0.00000000000E+00  0.15147660596E+03  0.15147660596E+03  0.00000000000E+00 0.  1.
          1   -1    0    0  501    0  0.00000000000E+00 -0.00000000000E+00 -0.24225013230E+03  0.24225013230E+03  0.00000000000E+00 0. -1.
         25    2    1    2    0    0  0.11770196631E+03  0.77086656860E+02 -0.11790945693E+03  0.22214008547E+03  0.12508985570E+03 0.  0.
          5    1    3    3  502    0 -0.17766851894E+02  0.24888941016E+01 -0.49812845363E+02  0.53109769189E+02  0.41800000000E+01 0.  1.
         -5    1    3    3    0  502  0.13546881820E+03  0.74597762758E+02 -0.68096611571E+02  0.16903031628E+03  0.41800000000E+01 0.  1.
        -11    1    1    2    0    0 -0.10040751340E+03 -0.10880129612E+02  0.15599348249E+02  0.10219288446E+03  0.00000000000E+00 0.  1.
         11    1    1    2    0    0 -0.17294452909E+02 -0.66206527248E+02  0.11536582351E+02  0.69393768336E+02  0.00000000000E+00 0. -1.
</event>
<event>
 7    1  0.3151015E-009  0.1115011E+03  0.7561462E-02  0.1257815E+00
          2   -1    0    0  501    0  0.00000000000E+00  0.00000000000E+00  0.32751580132E+03  0.32751580132E+03  0.00000000000E+00 0.  1.
         -2   -1    0    0    0  501 -0.00000000000E+00 -0.00000000000E+00 -0.64501896670E+02  0.64501896670E+02  0.00000000000E+00 0. -1.
         25    2    1    2    0    0  0.74767225647E+02 -0.53647304385E+02  0.18337967563E+03  0.24029951916E+03  0.12509029610E+03 0.  0.
          5    1    3    3  502    0  0.53534889027E+02 -0.47513254055E+02  0.19991437956E+03  0.21238343911E+03  0.41800000000E+01 0. -1.
         -5    1    3    3    0  502  0.21232336620E+02 -0.61340503298E+01 -0.16534703925E+02  0.27916080056E+02  0.41800000000E+01 0. -1.
        -11    1    1    2    0    0 -0.84967840440E+02  0.69626574993E+02  0.71617249405E+02  0.13113513742E+03  0.00000000000E+00 0.  1.
         11    1    1    2    0    0  0.10200614794E+02 -0.15979270608E+02  0.80169796154E+01  0.20583041405E+02  0.00000000000E+00 0. -1.
</event>
<event>
 7    1  0.3151015E-009  0.1043448E+03  0.7561462E-02  0.1271416E+00
          1   -1    0    0  501    0  0.00000000000E+00  0.00000000000E+00  0.76982781906E+02  0.76982781906E+02  0.00000000000E+00 0. -1.
         -1   -1    0    0    0  501 -0.00000000000E+00 -0.00000000000E+00 -0.15463583104E+03  0.15463583104E+03  0.00000000000E+00 0.  1.
         25    2    1    2    0    0  0.16516251232E+02  0.15533764188E+01 -0.53329966491E+02  0.13699041400E+03  0.12508832348E+03 0.  0.
          5    1    3    3  502    0  0.45135912525E+02  0.45949206071E+02 -0.41182104155E+01  0.64676210426E+02  0.41800000000E+01 0.  1.
         -5    1    3    3    0  502 -0.28619661293E+02 -0.44395829653E+02 -0.49211756075E+02  0.72314203578E+02  0.41800000000E+01 0.  1.
        -11    1    1    2    0    0 -0.53793233342E+02 -0.27338641437E+01 -0.10651958582E+02  0.54905830184E+02  0.00000000000E+00 0. -1.
         11    1    1    2    0    0  0.37276982110E+02  0.11804877249E+01 -0.13671124057E+02  0.39722368754E+02  0.00000000000E+00 0.  1.
</event>
<event>
 7    1  0.3151015E-009  0.9301102E+02  0.7561462E-02  0.1295720E+00
          2   -1    0    0  501    0  0.00000000000E+00  0.00000000000E+00  0.23475564568E+03  0.23475564568E+03  0.00000000000E+00 0. -1.
         -2   -1    0    0    0  501 -0.00000000000E+00 -0.00000000000E+00 -0.61918123077E+02  0.61918123077E+02  0.00000000000E+00 0.  1.
         25    2    1    2    0    0 -0.52513609763E+02 -0.30644279921E+01  0.84744771428E+02  0.15999241458E+03  0.12509526974E+03 0.  0.
          5    1    3    3  502    0 -0.50919326927E+02 -0.45365582487E+02  0.94246125759E+02  0.11640712414E+03  0.41800000000E+01 0. -1.
         -5    1    3    3    0  502 -0.15942828362E+01  0.42301154495E+02 -0.95013543310E+01  0.43585290448E+02  0.41800000000E+01 0. -1.
        -11    1    1    2    0    0  0.20811946885E+02 -0.25203553492E+02 -0.61956474811E+01  0.33267736464E+02  0.00000000000E+00 0.  1.
         11    1    1    2    0    0  0.31701662878E+02  0.28267981484E+02  0.94288398651E+02  0.10341361770E+03  0.00000000000E+00 0. -1.
</event>
<event>
 7    1  0.3500929E-009  0.1163714E+03  0.7561462E-02  0.1249206E+00
          1   -1    0    0  501    0  0.00000000000E+00  0.00000000000E+00  0.13172286540E+03  0.13172286540E+03  0.00000000000E+00 0. -1.
         -1   -1    0    0    0  501 -0.00000000000E+00 -0.00000000000E+00 -0.13297029821E+03  0.13297029821E+03  0.00000000000E+00 0.  1.
         25    2    1    2    0    0  0.65173247054E+02 -0.94803662811E+01 -0.37179051066E+02  0.14617413557E+03  0.12508863496E+03 0.  0.
          5    1    3    3  502    0  0.76930373831E+02  0.29184931242E+02 -0.57772743322E+02  0.10062407714E+03  0.41800000000E+01 0. -1.
         -5    1    3    3    0  502 -0.11757126776E+02 -0.38665297523E+02  0.20593692256E+02  0.45550058434E+02  0.41800000000E+01 0. -1.
        -11    1    1    2    0    0 -0.43549887592E+02  0.48459079620E+02  0.34946670385E+02  0.73933381350E+02  0.00000000000E+00 0.  1.
         11    1    1    2    0    0 -0.21623359462E+02 -0.38978713339E+02  0.98494787369E+00  0.44585646685E+02  0.00000000000E+00 0. -1.
</event>
<event>
 7    1  0.3151015E-009  0.1210375E+03  0.7561462E-02  0.1241395E+00
          2   -1    0    0  501    0  0.00000000000E+00  0.00000000000E+00  0.50981879486E+03  0.50981879486E+03  0.00000000000E+00 0. -1.
         -2   -1    0    0    0  501 -0.00000000000E+00 -0.00000000000E+00 -0.32042826998E+02  0.32042826998E+02  0.00000000000E+00 0.  1.
         25    2    1    2    0    0  0.59334847444E+02  0.23274199261E+02  0.21370646082E+03  0.25569535734E+03  0.12508937563E+03 0.  0.
          5    1    3    3  502    0  0.95527649248E+02  0.17206877311E+02  0.11641926707E+03  0.15163286762E+03  0.41800000000E+01 0.  1.
         -5    1    3    3    0  502 -0.36192801804E+02  0.60673219495E+01  0.97287193758E+02  0.10406248972E+03  0.41800000000E+01 0.  1.
        -11    1    1    2    0    0 -0.65704504466E+02  0.16466925529E+02  0.13623457417E+03  0.15214499907E+03  0.00000000000E+00 0.  1.
         11    1    1    2    0    0  0.63696570213E+01 -0.39741124790E+02  0.12783493287E+03  0.13402126545E+03  0.00000000000E+00 0. -1.
</event>
<event>
 7    1  0.3151015E-009  0.1122834E+03  0.7561462E-02  0.1256399E+00
          1   -1    0    0  501    0  0.00000000000E+00  0.00000000000E+00  0.44335051781E+03  0.44335051781E+03  0.00000000000E+00 0. -1.
         -1   -1    0    0    0  501 -0.00000000000E+00 -0.00000000000E+00 -0.44130811680E+02  0.44130811680E+02  0.00000000000E+00 0.  1.
         25    2    1    2    0    0  0.70350130742E+02  0.50897280472E+02  0.23907812895E+03  0.28345236782E+03  0.12508884453E+03 0.  0.
          5    1    3    3  502    0  0.47777381295E+02  0.80444908668E+02  0.22457641009E+03  0.24332303192E+03  0.41800000000E+01 0. -1.
         -5    1    3    3    0  502  0.22572749447E+02 -0.29547628196E+02  0.14501718855E+02  0.40129335895E+02  0.41800000000E+01 0. -1.
        -11    1    1    2    0    0 -0.25910961959E+02 -0.40129797127E+02  0.14968687314E+03  0.15712395920E+03  0.00000000000E+00 0. -1.
         11    1    1    2    0    0 -0.44439168783E+02 -0.10767483345E+02  0.10454704045E+02  0.46905002466E+02  0.00000000000E+00 0.  1.
</event>
<event>
 7    1  0.3151015E-009  0.1200501E+03  0.7561462E-02  0.1243014E+00
          1   -1    0    0  501    0  0.00000000000E+00  0.00000000000E+00  0.83541463497E+02  0.83541463497E+02  0.00000000000E+00 0. -1.
         -1   -1    0    0    0  501 -0.00000000000E+00 -0.00000000000E+00 -0.86109090503E+03  0.86109090503E+03  0.00000000000E+00 0.  1.
         25    2    1    2    0    0  0.13223231057E+02  0.63108168862E+02 -0.81418479965E+03  0.82625668973E+03  0.12508291059E+03 0.  0.
          5    1    3    3  502    0  0.40229265135E+02 -0.25150350291E+02 -0.31736320808E+03  0.32091714217E+03  0.41800000000E+01 0.  1.
         -5    1    3    3    0  502 -0.27006034078E+02  0.88258519153E+02 -0.49682159156E+03  0.50533954756E+03  0.41800000000E+01 0.  1.
        -11    1    1    2    0    0  0.15066024691E+02  0.12357816074E+02  0.32228394529E+02  0.37661255051E+02  0.00000000000E+00 0. -1.
         11    1    1    2    0    0 -0.28289255748E+02 -0.75465984935E+02  0.44069635874E+01  0.80714423749E+02  0.00000000000E+00 0.  1.
</event>
<event>
 7    1  0.3151015E-009  0.1247751E+03  0.7561462E-02  0.1235421E+00
          2   -1    0    0  501    0  0.00000000000E+00  0.00000000000E+00  0.12478804987E+04  0.12478804987E+04  0.00000000000E+00 0. -1.
         -2   -1    0    0    0  501 -0.00000000000E+00 -0.00000000000E+00 -0.20134304916E+02  0.20134304916E+02  0.00000000000E+00 0.  1.
         25    2    1    2    0    0 -0.74284279698E+02  0.70325672136E+01  0.10175001313E+04  0.10278725825E+04  0.12509163620E+03 0.  0.
          5    1    3    3  502    0 -0.69169625949E+02 -0.44930674062E+02  0.41748733332E+03  0.42557766449E+03  0.41800000000E+01 0. -1.
         -5    1    3    3    0  502 -0.51146537489E+01  0.51963241276E+02  0.60001279794E+03  0.60229491797E+03  0.41800000000E+01 0. -1.
        -11    1    1    2    0    0 -0.15074420454E+01 -0.34076132809E+02  0.46262006317E+02  0.57477199281E+02  0.00000000000E+00 0.  1.
         11    1    1    2    0    0  0.75791721744E+02  0.27043565596E+02  0.16398405617E+03  0.18266502183E+03  0.00000000000E+00 0. -1.
</event>
<event>
 7    1  0.3151015E-009  0.1037177E+03  0.7561462E-02  0.1272667E+00
          1   -1    0    0  501    0  0.00000000000E+00  0.00000000000E+00  0.65435876686E+02  0.65435876686E+02  0.00000000000E+00 0. -1.
         -1   -1    0    0    0  501 -0.00000000000E+00 -0.00000000000E+00 -0.18487300373E+03  0.18487300373E+03  0.00000000000E+00 0.  1.
         25    2    1    2    0    0 -0.18467197260E+02  0.67884513141E+01 -0.75254531922E+02  0.14730245299E+03  0.12509055774E+03 0.  0.
          5    1    3    3  502    0  0.52969677692E+02 -0.24329013347E+00 -0.20614449677E+02  0.56993630173E+02  0.41800000000E+01 0. -1.
         -5    1    3    3    0  502 -0.71436874952E+02  0.70317414476E+01 -0.54640082245E+02  0.90308822816E+02  0.41800000000E+01 0. -1.
        -11    1    1    2    0    0  0.23417474117E+02 -0.41329568082E+02 -0.10338336012E+01  0.47513999029E+02  0.00000000000E+00 0. -1.
         11    1    1    2    0    0 -0.49502768566E+01  0.34541116768E+02 -0.43148761517E+02  0.55492428393E+02  0.00000000000E+00 0.  1.
</event>
<event>
 7    1  0.3151015E-009  0.1044866E+03  0.7561462E-02  0.1271134E+00
          2   -1    0    0  501    0  0.00000000000E+00  0.00000000000E+00  0.44455709472E+03  0.44455709472E+03  0.00000000000E+00 0. -1.
         -2   -1    0    0    0  501 -0.00000000000E+00 -0.00000000000E+00 -0.48204184637E+02  0.48204184637E+02  0.00000000000E+00 0.  1.
         25    2    1    2    0    0  0.52490351921E+02 -0.30121613384E+02  0.84088499267E+02  0.16241821767E+03  0.12508498346E+03 0.  0.
          5    1    3    3  502    0  0.88736492231E+02 -0.42581882732E+02  0.47905240054E+02  0.10954344442E+03  0.41800000000E+01 0. -1.
         -5    1    3    3    0  502 -0.36246140310E+02  0.12460269348E+02  0.36183259213E+02  0.52874773256E+02  0.41800000000E+01 0. -1.
        -11    1    1    2    0    0  0.37792481152E+01  0.12319631019E+02  0.34667454249E+00  0.12890935109E+02  0.00000000000E+00 0.  1.
         11    1    1    2    0    0 -0.56269600036E+02  0.17801982365E+02  0.31191773628E+03  0.31745212658E+03  0.00000000000E+00 0. -1.
</event>
<event>
 7    1  0.3151015E-009  0.2364353E+03  0.7561462E-02  0.1122191E+00
          3   -1    0    0  501    0  0.00000000000E+00  0.00000000000E+00  0.13361799746E+04  0.13361799746E+04  0.00000000000E+00 0. -1.
         -3   -1    0    0    0  501 -0.00000000000E+00 -0.00000000000E+00 -0.60469181491E+02  0.60469181491E+02  0.00000000000E+00 0.  1.
         25    2    1    2    0    0  0.20002979130E+03  0.79495150622E+02  0.28357243548E+03  0.37734945782E+03  0.12509152957E+03 0.  0.
          5    1    3    3  502    0  0.32856892860E+02 -0.25400066972E+02  0.97566563617E+02  0.10611995829E+03  0.41800000000E+01 0.  1.
         -5    1    3    3    0  502  0.16717289844E+03  0.10489521759E+03  0.18600587186E+03  0.27122949953E+03  0.41800000000E+01 0.  1.
        -11    1    1    2    0    0 -0.13479281650E+03 -0.97140025669E+02  0.70914919845E+03  0.72835284968E+03  0.00000000000E+00 0.  1.
         11    1    1    2    0    0 -0.65236974808E+02  0.17644875047E+02  0.28298915915E+03  0.29094684858E+03  0.00000000000E+00 0. -1.
</event>
<event>
 7    1  0.3151015E-009  0.8353395E+02  0.7561462E-02  0.1319312E+00
          4   -1    0    0  501    0  0.00000000000E+00  0.00000000000E+00  0.10325458847E+03  0.10325458847E+03  0.00000000000E+00 0. -1.
         -4   -1    0    0    0  501 -0.00000000000E+00 -0.00000000000E+00 -0.12639579492E+03  0.12639579492E+03  0.00000000000E+00 0.  1.
         25    2    1    2    0    0 -0.30562174383E+01 -0.37866930022E+02 -0.91846952633E+01  0.13105220456E+03  0.12508827618E+03 0.  0.
          5    1    3    3  502    0  0.19389660719E+02  0.16175393063E+02 -0.52312632180E+02  0.58238184803E+02  0.41800000000E+01 0. -1.
         -5    1    3    3    0  502 -0.22445878157E+02 -0.54042323085E+02  0.43127936917E+02  0.72814019758E+02  0.41800000000E+01 0. -1.
        -11    1    1    2    0    0  0.28056822387E+02  0.48186391348E+02 -0.33663664523E+02  0.65133370116E+02  0.00000000000E+00 0.  1.
         11    1    1    2    0    0 -0.25000604949E+02 -0.10319461326E+02  0.19707153334E+02  0.33464808716E+02  0.00000000000E+00 0. -1.
</event>
<event>
 7    1  0.3151015E-009  0.1459973E+03  0.7561462E-02  0.1205479E+00
          2   -1    0    0  501    0  0.00000000000E+00  0.00000000000E+00  0.73261456161E+03  0.73261456161E+03  0.00000000000E+00 0. -1.
         -2   -1    0    0    0  501 -0.00000000000E+00 -0.00000000000E+00 -0.37595832382E+02  0.37595832382E+02  0.00000000000E+00 0.  1.
         25    2    1    2    0    0 -0.12578403349E+03 -0.31238940928E+02  0.37418228715E+03  0.41528009388E+03  0.12509067849E+03 0.  0.
          5    1    3    3  502    0 -0.14177726430E+03 -0.32473411592E+02  0.24434780717E+03  0.28439169890E+03  0.41800000000E+01 0. -1.
         -5    1    3    3    0  502  0.15993230810E+02  0.12344706639E+01  0.12983447998E+03  0.13088839498E+03  0.41800000000E+01 0. -1.
        -11    1    1    2    0    0  0.78971778236E+02  0.15166562079E+02  0.98525841792E+02  0.12717667972E+03  0.00000000000E+00 0.  1.
         11    1    1    2    0    0  0.46812255252E+02  0.16072378850E+02  0.22231060028E+03  0.22775362039E+03  0.00000000000E+00 0. -1.
</event>
<event>
 7    1  0.3151015E-009  0.1077639E+03  0.7561462E-02  0.1264768E+00
         -2   -1    0    0    0  501 -0.00000000000E+00  0.00000000000E+00  0.12234011856E+03  0.12234011856E+03  0.00000000000E+00 0.  1.
          2   -1    0    0  501    0  0.00000000000E+00 -0.00000000000E+00 -0.10915855346E+03  0.10915855346E+03  0.00000000000E+00 0. -1.
         25    2    1    2    0    0  0.65396583852E+01 -0.37329655866E+02 -0.17645484373E+01  0.13072411648E+03  0.12509760453E+03 0.  0.
          5    1    3    3  502    0 -0.36025671544E+02 -0.57968452754E+02  0.28856648720E+02  0.74218387884E+02  0.41800000000E+01 0. -1.
         -5    1    3    3    0  502  0.42565329929E+02  0.20638796887E+02 -0.30621197157E+02  0.56505728597E+02  0.41800000000E+01 0. -1.
        -11    1    1    2    0    0  0.40267128660E+02  0.34057627573E+02  0.80513381243E+01  0.53349673776E+02  0.00000000000E+00 0. -1.
         11    1    1    2    0    0 -0.46806787045E+02  0.32720282935E+01  0.68947754098E+01  0.47424881767E+02  0.00000000000E+00 0.  1.
</event>
<event>
 7    1  0.3151015E-009  0.9081406E+02  0.7561462E-02  0.1300892E+00
          1   -1    0    0  501    0  0.00000000000E+00  0.00000000000E+00  0.29276224163E+03  0.29276224163E+03  0.00000000000E+00 0. -1.
         -1   -1    0    0    0  501 -0.00000000000E+00 -0.00000000000E+00 -0.39737474448E+02  0.39737474448E+02  0.00000000000E+00 0.  1.
         25    2    1    2    0    0  0.62256295882E+01 -0.16918719170E+01  0.14144729848E+03  0.18893629365E+03  0.12509182194E+03 0.  0.
          5    1    3    3  502    0  0.59069472197E+02 -0.28619480690E+02  0.72174224724E+02  0.97646650404E+02  0.41800000000E+01 0. -1.
         -5    1    3    3    0  502 -0.52843842609E+02  0.26927608773E+02  0.69273073755E+02  0.91289643242E+02  0.41800000000E+01 0. -1.
        -11    1    1    2    0    0  0.90362927540E+00  0.28574903398E+02  0.11215870968E+03  0.11574505522E+03  0.00000000000E+00 0. -1.
         11    1    1    2    0    0 -0.71292588636E+01 -0.26883031481E+02 -0.58124097527E+00  0.27818367217E+02  0.00000000000E+00 0.  1.
</event>
<event>
 6    1  0.3731665E-009  0.1475890E+03  0.7561462E-02  0.1203467E+00
         -4   -1    0    0    0  501 -0.00000000000E+00  0.00000000000E+00  0.15090378951E+03  0.15090378951E+03  0.00000000000E+00 0.  1.
          4   -1    0    0  501    0  0.00000000000E+00 -0.00000000000E+00 -0.20130322037E+03  0.20130322037E+03  0.00000000000E+00 0. -1.
          5    1    1    2  502    0  0.10942520718E+03  0.43831854459E+02 -0.50701758444E+02  0.12838710271E+03  0.41800000000E+01 0. -1.
         -5    1    1    2    0  502  0.11646316642E+02 -0.54305599177E+02 -0.37375768447E+02  0.67075742711E+02  0.41800000000E+01 0. -1.
        -11    1    1    2    0    0 -0.90341719599E+02  0.83057601893E+01 -0.18578115354E+02  0.92605390353E+02  0.00000000000E+00 0.  1.
         11    1    1    2    0    0 -0.30729804228E+02  0.21679845284E+01  0.56256211382E+02  0.64138774107E+02  0.00000000000E+00 0. -1.
</event>
<event>
 7    1  0.3151015E-009  0.1076829E+03  0.7561462E-02  0.1264922E+00
         -1   -1    0    0    0  501 -0.00000000000E+00  0.00000000000E+00  0.19818650907E+03  0.19818650907E+03  0.00000000000E+00 0.  1.
          1   -1    0    0  501    0  0.00000000000E+00 -0.00000000000E+00 -0.69999128175E+03  0.69999128175E+03  0.00000000000E+00 0. -1.
         25    2    1    2    0    0  0.77210390868E+02 -0.35242275805E+01 -0.67312652135E+03  0.68900641000E+03  0.12512655449E+03 0.  0.
          5    1    3    3  502    0 -0.17754288477E+02 -0.44492739279E+01 -0.14948011954E+02  0.23998463684E+02  0.41800000000E+01 0.  1.
         -5    1    3    3    0  502  0.94964679346E+02  0.92504634742E+00 -0.65817850939E+03  0.66500794631E+03  0.41800000000E+01 0.  1.
        -11    1    1    2    0    0 -0.59497902720E+02  0.32330088428E+02  0.15961837462E+03  0.17338760210E+03  0.00000000000E+00 0.  1.
         11    1    1    2    0    0 -0.17712488148E+02 -0.28805860847E+02  0.11703374042E+02  0.35783778721E+02  0.00000000000E+00 0. -1.
</event>
<event>
 7    1  0.3151015E-009  0.9304239E+02  0.7561462E-02  0.1295647E+00
          1   -1    0    0  501    0  0.00000000000E+00  0.00000000000E+00  0.68960952100E+03  0.68960952100E+03  0.00000000000E+00 0. -1.
         -1   -1    0    0    0  501 -0.00000000000E+00 -0.00000000000E+00 -0.28904586587E+02  0.28904586587E+02  0.00000000000E+00 0.  1.
         25    2    1    2    0    0 -0.59254696980E+02  0.46330016203E+02  0.48650792980E+03  0.50793864543E+03  0.12511639481E+03 0.  0.
          5    1    3    3  502    0 -0.16910434478E+02  0.13445145641E+02  0.42763940912E+03  0.42820517438E+03  0.41800000000E+01 0. -1.
         -5    1    3    3    0  502 -0.42344262502E+02  0.32884870563E+02  0.58868520682E+02  0.79733471052E+02  0.41800000000E+01 0. -1.
        -11    1    1    2    0    0  0.63496919432E+02 -0.65171672888E+02  0.16658716857E+03  0.18981699201E+03  0.00000000000E+00 0. -1.
         11    1    1    2    0    0 -0.42422224523E+01  0.18841656685E+02  0.76098360419E+01  0.20758470140E+02  0.00000000000E+00 0.  1.
</event>
<event>
 7    1  0.3151015E-009  0.9843580E+02  0.7561462E-02  0.1283620E+00
          2   -1    0    0  501    0  0.00000000000E+00  0.00000000000E+00  0.37308036105E+03  0.37308036105E+03  0.00000000000E+00 0. -1.
         -2   -1    0    0    0  501 -0.00000000000E+00 -0.00000000000E+00 -0.49917004882E+02  0.49917004882E+02  0.00000000000E+00 0.  1.
         25    2    1    2    0    0  0.15758954018E+02 -0.18657746056E+02  0.30351774417E+03  0.32919568668E+03  0.12510125092E+03 0.  0.
          5    1    3    3  502    0 -0.38983183570E+02  0.21368617484E+02  0.51413713449E+02  0.68096613316E+02  0.41800000000E+01 0.  1.
         -5    1    3    3    0  502  0.54742137589E+02 -0.40026363540E+02  0.25210403072E+03  0.26109907336E+03  0.41800000000E+01 0.  1.
        -11    1    1    2    0    0  0.30277202737E+02 -0.76837398281E+01 -0.10301333140E+02  0.32891736466E+02  0.00000000000E+00 0.  1.
         11    1    1    2    0    0 -0.46036156755E+02  0.26341485884E+02  0.29946945144E+02  0.60909942791E+02  0.00000000000E+00 0. -1.
</event>
<event>
 7    1  0.3151015E-009  0.3978049E+03  0.7561462E-02  0.1044542E+00
         -1   -1    0    0    0  501 -0.00000000000E+00  0.00000000000E+00  0.39330250413E+03  0.39330250413E+03  0.00000000000E+00 0.  1.
          1   -1    0    0  501    0  0.00000000000E+00 -0.00000000000E+00 -0.54690238269E+03  0.54690238269E+03  0.00000000000E+00 0. -1.
         25    2    1    2    0    0 -0.37375491664E+03 -0.10416977675E+03 -0.30988128701E+03  0.51206856067E+03  0.12507485232E+03 0.  0.
          5    1    3    3  502    0 -0.13289710892E+03 -0.10038590959E+03 -0.13317913552E+03  0.21329117877E+03  0.41800000000E+01 0. -1.
         -5    1    3    3    0  502 -0.24085780772E+03 -0.37838671591E+01 -0.17670215148E+03  0.29877738189E+03  0.41800000000E+01 0. -1.
        -11    1    1    2    0    0  0.14842448992E+03  0.45453511256E+02  0.11122352463E+03  0.19096209919E+03  0.00000000000E+00 0.  1.
         11    1    1    2    0    0  0.22533042672E+03  0.58716265494E+02  0.45057883812E+02  0.23717422696E+03  0.00000000000E+00 0. -1.
</event>
<event>
 7    1  0.3151015E-009  0.1039008E+03  0.7561462E-02  0.1272301E+00
         -1   -1    0    0    0  501 -0.00000000000E+00  0.00000000000E+00  0.55876302141E+02  0.55876302141E+02  0.00000000000E+00 0.  1.
          1   -1    0    0  501    0  0.00000000000E+00 -0.00000000000E+00 -0.47527227041E+03  0.47527227041E+03  0.00000000000E+00 0. -1.
         25    2    1    2    0    0 -0.44103816763E+02  0.23953163077E+02 -0.40724550349E+03  0.42896873375E+03  0.12508546579E+03 0.  0.
          5    1    3    3  502    0  0.36193558316E+02 -0.83019518406E+01 -0.21336404805E+03  0.21661160050E+03  0.41800000000E+01 0. -1.
         -5    1    3    3    0  502 -0.80297375079E+02  0.32255114918E+02 -0.19388145543E+03  0.21235713325E+03  0.41800000000E+01 0. -1.
        -11    1    1    2    0    0  0.47245005121E+02 -0.43368034510E+02  0.17612102456E+02  0.66506113096E+02  0.00000000000E+00 0.  1.
         11    1    1    2    0    0 -0.31411883586E+01  0.19414871432E+02 -0.29762567240E+02  0.35673725706E+02  0.00000000000E+00 0. -1.
</event>
<event>
 7    1  0.3151015E-009  0.1117254E+03  0.7561462E-02  0.1257408E+00
         -1   -1    0    0    0  501 -0.00000000000E+00  0.00000000000E+00  0.20608465788E+02  0.20608465788E+02  0.00000000000E+00 0.  1.
          1   -1    0    0  501    0  0.00000000000E+00 -0.00000000000E+00 -0.64670826444E+03  0.64670826444E+03  0.00000000000E+00 0. -1.
         25    2    1    2    0    0  0.27297056772E+02  0.28373082109E+02 -0.38991857737E+03  0.41137859679E+03  0.12508273991E+03 0.  0.
          5    1    3    3  502    0 -0.21943657688E+02 -0.40143582492E+02 -0.15846388433E+03  0.16498880678E+03  0.41800000000E+01 0. -1.
         -5    1    3    3    0  502  0.49240714460E+02  0.68516664601E+02 -0.23145469304E+03  0.24638979001E+03  0.41800000000E+01 0. -1.
        -11    1    1    2    0    0  0.20697967840E+02  0.17151261515E+02 -0.34816416517E+02  0.43985844352E+02  0.00000000000E+00 0. -1.
         11    1    1    2    0    0 -0.47995024611E+02 -0.45524343624E+02 -0.20136480476E+03  0.21195228908E+03  0.00000000000E+00 0.  1.
</event>
<event>
 7    1  0.3151015E-009  0.1261046E+03  0.7561462E-02  0.1233353E+00
          1   -1    0    0  501    0  0.00000000000E+00  0.00000000000E+00  0.52539132907E+03  0.52539132907E+03  0.00000000000E+00 0. -1.
         -1   -1    0    0    0  501 -0.00000000000E+00 -0.00000000000E+00 -0.41531175390E+02  0.41531175390E+02  0.00000000000E+00 0.  1.
         25    2    1    2    0    0  0.69408033751E+02  0.41190320652E+02  0.14391190325E+03  0.20705958944E+03  0.12509564348E+03 0.  0.
          5    1    3    3  502    0  0.99340315859E+02  0.57155664739E+02  0.11168930410E+03  0.16008510679E+03  0.41800000000E+01 0.  1.
         -5    1    3    3    0  502 -0.29932282108E+02 -0.15965344087E+02  0.32222599153E+02  0.46974482649E+02  0.41800000000E+01 0.  1.
        -11    1    1    2    0    0 -0.25410617821E+02  0.16866324754E+02  0.35409995354E+02  0.46733715663E+02  0.00000000000E+00 0. -1.
         11    1    1    2    0    0 -0.43997415930E+02 -0.58056645406E+02  0.30453825508E+03  0.31312919936E+03  0.00000000000E+00 0.  1.
</event>
<event>
 7    1  0.3151015E-009  0.1057691E+03  0.7561462E-02  0.1268612E+00
          2   -1    0    0  501    0  0.00000000000E+00  0.00000000000E+00  0.44468656529E+03  0.44468656529E+03  0.00000000000E+00 0. -1.
         -2   -1    0    0    0  501 -0.00000000000E+00 -0.00000000000E+00 -0.52003766074E+02  0.52003766074E+02  0.00000000000E+00 0.  1.
         25    2    1    2    0    0  0.58487889904E+01  0.22467773184E+02  0.46645574082E+02  0.13550665839E+03  0.12508891126E+03 0.  0.
          5    1    3    3  502    0  0.27413784745E+02  0.69023653939E+02  0.37201206577E+02  0.83169601225E+02  0.41800000000E+01 0. -1.
         -5    1    3    3    0  502 -0.21564995755E+02 -0.46555880754E+02  0.94443675052E+01  0.52337057161E+02  0.41800000000E+01 0. -1.
        -11    1    1    2    0    0  0.20505531269E+02  0.24420189356E+02  0.43688558200E+02  0.54088007714E+02  0.00000000000E+00 0.  1.
         11    1    1    2    0    0 -0.26354320260E+02 -0.46887962540E+02  0.30234866694E+03  0.30709566527E+03  0.00000000000E+00 0. -1.
</event>
<event>
 7    1  0.3151015E-009  0.9910189E+02  0.7561462E-02  0.1282196E+00
          2   -1    0    0  501    0  0.00000000000E+00  0.00000000000E+00  0.21626302451E+02  0.21626302451E+02  0.00000000000E+00 0.  1.
         -2   -1    0    0    0  501 -0.00000000000E+00 -0.00000000000E+00 -0.63246613207E+03  0.63246613207E+03  0.00000000000E+00 0. -1.
         25    2    1    2    0    0 -0.10658783937E+02 -0.48283437720E+02 -0.39200248662E+03  0.41443781944E+03  0.12509139313E+03 0.  0.
          5    1    3    3  502    0  0.40166426059E+02 -0.27350461221E+02 -0.57394299801E+02  0.75319104887E+02  0.41800000000E+01 0.  1.
         -5    1    3    3    0  502 -0.50825209996E+02 -0.20932976500E+02 -0.33460818682E+03  0.33911871456E+03  0.41800000000E+01 0.  1.
        -11    1    1    2    0    0  0.42581028309E+02  0.87137417697E+01 -0.70231804220E+02  0.82592854361E+02  0.00000000000E+00 0.  1.
         11    1    1    2    0    0 -0.31922244372E+02  0.39569695950E+02 -0.14860553878E+03  0.15706176071E+03  0.00000000000E+00 0. -1.
</event>
<event>
 7    1  0.3151015E-009  0.1517430E+03  0.7561462E-02  0.1198347E+00
         -1   -1    0    0    0  501 -0.00000000000E+00  0.00000000000E+00  0.71475249984E+02  0.71475249984E+02  0.00000000000E+00 0.  1.
          1   -1    0    0  501    0  0.00000000000E+00 -0.00000000000E+00 -0.41996336320E+03  0.41996336320E+03  0.00000000000E+00 0. -1.
         25    2    1    2    0    0 -0.99782780107E+02  0.82451374407E+02 -0.23533991783E+03  0.29628852070E+03  0.12508868144E+03 0.  0.
          5    1    3    3  502    0 -0.74416644000E+02  0.90802624421E+02 -0.88760024911E+02  0.14723711464E+03  0.41800000000E+01 0.  1.
         -5    1    3    3    0  502 -0.25366136107E+02 -0.83512500142E+01 -0.14657989292E+03  0.14905140605E+03  0.41800000000E+01 0.  1.
        -11    1    1    2    0    0  0.68446657352E+02  0.24396132676E+01 -0.47212209034E+02  0.83185871982E+02  0.00000000000E+00 0.  1.
         11    1    1    2    0    0  0.31336122755E+02 -0.84890987675E+02 -0.65935986351E+02  0.11196422051E+03  0.00000000000E+00 0. -1.
</event>
<event>
 7    1  0.3151015E-009  0.7522571E+02  0.7561462E-02  0.1343173E+00
         -2   -1    0    0    0  501 -0.00000000000E+00  0.00000000000E+00  0.45055591066E+02  0.45055591066E+02  0.00000000000E+00 0.  1.
          2   -1    0    0  501    0  0.00000000000E+00 -0.00000000000E+00 -0.34167569016E+03  0.34167569016E+03  0.00000000000E+00 0. -1.
         25    2    1    2    0    0  0.29213466197E+02 -0.17765040969E+02 -0.24626487671E+03  0.27832225767E+03  0.12509143186E+03 0.  0.
          5    1    3    3  502    0  0.16732321875E+01 -0.25877115535E+02 -0.24787697507E+03  0.24926470264E+03  0.41800000000E+01 0. -1.
         -5    1    3    3    0  502  0.27540234010E+02  0.81120745662E+01  0.16120983550E+01  0.29057555028E+02  0.41800000000E+01 0. -1.
        -11    1    1    2    0    0 -0.47113268632E+02  0.43300088372E+02 -0.40397541816E+02  0.75673767707E+02  0.00000000000E+00 0. -1.
         11    1    1    2    0    0  0.17899802434E+02 -0.25535047403E+02 -0.99576805617E+01  0.32735255845E+02  0.00000000000E+00 0.  1.
</event>
<event>
 7    1  0.3151015E-009  0.1045579E+03  0.7561462E-02  0.1270993E+00
          2   -1    0    0  501    0  0.00000000000E+00  0.00000000000E+00  0.26611731374E+03  0.26611731374E+03  0.00000000000E+00 0. -1.
         -2   -1    0    0    0  501 -0.00000000000E+00 -0.00000000000E+00 -0.92647476348E+02  0.92647476348E+02  0.00000000000E+00 0.  1.
         25    2    1    2    0    0  0.25105177144E+01 -0.57047913751E+02  0.21066573727E+03  0.25157247948E+03  0.12509153611E+03 0.  0.
          5    1    3    3  502    0  0.26621000794E+02  0.24624686634E+02  0.12691107463E+03  0.13205660202E+03  0.41800000000E+01 0. -1.
         -5    1    3    3    0  502 -0.24110483079E+02 -0.81672600386E+02  0.83754662648E+02  0.11951587745E+03  0.41800000000E+01 0. -1.
        -11    1    1    2    0    0 -0.30761108639E+02  0.49212203028E+02 -0.48637961921E+02  0.75721450537E+02  0.00000000000E+00 0.  1.
         11    1    1    2    0    0  0.28250590924E+02  0.78357107231E+01  0.11442062039E+02  0.31470860074E+02  0.00000000000E+00 0. -1.
</event>
<event>
 7    1  0.3151015E-009  0.6791375E+02  0.7561462E-02  0.1367335E+00
          2   -1    0    0  501    0  0.00000000000E+00  0.00000000000E+00  0.14823152182E+03  0.14823152182E+03  0.00000000000E+00 0. -1.
         -2   -1    0    0    0  501 -0.00000000000E+00 -0.00000000000E+00 -0.91364453449E+02  0.91364453449E+02  0.00000000000E+00 0.  1.
         25    2    1    2    0    0 -0.33335003943E+02 -0.20018868056E+02  0.51977777648E+02  0.14092574674E+03  0.12508556735E+03 0.  0.
          5    1    3    3  502    0 -0.12530961529E+02 -0.42472976145E+02  0.84857724781E+02  0.95808582885E+02  0.41800000000E+01 0. -1.
         -5    1    3    3    0  502 -0.20804042414E+02  0.22454108089E+02 -0.32879947133E+02  0.45117163855E+02  0.41800000000E+01 0. -1.
        -11    1    1    2    0    0  0.17015469756E+02  0.34607079825E+02  0.41098840387E+02  0.56358591769E+02  0.00000000000E+00 0. -1.
         11    1    1    2    0    0  0.16319534187E+02 -0.14588211769E+02 -0.36209549662E+02  0.42311636761E+02  0.00000000000E+00 0.  1.
</event>
<event>
 7    1  0.3356128E-009  0.1484337E+03  0.7561462E-02  0.1202411E+00
         -1   -1    0    0    0  501 -0.00000000000E+00  0.00000000000E+00  0.62051071374E+02  0.62051071374E+02  0.00000000000E+00 0.  1.
          1   -1    0    0  501    0  0.00000000000E+00 -0.00000000000E+00 -0.43411639719E+03  0.43411639719E+03  0.00000000000E+00 0. -1.
         25    2    1    2    0    0  0.45219485220E+02  0.11326952232E+03 -0.21531201428E+03  0.27727521678E+03  0.12508995090E+03 0.  0.
          5    1    3    3  502    0  0.49939424303E+02  0.13914227290E+03 -0.18688676475E+03  0.23832468073E+03  0.41800000000E+01 0. -1.
         -5    1    3    3    0  502 -0.47199390831E+01 -0.25872750579E+02 -0.28425249535E+02  0.38950536051E+02  0.41800000000E+01 0. -1.
        -11    1    1    2    0    0 -0.26343863686E+02 -0.78215473578E+02 -0.32988357665E+02  0.88881332136E+02  0.00000000000E+00 0.  1.
         11    1    1    2    0    0 -0.18875621534E+02 -0.35054048741E+02 -0.12376495387E+03  0.13001091965E+03  0.00000000000E+00 0. -1.
</event>
<event>
 7    1  0.3151015E-009  0.1144039E+03  0.7561462E-02  0.1252625E+00
          1   -1    0    0  501    0  0.00000000000E+00  0.00000000000E+00  0.38817029801E+02  0.38817029801E+02  0.00000000000E+00 0. -1.
         -1   -1    0    0    0  501 -0.00000000000E+00 -0.00000000000E+00 -0.46737190179E+03  0.46737190179E+03  0.00000000000E+00 0.  1.
         25    2    1    2    0    0  0.70630289810E+02  0.44860396800E+01 -0.16635655821E+03  0.21984226524E+03  0.12508938699E+03 0.  0.
          5    1    3    3  502    0  0.78983641985E+02 -0.46346600980E+02 -0.98734013144E+02  0.13473047493E+03  0.41800000000E+01 0.  1.
         -5    1    3    3    0  502 -0.83533521752E+01  0.50832640661E+02 -0.67622545062E+02  0.85111790310E+02  0.41800000000E+01 0.  1.
        -11    1    1    2    0    0 -0.32705002543E+02  0.21802127494E+02 -0.22105715239E+03  0.22452441867E+03  0.00000000000E+00 0.  1.
         11    1    1    2    0    0 -0.37925287267E+02 -0.26288167174E+02 -0.41141161386E+02  0.61822247678E+02  0.00000000000E+00 0. -1.
</event>
<event>
 7    1  0.3151015E-009  0.1129804E+03  0.7561462E-02  0.1255148E+00
          3   -1    0    0  501    0  0.00000000000E+00  0.00000000000E+00  0.32128074074E+03  0.32128074074E+03  0.00000000000E+00 0.  1.
         -3   -1    0    0    0  501 -0.00000000000E+00 -0.00000000000E+00 -0.40923789395E+02  0.40923789395E+02  0.00000000000E+00 0. -1.
         25    2    1    2    0    0 -0.17209863898E+02 -0.31328633827E+02  0.14128238878E+03  0.19205737798E+03  0.12509060853E+03 0.  0.
          5    1    3    3  502    0 -0.52405341926E+02  0.28518766078E+02  0.55225888763E+02  0.81406455952E+02  0.41800000000E+01 0.  1.
         -5    1    3    3    0  502  0.35195478028E+02 -0.59847399905E+02  0.86056500022E+02  0.11065092203E+03  0.41800000000E+01 0.  1.
        -11    1    1    2    0    0 -0.31886070725E+02  0.35020875877E+02  0.53776534262E+02  0.71659604316E+02  0.00000000000E+00 0.  1.
         11    1    1    2    0    0  0.49095934623E+02 -0.36922420499E+01  0.85298028295E+02  0.98487547837E+02  0.00000000000E+00 0. -1.
</event>
<event>
 7    1  0.3151015E-009  0.2261548E+03  0.7561462E-02  0.1129376E+00
         -2   -1    0    0    0  501 -0.00000000000E+00  0.00000000000E+00  0.11843078945E+03  0.11843078945E+03  0.00000000000E+00 0.  1.
          2   -1    0    0  501    0  0.00000000000E+00 -0.00000000000E+00 -0.51468938547E+03  0.51468938547E+03  0.00000000000E+00 0. -1.
         25    2    1    2    0    0  0.21200641092E+03  0.44944196483E+02 -0.14684783279E+03  0.29013449060E+03  0.12508811922E+03 0.  0.
          5    1    3    3  502    0  0.81780046380E+02  0.25036169896E+02  0.89116078830E+01  0.86091085160E+02  0.41800000000E+01 0.  1.
         -5    1    3    3    0  502  0.13022636454E+03  0.19908026587E+02 -0.15575944068E+03  0.20404340544E+03  0.41800000000E+01 0.  1.
        -11    1    1    2    0    0 -0.42490337162E+02 -0.49579505877E+02 -0.80274665596E+02  0.10347742793E+03  0.00000000000E+00 0. -1.
         11    1    1    2    0    0 -0.16951607376E+03  0.46353093944E+01 -0.16913609763E+03  0.23950825639E+03  0.00000000000E+00 0.  1.
</event>
<event>
 7    1  0.3151015E-009  0.1110649E+03  0.7561462E-02  0.1258610E+00
          1   -1    0    0  501    0  0.00000000000E+00  0.00000000000E+00  0.90954021092E+03  0.90954021092E+03  0.00000000000E+00 0. -1.
         -1   -1    0    0    0  501 -0.00000000000E+00 -0.00000000000E+00 -0.26860446493E+02  0.26860446493E+02  0.00000000000E+00 0.  1.
         25    2    1    2    0    0  0.10634327400E+03 -0.35174507181E+01  0.57789557402E+03  0.60077603179E+03  0.12508909431E+03 0.  0.
          5    1    3    3  502    0  0.12510030443E+02  0.12423406761E+02  0.38703895036E+03  0.38746285421E+03  0.41800000000E+01 0. -1.
         -5    1    3    3    0  502  0.93833243561E+02 -0.15940857479E+02  0.19085662366E+03  0.21331317758E+03  0.41800000000E+01 0. -1.
        -11    1    1    2    0    0 -0.80575357885E+02 -0.70654227354E+01  0.29533240018E+03  0.30620831977E+03  0.00000000000E+00 0. -1.
         11    1    1    2    0    0 -0.25767916120E+02  0.10582873454E+02  0.94517902235E+01  0.29416305854E+02  0.00000000000E+00 0.  1.
</event>
<event>
 7    1  0.3151015E-009  0.1163248E+03  0.7561462E-02  0.1249286E+00
         -2   -1    0    0    0  501 -0.00000000000E+00  0.00000000000E+00  0.57494906954E+02  0.57494906954E+02  0.00000000000E+00 0.  1.
          2   -1    0    0  501    0  0.00000000000E+00 -0.00000000000E+00 -0.36855486705E+03  0.36855486705E+03  0.00000000000E+00 0. -1.
         25    2    1    2    0    0 -0.63142638267E+02  0.35236638366E+02 -0.26391348537E+03  0.30087652007E+03  0.12509092341E+03 0.  0.
          5    1    3    3  502    0 -0.43993311763E+02 -0.28837625171E+02 -0.20491058490E+03  0.21159593642E+03  0.41800000000E+01 0. -1.
         -5    1    3    3    0  502 -0.19149326504E+02  0.64074263537E+02 -0.59002900474E+02  0.89280583654E+02  0.41800000000E+01 0. -1.
        -11    1    1    2    0    0 -0.18582392796E+02  0.82157492945E+01 -0.20483263524E+02  0.28850787564E+02  0.00000000000E+00 0. -1.
         11    1    1    2    0    0  0.81725031063E+02 -0.43452387660E+02 -0.26663211199E+02  0.96322466367E+02  0.00000000000E+00 0.  1.
</event>
<event>
 7    1  0.3151015E-009  0.1471549E+03  0.7561462E-02  0.1204013E+00
         -2   -1    0    0    0  501 -0.00000000000E+00  0.00000000000E+00  0.69183038423E+02  0.69183038423E+02  0.00000000000E+00 0.  1.
          2   -1    0    0  501    0  0.00000000000E+00 -0.00000000000E+00 -0.42596408920E+03  0.42596408920E+03  0.00000000000E+00 0. -1.
         25    2    1    2    0    0 -0.15657408540E+02  0.11659996472E+03 -0.10320030374E+03  0.20034317685E+03  0.12508548919E+03 0.  0.
          5    1    3    3  502    0 -0.69843109810E+02  0.74334009700E+02 -0.52143953298E+02  0.11463014111E+03  0.41800000000E+01 0.  1.
         -5    1    3    3    0  502  0.54185701270E+02  0.42265955018E+02 -0.51056350439E+02  0.85713035741E+02  0.41800000000E+01 0.  1.
        -11    1    1    2    0    0  0.17994543612E+02 -0.20609408749E+02 -0.15422491124E+03  0.15663292941E+03  0.00000000000E+00 0.  1.
         11    1    1    2    0    0 -0.23371350727E+01 -0.95990555970E+02 -0.99355835797E+02  0.13817102136E+03  0.00000000000E+00 0. -1.
</event>
<event>
 7    1  0.3151015E-009  0.1279139E+03  0.7561462E-02  0.1230584E+00
         -1   -1    0    0    0  501 -0.00000000000E+00  0.00000000000E+00  0.40304201012E+02  0.40304201012E+02  0.00000000000E+00 0.  1.
          1   -1    0    0  501    0  0.00000000000E+00 -0.00000000000E+00 -0.46325129562E+03  0.46325129562E+03  0.00000000000E+00 0. -1.
         25    2    1    2    0    0  0.41244376065E+02 -0.66962627557E+02 -0.18356739340E+03  0.23564634759E+03  0.12508845336E+03 0.  0.
          5    1    3    3  502    0  0.51626717880E+02 -0.94566847991E+02 -0.10048984646E+03  0.14739025877E+03  0.41800000000E+01 0. -1.
         -5    1    3    3    0  502 -0.10382341815E+02  0.27604220434E+02 -0.83077546946E+02  0.88256088820E+02  0.41800000000E+01 0. -1.
        -11    1    1    2    0    0 -0.40255387889E+02 -0.98149015100E+01 -0.10885857595E+03  0.11647754335E+03  0.00000000000E+00 0. -1.
         11    1    1    2    0    0 -0.98898817521E+00  0.76777529067E+02 -0.13052112525E+03  0.15143160570E+03  0.00000000000E+00 0.  1.
</event>
<event>
 7    1  0.3151015E-009  0.1172552E+03  0.7561462E-02  0.1247695E+00
         -1   -1    0    0    0  501 -0.00000000000E+00  0.00000000000E+00  0.31846927152E+02  0.31846927152E+02  0.00000000000E+00 0.  1.
          1   -1    0    0  501    0  0.00000000000E+00 -0.00000000000E+00 -0.54118883961E+03  0.54118883961E+03  0.00000000000E+00 0. -1.
         25    2    1    2    0    0 -0.60369688366E+02 -0.25285392735E+02 -0.19840805987E+03  0.24351028875E+03  0.12509057576E+03 0.  0.
          5    1    3    3  502    0 -0.20965865923E+02  0.43968415980E+02 -0.12828917016E+03  0.13728937584E+03  0.41800000000E+01 0. -1.
         -5    1    3    3    0  502 -0.39403822443E+02 -0.69253808715E+02 -0.70118889715E+02  0.10622091291E+03  0.41800000000E+01 0. -1.
        -11    1    1    2    0    0 -0.13757599451E+02  0.28487051133E+02 -0.13362050049E+03  0.13731431745E+03  0.00000000000E+00 0. -1.
         11    1    1    2    0    0  0.74127287817E+02 -0.32016583982E+01 -0.17731335209E+03  0.19221116056E+03  0.00000000000E+00 0.  1.
</event>
<event>
 7    1  0.3151015E-009  0.1176483E+03  0.7561462E-02  0.1247028E+00
          2   -1    0    0  501    0  0.00000000000E+00  0.00000000000E+00  0.30450284902E+03  0.30450284902E+03  0.00000000000E+00 0.  1.
         -2   -1    0    0    0  501 -0.00000000000E+00 -0.00000000000E+00 -0.77367119522E+02  0.77367119522E+02  0.00000000000E+00 0. -1.
         25    2    1    2    0    0 -0.13201162219E+02 -0.64147516600E+02  0.22925750717E+03  0.26925019459E+03  0.12508992015E+03 0.  0.
          5    1    3    3  502    0  0.45161567869E+02 -0.54270834223E+02  0.70926145941E+02  0.10016427126E+03  0.41800000000E+01 0. -1.
         -5    1    3    3    0  502 -0.58362730088E+02 -0.98766823765E+01  0.15833136123E+03  0.16908592333E+03  0.41800000000E+01 0. -1.
        -11    1    1    2    0    0  0.46994957703E+02  0.49926508429E+02  0.17875167489E+02  0.70856925605E+02  0.00000000000E+00 0.  1.
         11    1    1    2    0    0 -0.33793795484E+02  0.14221008171E+02 -0.19996945160E+02  0.41762848351E+02  0.00000000000E+00 0. -1.
</event>
<event>
 7    1  0.3446893E-009  0.1292702E+03  0.7561462E-02  0.1228543E+00
          1   -1    0    0  501    0  0.00000000000E+00  0.00000000000E+00  0.12874185682E+04  0.12874185682E+04  0.00000000000E+00 0. -1.
         -1   -1    0    0    0  501 -0.00000000000E+00 -0.00000000000E+00 -0.15398480353E+02  0.15398480353E+02  0.00000000000E+00 0.  1.
         25    2    1    2    0    0 -0.23703812467E+02  0.78403047732E+02  0.85820949302E+03  0.87113690452E+03  0.12508822448E+03 0.  0.
          5    1    3    3  502    0 -0.66221357209E+01  0.10417350541E+03  0.46028551211E+03  0.47199173401E+03  0.41800000000E+01 0. -1.
         -5    1    3    3    0  502 -0.17081676746E+02 -0.25770457678E+02  0.39792398090E+03  0.39914517052E+03  0.41800000000E+01 0. -1.
        -11    1    1    2    0    0 -0.93398241353E+01 -0.87977039223E+02  0.30299700543E+03  0.31564913598E+03  0.00000000000E+00 0.  1.
         11    1    1    2    0    0  0.33043636602E+02  0.95739914909E+01  0.11081358941E+03  0.11603100805E+03  0.00000000000E+00 0. -1.
</event>
<event>
 7    1  0.3151015E-009  0.7137114E+02  0.7561462E-02  0.1355492E+00
          2   -1    0    0  501    0  0.00000000000E+00  0.00000000000E+00  0.36105769578E+03  0.36105769578E+03  0.00000000000E+00 0. -1.
         -2   -1    0    0    0  501 -0.00000000000E+00 -0.00000000000E+00 -0.36119779089E+02  0.36119779089E+02  0.00000000000E+00 0.  1.
         25    2    1    2    0    0  0.27577429431E+02 -0.13923813075E+02  0.22251899262E+03  0.25713254746E+03  0.12509219679E+03 0.  0.
          5    1    3    3  502    0  0.37879917380E+02 -0.10782693418E+02  0.57093482785E+01  0.40015293025E+02  0.41800000000E+01 0.  1.
         -5    1    3    3    0  502 -0.10302487949E+02 -0.31411196570E+01  0.21680964435E+03  0.21711725443E+03  0.41800000000E+01 0.  1.
        -11    1    1    2    0    0  0.20021000598E+02 -0.23617398605E+02  0.54861126804E+02  0.62994961830E+02  0.00000000000E+00 0. -1.
         11    1    1    2    0    0 -0.47598430029E+02  0.37541211680E+02  0.47557797259E+02  0.77049965579E+02  0.00000000000E+00 0.  1.
</event>
<event>
 7    1  0.3151015E-009  0.1084409E+03  0.7561462E-02  0.1263485E+00
          2   -1    0    0  501    0  0.00000000000E+00  0.00000000000E+00  0.92308476421E+03  0.92308476421E+03  0.00000000000E+00 0. -1.
         -2   -1    0    0    0  501 -0.00000000000E+00 -0.00000000000E+00 -0.17497599727E+02  0.17497599727E+02  0.00000000000E+00 0.  1.
         25    2    1    2    0    0 -0.10224419940E+02  0.22739501204E+02  0.73117466424E+03  0.74221617801E+03  0.12508733591E+03 0.  0.
          5    1    3    3  502    0 -0.66287942939E+02  0.12137697564E+02  0.31715604288E+03  0.32426353945E+03  0.41800000000E+01 0.  1.
         -5    1    3    3    0  502  0.56063522999E+02  0.10601803640E+02  0.41401862136E+03  0.41795263856E+03  0.41800000000E+01 0.  1.
        -11    1    1    2    0    0  0.40750524396E+02 -0.39985359346E+02  0.85687145800E+02  0.10296465974E+03  0.00000000000E+00 0.  1.
         11    1    1    2    0    0 -0.30526104455E+02  0.17245858142E+02  0.88725354445E+02  0.95401526181E+02  0.00000000000E+00 0. -1.
</event>
<event>
 7    1  0.3151015E-009  0.1048334E+03  0.7561462E-02  0.1270448E+00
          2   -1    0    0  501    0  0.00000000000E+00  0.00000000000E+00  0.21550240428E+03  0.21550240428E+03  0.00000000000E+00 0. -1.
         -2   -1    0    0    0  501 -0.00000000000E+00 -0.00000000000E+00 -0.73305737143E+02  0.73305737143E+02  0.00000000000E+00 0.  1.
         25    2    1    2    0    0  0.10212154233E+02  0.39434517697E+02  0.13341876277E+03  0.18737300756E+03  0.12509479775E+03 0.  0.
          5    1    3    3  502    0 -0.52448153957E+02  0.19840001282E+02  0.27276238551E+02  0.62497200688E+02  0.41800000000E+01 0. -1.
         -5    1    3    3    0  502  0.62660308190E+02  0.19594516415E+02  0.10614252422E+03  0.12487580688E+03  0.41800000000E+01 0. -1.
        -11    1    1    2    0    0  0.31397525455E+02 -0.32993381140E+02  0.29745294063E+02  0.54398072784E+02  0.00000000000E+00 0. -1.
         11    1    1    2    0    0 -0.41609679688E+02 -0.64411365568E+01 -0.20967389694E+02  0.47037061074E+02  0.00000000000E+00 0.  1.
</event>
<event>
 7    1  0.3490999E-009  0.1935297E+03  0.7561462E-02  0.1155316E+00
         -2   -1    0    0    0  501 -0.00000000000E+00  0.00000000000E+00  0.12333313193E+03  0.12333313193E+03  0.00000000000E+00 0.  1.
          2   -1    0    0  501    0  0.00000000000E+00 -0.00000000000E+00 -0.39604334569E+03  0.39604334569E+03  0.00000000000E+00 0. -1.
         25    2    1    2    0    0  0.14779164936E+03  0.10725706862E+03 -0.21195990773E+03  0.30646533049E+03  0.12509015115E+03 0.  0.
          5    1    3    3  502    0  0.83307694154E+02  0.11106109848E+03 -0.19524711681E+03  0.23961145324E+03  0.41800000000E+01 0. -1.
         -5    1    3    3    0  502  0.64483955206E+02 -0.38040298633E+01 -0.16712790917E+02  0.66853877243E+02  0.41800000000E+01 0. -1.
        -11    1    1    2    0    0 -0.59740306283E+02 -0.53989563126E+02 -0.73739487119E+02  0.10918465589E+03  0.00000000000E+00 0. -1.
         11    1    1    2    0    0 -0.88051343077E+02 -0.53267505496E+02  0.12989181092E+02  0.10372649124E+03  0.00000000000E+00 0.  1.
</event>
<event>
 7    1  0.3151015E-009  0.1069009E+03  0.7561462E-02  0.1266419E+00
         -2   -1    0    0    0  501 -0.00000000000E+00  0.00000000000E+00  0.13876131963E+03  0.13876131963E+03  0.00000000000E+00 0.  1.
          2   -1    0    0  501    0  0.00000000000E+00 -0.00000000000E+00 -0.93740053223E+02  0.93740053223E+02  0.00000000000E+00 0. -1.
         25    2    1    2    0    0  0.14950976570E+01  0.19531568373E+02 -0.44520491387E+01  0.12669289999E+03  0.12509017822E+03 0.  0.
          5    1    3    3  502    0 -0.49241212692E+02 -0.22570807930E+02  0.17501520149E+02  0.57078139471E+02  0.41800000000E+01 0.  1.
         -5    1    3    3    0  502  0.50736310349E+02  0.42102376303E+02 -0.21953569288E+02  0.69614760523E+02  0.41800000000E+01 0.  1.
        -11    1    1    2    0    0 -0.16470679949E+01 -0.56458850423E+02  0.27289407350E+02  0.62729788598E+02  0.00000000000E+00 0.  1.
         11    1    1    2    0    0  0.15197033787E+00  0.36927282050E+02  0.22183908192E+02  0.43078684256E+02  0.00000000000E+00 0. -1.
</event>
<event>
 7    1  0.3151015E-009  0.2502477E+03  0.7561462E-02  0.1113148E+00
         -2   -1    0    0    0  501 -0.00000000000E+00  0.00000000000E+00  0.27158518318E+03  0.27158518318E+03  0.00000000000E+00 0.  1.
          2   -1    0    0  501    0  0.00000000000E+00 -0.00000000000E+00 -0.27977486946E+03  0.27977486946E+03  0.00000000000E+00 0. -1.
         25    2    1    2    0    0  0.19157538045E+03 -0.15168572825E+03 -0.68001983901E+02  0.28281029580E+03  0.12509079520E+03 0.  0.
          5    1    3    3  502    0  0.17825304462E+03 -0.14828743147E+03 -0.96273391592E+02  0.25109629343E+03  0.41800000000E+01 0.  1.
         -5    1    3    3    0  502  0.13322335829E+02 -0.33982967826E+01  0.28271407692E+02  0.31714002362E+02  0.41800000000E+01 0.  1.
        -11    1    1    2    0    0 -0.61542526974E+02  0.10776313058E+02 -0.12336696641E+02  0.63685207337E+02  0.00000000000E+00 0. -1.
         11    1    1    2    0    0 -0.13003285347E+03  0.14090941519E+03  0.72148994262E+02  0.20486454951E+03  0.00000000000E+00 0.  1.
</event>
<event>
 7    1  0.3151015E-009  0.1056149E+03  0.7561462E-02  0.1268913E+00
         -2   -1    0    0    0  501 -0.00000000000E+00  0.00000000000E+00  0.52696872924E+02  0.52696872924E+02  0.00000000000E+00 0.  1.
          2   -1    0    0  501    0  0.00000000000E+00 -0.00000000000E+00 -0.24757605243E+03  0.24757605243E+03  0.00000000000E+00 0. -1.
         25    2    1    2    0    0 -0.68137372292E+01  0.34417440783E+02 -0.13916478954E+03  0.19038089762E+03  0.12508821002E+03 0.  0.
          5    1    3    3  502    0 -0.56519455149E+02 -0.63240929120E+00 -0.10787046613E+03  0.12185384119E+03  0.41800000000E+01 0. -1.
         -5    1    3    3    0  502  0.49705717919E+02  0.35049850074E+02 -0.31294323417E+02  0.68527056424E+02  0.41800000000E+01 0. -1.
        -11    1    1    2    0    0 -0.58320417019E+01  0.28664317038E+02 -0.25532977176E+02  0.38827679626E+02  0.00000000000E+00 0. -1.
         11    1    1    2    0    0  0.12645778931E+02 -0.63081757821E+02 -0.30181412792E+02  0.71064348113E+02  0.00000000000E+00 0.  1.
</event>
<event>
 7    1  0.3151015E-009  0.1673302E+03  0.7561462E-02  0.1180661E+00
         -1   -1    0    0    0  501 -0.00000000000E+00  0.00000000000E+00  0.14886622178E+03  0.14886622178E+03  0.00000000000E+00 0.  1.
          1   -1    0    0  501    0  0.00000000000E+00 -0.00000000000E+00 -0.27120087002E+03  0.27120087002E+03  0.00000000000E+00 0. -1.
         25    2    1    2    0    0 -0.15099442766E+03 -0.44970967470E+02 -0.66315555581E+00  0.20117578331E+03  0.12509816512E+03 0.  0.
          5    1    3    3  502    0 -0.34039267596E+02 -0.94296779354E+01  0.56031300630E+02  0.66366931635E+02  0.41800000000E+01 0. -1.
         -5    1    3    3    0  502 -0.11695516006E+03 -0.35541289534E+02 -0.56694456186E+02  0.13480885167E+03  0.41800000000E+01 0. -1.
        -11    1    1    2    0    0  0.59773366220E+02 -0.21921128404E+02 -0.69713209401E+02  0.94410395322E+02  0.00000000000E+00 0. -1.
         11    1    1    2    0    0  0.91221061440E+02  0.66892095874E+02 -0.51958283283E+02  0.12448091316E+03  0.00000000000E+00 0.  1.
</event>
<event>
 7    1  0.3151015E-009  0.8589877E+02  0.7561462E-02  0.1313099E+00
         -3   -1    0    0    0  501 -0.00000000000E+00  0.00000000000E+00  0.44644896343E+03  0.44644896343E+03  0.00000000000E+00 0.  1.
          3   -1    0    0  501    0  0.00000000000E+00 -0.00000000000E+00 -0.31185572987E+02  0.31185572987E+02  0.00000000000E+00 0. -1.
         25    2    1    2    0    0  0.63525225827E+00  0.39906256434E+02  0.29294071382E+03  0.32101936019E+03  0.12508499094E+03 0.  0.
          5    1    3    3  502    0 -0.12315891331E+02  0.84047965652E+02  0.19434542660E+03  0.21213995133E+03  0.41800000000E+01 0. -1.
         -5    1    3    3    0  502  0.12951143589E+02 -0.44141709218E+02  0.98595287215E+02  0.10887940886E+03  0.41800000000E+01 0. -1.
        -11    1    1    2    0    0 -0.37803866231E+01 -0.27498308753E+02  0.13545902122E+03  0.13827362271E+03  0.00000000000E+00 0.  1.
         11    1    1    2    0    0  0.31451343648E+01 -0.12407947681E+02 -0.13136344597E+02  0.18341553511E+02  0.00000000000E+00 0. -1.
</event>
<event>
 7    1  0.3151015E-009  0.1129046E+03  0.7561462E-02  0.1255284E+00
         -2   -1    0    0    0  501 -0.00000000000E+00  0.00000000000E+00  0.36007350360E+02  0.36007350360E+02  0.00000000000E+00 0.  1.
          2   -1    0    0  501    0  0.00000000000E+00 -0.00000000000E+00 -0.63214976153E+03  0.63214976153E+03  0.00000000000E+00 0. -1.
         25    2    1    2    0    0  0.72000474391E+02 -0.24694000148E+01 -0.49354238465E+03  0.51421901024E+03  0.12508772443E+03 0.  0.
          5    1    3    3  502    0  0.42282732566E+02 -0.51590957939E+02 -0.39058836812E+03  0.39626531784E+03  0.41800000000E+01 0.  1.
         -5    1    3    3    0  502  0.29717741825E+02  0.49121557924E+02 -0.10295401653E+03  0.11795369240E+03  0.41800000000E+01 0.  1.
        -11    1    1    2    0    0 -0.18406096579E+02 -0.32547054582E+02 -0.57341950680E+01  0.37828245351E+02  0.00000000000E+00 0.  1.
         11    1    1    2    0    0 -0.53594377813E+02  0.35016454597E+02 -0.96865831457E+02  0.11610985630E+03  0.00000000000E+00 0. -1.
</event>
<event>
 7    1  0.3151015E-009  0.1494942E+03  0.7561462E-02  0.1201096E+00
         -2   -1    0    0    0  501 -0.00000000000E+00  0.00000000000E+00  0.66186815323E+02  0.66186815323E+02  0.00000000000E+00 0. -1.
          2   -1    0    0  501    0  0.00000000000E+00 -0.00000000000E+00 -0.35736494079E+03  0.35736494079E+03  0.00000000000E+00 0.  1.
         25    2    1    2    0    0  0.10288675888E+03 -0.31512380227E+02 -0.13326736477E+03  0.21210137038E+03  0.12509230810E+03 0.  0.
          5    1    3    3  502    0 -0.13379079886E+02  0.28025532614E+02 -0.43254266694E+02  0.53411929792E+02  0.41800000000E+01 0. -1.
         -5    1    3    3    0  502  0.11626583877E+03 -0.59537912841E+02 -0.90013098075E+02  0.15868944059E+03  0.41800000000E+01 0. -1.
        -11    1    1    2    0    0 -0.39449854644E+02  0.56392196009E+02 -0.10329914929E+03  0.12412527964E+03  0.00000000000E+00 0.  1.
         11    1    1    2    0    0 -0.63436904240E+02 -0.24879815783E+02 -0.54611611414E+02  0.87325106093E+02  0.00000000000E+00 0. -1.
</event>
<event>
 7    1  0.3151015E-009  0.1469055E+03  0.7561462E-02  0.1204328E+00
          2   -1    0    0  501    0  0.00000000000E+00  0.00000000000E+00  0.91759458596E+02  0.91759458596E+02  0.00000000000E+00 0.  1.
         -2   -1    0    0    0  501 -0.00000000000E+00 -0.00000000000E+00 -0.27374130192E+03  0.27374130192E+03  0.00000000000E+00 0. -1.
         25    2    1    2    0    0 -0.49729922548E+02 -0.10312665465E+03 -0.90629675229E+02  0.19227494698E+03  0.12509094735E+03 0.  0.
          5    1    3    3  502    0 -0.29455636585E+01  0.25651029429E+02 -0.36486426784E+02  0.44893021679E+02  0.41800000000E+01 0. -1.
         -5    1    3    3    0  502 -0.46784358889E+02 -0.12877768408E+03 -0.54143248445E+02  0.14738192530E+03  0.41800000000E+01 0. -1.
        -11    1    1    2    0    0  0.17038741285E+02 -0.48876015834E+01  0.11008447706E+02  0.20866079524E+02  0.00000000000E+00 0.  1.
         11    1    1    2    0    0  0.32691181263E+02  0.10801425623E+03 -0.10236061580E+03  0.15235973402E+03  0.00000000000E+00 0. -1.
</event>
<event>
 7    1  0.3151015E-009  0.2056057E+03  0.7561462E-02  0.1145094E+00
          1   -1    0    0  501    0  0.00000000000E+00  0.00000000000E+00  0.42313411755E+03  0.42313411755E+03  0.00000000000E+00 0. -1.
         -1   -1    0    0    0  501 -0.00000000000E+00 -0.00000000000E+00 -0.12510901944E+03  0.12510901944E+03  0.00000000000E+00 0.  1.
         25    2    1    2    0    0  0.48122978421E+02 -0.19465401746E+03  0.18784221579E+03  0.30189111012E+03  0.12509011459E+03 0.  0.
          5    1    3    3  502    0  0.28124615825E+02 -0.16497627369E+03  0.20272107784E+03  0.26290962839E+03  0.41800000000E+01 0.  1.
         -5    1    3    3    0  502  0.19998362596E+02 -0.29677743770E+02 -0.14878862055E+02  0.38981481730E+02  0.41800000000E+01 0.  1.
        -11    1    1    2    0    0 -0.13728694709E+02  0.43734260891E+01 -0.11022140879E+02  0.18140879354E+02  0.00000000000E+00 0.  1.
         11    1    1    2    0    0 -0.34394283711E+02  0.19028059137E+03  0.12120502319E+03  0.22821114752E+03  0.00000000000E+00 0. -1.
</event>
<event>
 7    1  0.3151015E-009  0.1680824E+03  0.7561462E-02  0.1179862E+00
         -2   -1    0    0    0  501 -0.00000000000E+00  0.00000000000E+00  0.54523860099E+02  0.54523860099E+02  0.00000000000E+00 0.  1.
          2   -1    0    0  501    0  0.00000000000E+00 -0.00000000000E+00 -0.84947215141E+03  0.84947215141E+03  0.00000000000E+00 0. -1.
         25    2    1    2    0    0  0.14000036420E+03  0.40726571913E+02 -0.65106445339E+03  0.67881622818E+03  0.12509114093E+03 0.  0.
          5    1    3    3  502    0  0.14961981162E+03  0.21165777866E+02 -0.63113629317E+03  0.64898734282E+03  0.41800000000E+01 0. -1.
         -5    1    3    3    0  502 -0.96194474167E+01  0.19560794047E+02 -0.19928160220E+02  0.29828885365E+02  0.41800000000E+01 0. -1.
        -11    1    1    2    0    0 -0.10008804739E+03  0.73024609992E+01 -0.49223106455E+02  0.11177592485E+03  0.00000000000E+00 0.  1.
         11    1    1    2    0    0 -0.39912316811E+02 -0.48029032913E+02 -0.94660731469E+02  0.11340385848E+03  0.00000000000E+00 0. -1.
</event>
<event>
 7    1  0.3151015E-009  0.1218381E+03  0.7561462E-02  0.1240095E+00
         -1   -1    0    0    0  501 -0.00000000000E+00  0.00000000000E+00  0.91096694005E+02  0.91096694005E+02  0.00000000000E+00 0.  1.
          1   -1    0    0  501    0  0.00000000000E+00 -0.00000000000E+00 -0.19784641129E+03  0.19784641129E+03  0.00000000000E+00 0. -1.
         25    2    1    2    0    0 -0.34721836107E+02 -0.52183042455E+02 -0.81920102829E+01  0.14019492019E+03  0.12513524999E+03 0.  0.
          5    1    3    3  502    0 -0.40447529096E+01  0.40104338900E+02  0.85694374463E+01  0.41420112057E+02  0.41800000000E+01 0.  1.
         -5    1    3    3    0  502 -0.30677083197E+02 -0.92287381354E+02 -0.16761447729E+02  0.98774808128E+02  0.41800000000E+01 0.  1.
        -11    1    1    2    0    0  0.47900280343E+02  0.69277894505E+02 -0.94848842668E+02  0.12684701999E+03  0.00000000000E+00 0. -1.
         11    1    1    2    0    0 -0.13178444236E+02 -0.17094852050E+02 -0.37088643334E+01  0.21901165123E+02  0.00000000000E+00 0.  1.
</event>
<event>
 7    1  0.3151015E-009  0.1259042E+03  0.7561462E-02  0.1233663E+00
          2   -1    0    0  501    0  0.00000000000E+00  0.00000000000E+00  0.82075258986E+03  0.82075258986E+03  0.00000000000E+00 0. -1.
         -2   -1    0    0    0  501 -0.00000000000E+00 -0.00000000000E+00 -0.21146648368E+02  0.21146648368E+02  0.00000000000E+00 0.  1.
         25    2    1    2    0    0  0.36757311911E+02 -0.57946509246E+02  0.35538817214E+03  0.38295838392E+03  0.12508985974E+03 0.  0.
          5    1    3    3  502    0  0.68228113538E+02 -0.75386507700E+02  0.29989103298E+03  0.31668644600E+03  0.41800000000E+01 0. -1.
         -5    1    3    3    0  502 -0.31470801626E+02  0.17439998455E+02  0.55497139153E+02  0.66271937917E+02  0.41800000000E+01 0. -1.
        -11    1    1    2    0    0 -0.63777353799E+01 -0.24836451827E+02  0.72312229732E+02  0.76724073255E+02  0.00000000000E+00 0.  1.
         11    1    1    2    0    0 -0.30379576532E+02  0.82782961073E+02  0.37190553962E+03  0.38221678105E+03  0.00000000000E+00 0. -1.
</event>
<event>
 7    1  0.3151015E-009  0.1194898E+03  0.7561462E-02  0.1243941E+00
         -1   -1    0    0    0  501 -0.00000000000E+00  0.00000000000E+00  0.12776891877E+03  0.12776891877E+03  0.00000000000E+00 0.  1.
          1   -1    0    0  501    0  0.00000000000E+00 -0.00000000000E+00 -0.14583777007E+03  0.14583777007E+03  0.00000000000E+00 0. -1.
         25    2    1    2    0    0 -0.67439182103E+02  0.43412196205E+02 -0.29912380380E+02  0.15157298217E+03  0.12508779461E+03 0.  0.
          5    1    3    3  502    0 -0.51265304489E+02  0.70331106856E+02 -0.61643864005E+02  0.10673347369E+03  0.41800000000E+01 0. -1.
         -5    1    3    3    0  502 -0.16173877614E+02 -0.26918910651E+02  0.31731483626E+02  0.44839508481E+02  0.41800000000E+01 0. -1.
        -11    1    1    2    0    0  0.78660114302E+02 -0.35342573093E+01 -0.72401478924E+00  0.78742801284E+02  0.00000000000E+00 0.  1.
         11    1    1    2    0    0 -0.11220932198E+02 -0.39877938896E+02  0.12567543870E+02  0.43290905383E+02  0.00000000000E+00 0. -1.
</event>
<event>
 7    1  0.3151015E-009  0.1184646E+03  0.7561462E-02  0.1245652E+00
          2   -1    0    0  501    0  0.00000000000E+00  0.00000000000E+00  0.30558371764E+03  0.30558371764E+03  0.00000000000E+00 0. -1.
         -2   -1    0    0    0  501 -0.00000000000E+00 -0.00000000000E+00 -0.68489880973E+02  0.68489880973E+02  0.00000000000E+00 0.  1.
         25    2    1    2    0    0  0.31652035430E+02 -0.58388472430E+02  0.42658341813E+02  0.14791367043E+03  0.12509058604E+03 0.  0.
          5    1    3    3  502    0 -0.17998102632E+02 -0.82171177692E+02  0.12935219211E+02  0.85210483144E+02  0.41800000000E+01 0. -1.
         -5    1    3    3    0  502  0.49650138062E+02  0.23782705262E+02  0.29723122602E+02  0.62703187290E+02  0.41800000000E+01 0. -1.
        -11    1    1    2    0    0  0.87074130349E+01  0.56420023193E+02  0.49057056135E+02  0.75270398003E+02  0.00000000000E+00 0.  1.
         11    1    1    2    0    0 -0.40359448465E+02  0.19684492373E+01  0.14537843872E+03  0.15088953018E+03  0.00000000000E+00 0. -1.
</event>
<event>
 7    1  0.3151015E-009  0.1260542E+03  0.7561462E-02  0.1233431E+00
          2   -1    0    0  501    0  0.00000000000E+00  0.00000000000E+00  0.91800003015E+02  0.91800003015E+02  0.00000000000E+00 0.  1.
         -2   -1    0    0    0  501 -0.00000000000E+00 -0.00000000000E+00 -0.24830851400E+03  0.24830851400E+03  0.00000000000E+00 0. -1.
         25    2    1    2    0    0 -0.37985351519E+02 -0.87577786095E+02 -0.44240019857E+02  0.16344207847E+03  0.12507349084E+03 0.  0.
          5    1    3    3  502    0  0.32996783844E+01  0.10438011497E+02  0.30970425773E+02  0.33113133859E+02  0.41800000000E+01 0.  1.
         -5    1    3    3    0  502 -0.41285029903E+02 -0.98015797591E+02 -0.75210445630E+02  0.13032894461E+03  0.41800000000E+01 0.  1.
        -11    1    1    2    0    0  0.17572915376E+00 -0.19960395884E+02 -0.60507069431E+01  0.20858076112E+02  0.00000000000E+00 0.  1.
         11    1    1    2    0    0  0.37809622365E+02  0.10753818198E+03 -0.10621778419E+03  0.15580836243E+03  0.00000000000E+00 0. -1.
</event>
<event>
 7    1  0.3151015E-009  0.1806283E+03  0.7561462E-02  0.1167196E+00
         -1   -1    0    0    0  501 -0.00000000000E+00  0.00000000000E+00  0.14659514777E+03  0.14659514777E+03  0.00000000000E+00 0.  1.
          1   -1    0    0  501    0  0.00000000000E+00 -0.00000000000E+00 -0.35627946434E+03  0.35627946434E+03  0.00000000000E+00 0. -1.
         25    2    1    2    0    0 -0.17184439892E+03  0.45127167320E+01 -0.22162598828E+03  0.30711439769E+03  0.12510120917E+03 0.  0.
          5    1    3    3  502    0 -0.15223047475E+03  0.31699992058E+02 -0.11007435610E+03  0.19055929054E+03  0.41800000000E+01 0. -1.
         -5    1    3    3    0  502 -0.19613924166E+02 -0.27187275326E+02 -0.11155163218E+03  0.11655510715E+03  0.41800000000E+01 0. -1.
        -11    1    1    2    0    0  0.12951865832E+03 -0.23525146110E+01  0.49945918774E+02  0.13883519720E+03  0.00000000000E+00 0.  1.
         11    1    1    2    0    0  0.42325740598E+02 -0.21602021210E+01 -0.38004247063E+02  0.56925017218E+02  0.00000000000E+00 0. -1.
</event>
<event>
 7    1  0.3151015E-009  0.1265838E+03  0.7561462E-02  0.1232615E+00
          1   -1    0    0  501    0  0.00000000000E+00  0.00000000000E+00  0.14273883175E+03  0.14273883175E+03  0.00000000000E+00 0. -1.
         -1   -1    0    0    0  501 -0.00000000000E+00 -0.00000000000E+00 -0.11340476420E+03  0.11340476420E+03  0.00000000000E+00 0.  1.
         25    2    1    2    0    0  0.29766364052E+02  0.60435616450E+02  0.23160065344E+02  0.14394957585E+03  0.12508633657E+03 0.  0.
          5    1    3    3  502    0 -0.48747859606E+02  0.14675249242E+02  0.71222069303E+01  0.51574363670E+02  0.41800000000E+01 0. -1.
         -5    1    3    3    0  502  0.78514223657E+02  0.45760367208E+02  0.16037858414E+02  0.92375212184E+02  0.41800000000E+01 0. -1.
        -11    1    1    2    0    0 -0.40599856772E+02 -0.79454825789E+02  0.10627062803E+02  0.89857399111E+02  0.00000000000E+00 0.  1.
         11    1    1    2    0    0  0.10833492721E+02  0.19019209340E+02 -0.44530605933E+01  0.22336620986E+02  0.00000000000E+00 0. -1.
</event>
<event>
 7    1  0.3151015E-009  0.1559392E+03  0.7561462E-02  0.1193359E+00
          1   -1    0    0  501    0  0.00000000000E+00  0.00000000000E+00  0.25083629902E+04  0.25083629902E+04  0.00000000000E+00 0. -1.
         -1   -1    0    0    0  501 -0.00000000000E+00 -0.00000000000E+00 -0.13604573250E+02  0.13604573250E+02  0.00000000000E+00 0.  1.
         25    2    1    2    0    0  0.96425431631E+02 -0.99750856444E+02  0.16770074606E+04  0.16873803059E+04  0.12510066582E+03 0.  0.
          5    1    3    3  502    0  0.80199057742E+01 -0.33128601913E+02  0.10567746182E+04  0.10573324402E+04  0.41800000000E+01 0. -1.
         -5    1    3    3    0  502  0.88405525857E+02 -0.66622254531E+02  0.62023284239E+03  0.63004786562E+03  0.41800000000E+01 0. -1.
        -11    1    1    2    0    0 -0.96136945190E+02  0.35458676054E+02  0.51021545628E+03  0.52040315311E+03  0.00000000000E+00 0. -1.
         11    1    1    2    0    0 -0.28848644077E+00  0.64292180390E+02  0.30753550012E+03  0.31418410450E+03  0.00000000000E+00 0.  1.
</event>
<event>
 7    1  0.3151015E-009  0.1352230E+03  0.7561462E-02  0.1219905E+00
         -1   -1    0    0    0  501 -0.00000000000E+00  0.00000000000E+00  0.80929674727E+02  0.80929674727E+02  0.00000000000E+00 0.  1.
          1   -1    0    0  501    0  0.00000000000E+00 -0.00000000000E+00 -0.30225871465E+03  0.30225871465E+03  0.00000000000E+00 0. -1.
         25    2    1    2    0    0  0.82564919052E+02  0.16207423194E+02 -0.20716491100E+03  0.25621150594E+03  0.12508952394E+03 0.  0.
          5    1    3    3  502    0  0.11011338909E+01 -0.45466672035E+02 -0.88290896539E+02  0.99404152697E+02  0.41800000000E+01 0.  1.
         -5    1    3    3    0  502  0.81463785161E+02  0.61674095229E+02 -0.11887401446E+03  0.15680735324E+03  0.41800000000E+01 0.  1.
        -11    1    1    2    0    0  0.14950478580E+02  0.13941967038E+02 -0.14229120788E+02  0.24907090016E+02  0.00000000000E+00 0.  1.
         11    1    1    2    0    0 -0.97515397633E+02 -0.30149390232E+02  0.64991863144E-01  0.10206979343E+03  0.00000000000E+00 0. -1.
</event>
<event>
 7    1  0.3151015E-009  0.1050855E+03  0.7561462E-02  0.1269951E+00
         -2   -1    0    0    0  501 -0.00000000000E+00  0.00000000000E+00  0.45657446083E+03  0.45657446083E+03  0.00000000000E+00 0.  1.
          2   -1    0    0  501    0  0.00000000000E+00 -0.00000000000E+00 -0.29379390420E+02  0.29379390420E+02  0.00000000000E+00 0. -1.
         25    2    1    2    0    0  0.38211700544E+02  0.10926215513E+02  0.25847634679E+03  0.28989290773E+03  0.12509340454E+03 0.  0.
          5    1    3    3  502    0  0.47357481332E+02 -0.39371638657E+02  0.21155277716E+03  0.22037446969E+03  0.41800000000E+01 0. -1.
         -5    1    3    3    0  502 -0.91457807877E+01  0.50297854170E+02  0.46923569624E+02  0.69518438033E+02  0.41800000000E+01 0. -1.
        -11    1    1    2    0    0 -0.37396490424E+02 -0.47563064555E+02  0.12602609675E+03  0.13979742368E+03  0.00000000000E+00 0.  1.
         11    1    1    2    0    0 -0.81521011972E+00  0.36636849042E+02  0.42692626871E+02  0.56263519837E+02  0.00000000000E+00 0. -1.
</event>
<event>
 7    1  0.3151015E-009  0.1385655E+03  0.7561462E-02  0.1215272E+00
          1   -1    0    0  501    0  0.00000000000E+00  0.00000000000E+00  0.15417474486E+03  0.15417474486E+03  0.00000000000E+00 0. -1.
         -1   -1    0    0    0  501 -0.00000000000E+00 -0.00000000000E+00 -0.16667638442E+03  0.16667638442E+03  0.00000000000E+00 0.  1.
         25    2    1    2    0    0 -0.92324276511E+02  0.58941298911E+02  0.34925564186E+02  0.16989673201E+03  0.12508899138E+03 0.  0.
          5    1    3    3  502    0 -0.12231372381E+02  0.61022239335E+02 -0.27571759193E+02  0.68198199894E+02  0.41800000000E+01 0. -1.
         -5    1    3    3    0  502 -0.80092904130E+02 -0.20809404242E+01  0.62497323379E+02  0.10169853212E+03  0.41800000000E+01 0. -1.
        -11    1    1    2    0    0 -0.12020917850E+02  0.39979172807E+01 -0.23605811122E+02  0.26790299126E+02  0.00000000000E+00 0.  1.
         11    1    1    2    0    0  0.10434519436E+03 -0.62939216191E+02 -0.23821392617E+02  0.12416409814E+03  0.00000000000E+00 0. -1.
</event>
<event>
 7    1  0.3151015E-009  0.1614475E+03  0.7561462E-02  0.1187072E+00
         -2   -1    0    0    0  501 -0.00000000000E+00  0.00000000000E+00  0.14018730309E+02  0.14018730309E+02  0.00000000000E+00 0.  1.
          2   -1    0    0  501    0  0.00000000000E+00 -0.00000000000E+00 -0.23694443597E+04  0.23694443597E+04  0.00000000000E+00 0. -1.
         25    2    1    2    0    0  0.42357674540E+02 -0.12094782691E+03 -0.17084492898E+04  0.17178092765E+04  0.12508870973E+03 0.  0.
          5    1    3    3  502    0  0.76239137313E+02 -0.10579516581E+03 -0.10144430162E+04  0.10227986745E+04  0.41800000000E+01 0.  1.
         -5    1    3    3    0  502 -0.33881462773E+02 -0.15152661101E+02 -0.69400627363E+03  0.69501060200E+03  0.41800000000E+01 0.  1.
        -11    1    1    2    0    0 -0.52769613354E+02  0.24698111081E+02 -0.28920429549E+03  0.29501483575E+03  0.00000000000E+00 0. -1.
         11    1    1    2    0    0  0.10411938814E+02  0.96249715834E+02 -0.35777204413E+03  0.37063897776E+03  0.00000000000E+00 0.  1.
</event>
<event>
 7    1  0.3151015E-009  0.8385809E+02  0.7561462E-02  0.1318446E+00
         -2   -1    0    0    0  501 -0.00000000000E+00  0.00000000000E+00  0.52124714073E+02  0.52124714073E+02  0.00000000000E+00 0.  1.
          2   -1    0    0  501    0  0.00000000000E+00 -0.00000000000E+00 -0.43361814526E+03  0.43361814526E+03  0.00000000000E+00 0. -1.
         25    2    1    2    0    0 -0.56224371845E+02  0.16009377712E+02 -0.34493620578E+03  0.37154474783E+03  0.12508810264E+03 0.  0.
          5    1    3    3  502    0 -0.12364882365E+02 -0.37400997971E+02 -0.31665091674E+02  0.50713660841E+02  0.41800000000E+01 0. -1.
         -5    1    3    3    0  502 -0.43859489479E+02  0.53410375683E+02 -0.31327111410E+03  0.32083108699E+03  0.41800000000E+01 0. -1.
        -11    1    1    2    0    0  0.31735371340E+02 -0.12580326236E+02  0.28581924860E+02  0.44523306605E+02  0.00000000000E+00 0.  1.
         11    1    1    2    0    0  0.24489000504E+02 -0.34290514763E+01 -0.65139150269E+02  0.69674804898E+02  0.00000000000E+00 0. -1.
</event>
<event>
 7    1  0.3151015E-009  0.1055161E+03  0.7561462E-02  0.1269106E+00
          1   -1    0    0  501    0  0.00000000000E+00  0.00000000000E+00  0.13626016008E+03  0.13626016008E+03  0.00000000000E+00 0. -1.
         -1   -1    0    0    0  501 -0.00000000000E+00 -0.00000000000E+00 -0.86982110603E+02  0.86982110603E+02  0.00000000000E+00 0.  1.
         25    2    1    2    0    0 -0.33560095435E+02 -0.20850843986E+02  0.32492941568E+02  0.13514405834E+03  0.12508831901E+03 0.  0.
          5    1    3    3  502    0  0.35879440392E+02 -0.38849593817E+02 -0.64082387506E+01  0.53433726302E+02  0.41800000000E+01 0. -1.
         -5    1    3    3    0  502 -0.69439535827E+02  0.17998749831E+02  0.38901180319E+02  0.81710332037E+02  0.41800000000E+01 0. -1.
        -11    1    1    2    0    0 -0.19113404232E+02  0.27017524315E+02  0.25788104826E+01  0.33195166892E+02  0.00000000000E+00 0.  1.
         11    1    1    2    0    0  0.52673499667E+02 -0.61666803297E+01  0.14206297427E+02  0.54903045453E+02  0.00000000000E+00 0. -1.
</event>
<event>
 7    1  0.3151015E-009  0.5390782E+02  0.7561462E-02  0.1425336E+00
          2   -1    0    0  501    0  0.00000000000E+00  0.00000000000E+00  0.42871448482E+02  0.42871448482E+02  0.00000000000E+00 0. -1.
         -2   -1    0    0    0  501 -0.00000000000E+00 -0.00000000000E+00 -0.25629342640E+03  0.25629342640E+03  0.00000000000E+00 0.  1.
         25    2    1    2    0    0 -0.10328848058E+02  0.10662219902E+02 -0.15410517209E+03  0.19903902740E+03  0.12509101618E+03 0.  0.
          5    1    3    3  502    0  0.57845053585E+01  0.99000393308E+01  0.20382785168E+02  0.23757138131E+02  0.41800000000E+01 0.  1.
         -5    1    3    3    0  502 -0.16113353416E+02  0.76218057155E+00 -0.17448795726E+03  0.17528188927E+03  0.41800000000E+01 0.  1.
        -11    1    1    2    0    0  0.31764501611E+02  0.22875624269E+02 -0.39694973063E+02  0.55749158153E+02  0.00000000000E+00 0.  1.
         11    1    1    2    0    0 -0.21435653553E+02 -0.33537844171E+02 -0.19621832768E+02  0.44376689332E+02  0.00000000000E+00 0. -1.
</event>
<event>
 7    1  0.3151015E-009  0.1141169E+03  0.7561462E-02  0.1253131E+00
          1   -1    0    0  501    0  0.00000000000E+00  0.00000000000E+00  0.80655445738E+02  0.80655445738E+02  0.00000000000E+00 0. -1.
         -1   -1    0    0    0  501 -0.00000000000E+00 -0.00000000000E+00 -0.16794956022E+03  0.16794956022E+03  0.00000000000E+00 0.  1.
         25    2    1    2    0    0 -0.38737559262E+02 -0.76006692411E+01 -0.70126098915E+02  0.14873918691E+03  0.12508919739E+03 0.  0.
          5    1    3    3  502    0 -0.68065722420E+02  0.36134000997E+02 -0.31771098251E+02  0.83459473283E+02  0.41800000000E+01 0. -1.
         -5    1    3    3    0  502  0.29328163158E+02 -0.43734670238E+02 -0.38355000664E+02  0.65279713625E+02  0.41800000000E+01 0. -1.
        -11    1    1    2    0    0  0.64120687171E-01  0.44666598293E+02 -0.51138210983E+01  0.44958428362E+02  0.00000000000E+00 0.  1.
         11    1    1    2    0    0  0.38673438575E+02 -0.37065929052E+02 -0.12054194466E+02  0.54907390685E+02  0.00000000000E+00 0. -1.
</event>
<event>
 7    1  0.3151015E-009  0.6757757E+02  0.7561462E-02  0.1368530E+00
         -2   -1    0    0    0  501 -0.00000000000E+00  0.00000000000E+00  0.97826121961E+02  0.97826121961E+02  0.00000000000E+00 0.  1.
          2   -1    0    0  501    0  0.00000000000E+00 -0.00000000000E+00 -0.13958956504E+03  0.13958956504E+03  0.00000000000E+00 0. -1.
         25    2    1    2    0    0  0.23241605865E+01  0.40914786765E+02 -0.36284933734E+02  0.13654482570E+03  0.12509385081E+03 0.  0.
          5    1    3    3  502    0 -0.71380359961E+01  0.75217830031E+01 -0.79883224727E+02  0.80661829698E+02  0.41800000000E+01 0.  1.
         -5    1    3    3    0  502  0.94621965826E+01  0.33393003762E+02  0.43598290993E+02  0.55882996000E+02  0.41800000000E+01 0.  1.
        -11    1    1    2    0    0 -0.33547043914E+02  0.45588291118E+01 -0.25291903139E+02  0.42259524875E+02  0.00000000000E+00 0. -1.
         11    1    1    2    0    0  0.31222883328E+02 -0.45473615877E+02  0.19813393795E+02  0.58611336428E+02  0.00000000000E+00 0.  1.
</event>
<event>
 7    1  0.3151015E-009  0.1182951E+03  0.7561462E-02  0.1245936E+00
          1   -1    0    0  501    0  0.00000000000E+00  0.00000000000E+00  0.61960654173E+03  0.61960654173E+03  0.00000000000E+00 0. -1.
         -1   -1    0    0    0  501 -0.00000000000E+00 -0.00000000000E+00 -0.26840535123E+02  0.26840535123E+02  0.00000000000E+00 0.  1.
         25    2    1    2    0    0  0.36605879967E+02 -0.48948391016E+02  0.41561167284E+03  0.43831261504E+03  0.12509576522E+03 0.  0.
          5    1    3    3  502    0 -0.45556209715E+02 -0.98988690094E+01  0.17133881920E+03  0.17761705778E+03  0.41800000000E+01 0.  1.
         -5    1    3    3    0  502  0.82162089682E+02 -0.39049522006E+02  0.24427285364E+03  0.26069555726E+03  0.41800000000E+01 0.  1.
        -11    1    1    2    0    0 -0.11264660910E+02 -0.21269043760E+02  0.12002155673E+02  0.26894544961E+02  0.00000000000E+00 0.  1.
         11    1    1    2    0    0 -0.25341219057E+02  0.70217434776E+02  0.16515217809E+03  0.18123991685E+03  0.00000000000E+00 0. -1.
</event>
<event>
 7    1  0.3151015E-009  0.1062580E+03  0.7561462E-02  0.1267661E+00
          2   -1    0    0  501    0  0.00000000000E+00  0.00000000000E+00  0.11104256757E+03  0.11104256757E+03  0.00000000000E+00 0. -1.
         -2   -1    0    0    0  501 -0.00000000000E+00 -0.00000000000E+00 -0.10670925045E+03  0.10670925045E+03  0.00000000000E+00 0.  1.
         25    2    1    2    0    0 -0.72172909314E+01 -0.21907809099E+01  0.41667510159E+01  0.12539888761E+03  0.12510247956E+03 0.  0.
          5    1    3    3  502    0 -0.58374306721E+02  0.24711021736E+02 -0.13237910970E+02  0.64891516913E+02  0.41800000000E+01 0. -1.
         -5    1    3    3    0  502  0.51157015789E+02 -0.26901802646E+02  0.17404661986E+02  0.60507370699E+02  0.41800000000E+01 0. -1.
        -11    1    1    2    0    0  0.49025871020E+02  0.40190431142E+01 -0.76470927970E+01  0.49781188868E+02  0.00000000000E+00 0.  1.
         11    1    1    2    0    0 -0.41808580089E+02 -0.18282622043E+01  0.78136589033E+01  0.42571741534E+02  0.00000000000E+00 0. -1.
</event>
<event>
 7    1  0.3151015E-009  0.1392831E+03  0.7561462E-02  0.1214297E+00
          3   -1    0    0  501    0  0.00000000000E+00  0.00000000000E+00  0.11536406689E+03  0.11536406689E+03  0.00000000000E+00 0. -1.
         -3   -1    0    0    0  501 -0.00000000000E+00 -0.00000000000E+00 -0.38039647651E+03  0.38039647651E+03  0.00000000000E+00 0.  1.
         25    2    1    2    0    0 -0.11556332237E+03 -0.35347055526E+01 -0.29964662096E+03  0.34467674511E+03  0.12508631237E+03 0.  0.
          5    1    3    3  502    0  0.23316500406E+02 -0.38042394967E+01 -0.16028412214E+02  0.28853315710E+02  0.41800000000E+01 0.  1.
         -5    1    3    3    0  502 -0.13887982278E+03  0.26953394409E+00 -0.28361820875E+03  0.31582342940E+03  0.41800000000E+01 0.  1.
        -11    1    1    2    0    0  0.61382169886E+02  0.97233345165E+00  0.64590308092E+02  0.89110179619E+02  0.00000000000E+00 0. -1.
         11    1    1    2    0    0  0.54181152483E+02  0.25623721010E+01 -0.29976096754E+02  0.61973618676E+02  0.00000000000E+00 0.  1.
</event>
<event>
 7    1  0.3151015E-009  0.3414059E+03  0.7561462E-02  0.1066199E+00
          2   -1    0    0  501    0  0.00000000000E+00  0.00000000000E+00  0.15335648454E+04  0.15335648454E+04  0.00000000000E+00 0. -1.
         -2   -1    0    0    0  501 -0.00000000000E+00 -0.00000000000E+00 -0.80847675142E+02  0.80847675142E+02  0.00000000000E+00 0.  1.
         25    2    1    2    0    0 -0.26290701872E+03 -0.19929033326E+03  0.87469174898E+03  0.94317029816E+03  0.12509123944E+03 0.  0.
          5    1    3    3  502    0  0.25770662045E+01 -0.45178583391E+02  0.98833961447E+02  0.10878129436E+03  0.41800000000E+01 0. -1.
         -5    1    3    3    0  502 -0.26548408493E+03 -0.15411174987E+03  0.77585778753E+03  0.83438900380E+03  0.41800000000E+01 0. -1.
        -11    1    1    2    0    0  0.14391283584E+03  0.98150562401E+02  0.21981652133E+03  0.28047056934E+03  0.00000000000E+00 0.  1.
         11    1    1    2    0    0  0.11899418289E+03  0.10113977086E+03  0.35820889998E+03  0.39077165306E+03  0.00000000000E+00 0. -1.
</event>
<event>
 7    1  0.5057187E-009  0.1530630E+03  0.7561462E-02  0.1196759E+00
         -2   -1    0    0    0  501 -0.00000000000E+00  0.00000000000E+00  0.34217151679E+02  0.34217151679E+02  0.00000000000E+00 0.  1.
          2   -1    0    0  501    0  0.00000000000E+00 -0.00000000000E+00 -0.70780833337E+03  0.70780833337E+03  0.00000000000E+00 0. -1.
         25    2    1    2    0    0 -0.10150146635E+03 -0.42508840802E+02 -0.32583228992E+03  0.36595665933E+03  0.12509215058E+03 0.  0.
          5    1    3    3  502    0 -0.22141465917E+01  0.38202147112E+02 -0.70348204774E+02  0.80191326240E+02  0.41800000000E+01 0.  1.
         -5    1    3    3    0  502 -0.99287319763E+02 -0.80710987914E+02 -0.25548408514E+03  0.28576533309E+03  0.41800000000E+01 0.  1.
        -11    1    1    2    0    0  0.55596123483E+02  0.67415530494E+02 -0.25580578801E+03  0.27031904091E+03  0.00000000000E+00 0. -1.
         11    1    1    2    0    0  0.45905342872E+02 -0.24906689692E+02 -0.91953103763E+02  0.10574978481E+03  0.00000000000E+00 0.  1.
</event>
<event>
 7    1  0.3151015E-009  0.1035027E+03  0.7561462E-02  0.1273098E+00
          2   -1    0    0  501    0  0.00000000000E+00  0.00000000000E+00  0.17233097943E+03  0.17233097943E+03  0.00000000000E+00 0. -1.
         -2   -1    0    0    0  501 -0.00000000000E+00 -0.00000000000E+00 -0.14499779815E+03  0.14499779815E+03  0.00000000000E+00 0.  1.
         25    2    1    2    0    0  0.67495539618E+02  0.13156315170E+02 -0.76165573459E+02  0.16179464687E+03  0.12509027412E+03 0.  0.
          5    1    3    3  502    0  0.61518139974E+02  0.59164123346E+02 -0.77256527013E+02  0.11519947224E+03  0.41800000000E+01 0.  1.
         -5    1    3    3    0  502  0.59773996434E+01 -0.46007808177E+02  0.10909535542E+01  0.46595174636E+02  0.41800000000E+01 0.  1.
        -11    1    1    2    0    0 -0.63222414211E+02 -0.22575027183E+01  0.11979244457E+03  0.13547102921E+03  0.00000000000E+00 0. -1.
         11    1    1    2    0    0 -0.42731254063E+01 -0.10898812451E+02 -0.16293689833E+02  0.20063101504E+02  0.00000000000E+00 0.  1.
</event>
<event>
 7    1  0.3151015E-009  0.1214527E+03  0.7561462E-02  0.1240720E+00
          1   -1    0    0  501    0  0.00000000000E+00  0.00000000000E+00  0.32242557189E+03  0.32242557189E+03  0.00000000000E+00 0. -1.
         -1   -1    0    0    0  501 -0.00000000000E+00 -0.00000000000E+00 -0.67872953792E+02  0.67872953792E+02  0.00000000000E+00 0.  1.
         25    2    1    2    0    0  0.40824098661E+02 -0.89766167364E+02  0.17550394685E+03  0.23701816037E+03  0.12510556003E+03 0.  0.
          5    1    3    3  502    0  0.56907356847E+02 -0.86649607017E+02  0.59119080462E+02  0.11941163986E+03  0.41800000000E+01 0.  1.
         -5    1    3    3    0  502 -0.16083258186E+02 -0.31165603466E+01  0.11638486639E+03  0.11760652051E+03  0.41800000000E+01 0.  1.
        -11    1    1    2    0    0 -0.61499936893E+02  0.74164139908E+02  0.35631334078E+02  0.10272367718E+03  0.00000000000E+00 0.  1.
         11    1    1    2    0    0  0.20675838232E+02  0.15602027456E+02  0.43417337164E+02  0.50556688121E+02  0.00000000000E+00 0. -1.
</event>
<event>
 7    1  0.3151015E-009  0.1494317E+03  0.7561462E-02  0.1201173E+00
          1   -1    0    0  501    0  0.00000000000E+00  0.00000000000E+00  0.27340253518E+03  0.27340253518E+03  0.00000000000E+00 0. -1.
         -1   -1    0    0    0  501 -0.00000000000E+00 -0.00000000000E+00 -0.11222495272E+03  0.11222495272E+03  0.00000000000E+00 0.  1.
         25    2    1    2    0    0 -0.11572469225E+03  0.71737113237E+02  0.60234739281E+02  0.19446013404E+03  0.12509237428E+03 0.  0.
          5    1    3    3  502    0 -0.10513485684E+03  0.60981989329E+02  0.96311383827E+02  0.15513057790E+03  0.41800000000E+01 0.  1.
         -5    1    3    3    0  502 -0.10589835402E+02  0.10755123908E+02 -0.36076644546E+02  0.39329556136E+02  0.41800000000E+01 0.  1.
        -11    1    1    2    0    0  0.62355164413E+02 -0.86111914158E+02  0.57528779497E+02  0.12088419566E+03  0.00000000000E+00 0.  1.
         11    1    1    2    0    0  0.53369527832E+02  0.14374800921E+02  0.43414063679E+02  0.70283158208E+02  0.00000000000E+00 0. -1.
</event>
<event>
 7    1  0.3151015E-009  0.9616628E+02  0.7561462E-02  0.1288571E+00
          1   -1    0    0  501    0  0.00000000000E+00  0.00000000000E+00  0.72966144729E+02  0.72966144729E+02  0.00000000000E+00 0. -1.
         -1   -1    0    0    0  501 -0.00000000000E+00 -0.00000000000E+00 -0.21172908139E+03  0.21172908139E+03  0.00000000000E+00 0.  1.
         25    2    1    2    0    0 -0.40300586728E+02 -0.40247384298E+02 -0.93146736640E+02  0.16603698169E+03  0.12509186828E+03 0.  0.
          5    1    3    3  502    0 -0.57448056439E+02 -0.52589934216E+01 -0.10929206968E+03  0.12365340713E+03  0.41800000000E+01 0. -1.
         -5    1    3    3    0  502  0.17147469711E+02 -0.34988390876E+02  0.16145333039E+02  0.42383574561E+02  0.41800000000E+01 0. -1.
        -11    1    1    2    0    0  0.62543101902E+02  0.21251827351E+02 -0.57022374002E+02  0.87262998448E+02  0.00000000000E+00 0.  1.
         11    1    1    2    0    0 -0.22242515174E+02  0.18995556946E+02  0.11406173984E+02  0.31395245977E+02  0.00000000000E+00 0. -1.
</event>
<event>
 7    1  0.3151015E-009  0.8354748E+02  0.7561462E-02  0.1319275E+00
          1   -1    0    0  501    0  0.00000000000E+00  0.00000000000E+00  0.16536334679E+03  0.16536334679E+03  0.00000000000E+00 0. -1.
         -1   -1    0    0    0  501 -0.00000000000E+00 -0.00000000000E+00 -0.77825210597E+02  0.77825210597E+02  0.00000000000E+00 0.  1.
         25    2    1    2    0    0  0.10747778830E+02 -0.93246937865E+01  0.81546132010E+02  0.15000276462E+03  0.12509433674E+03 0.  0.
          5    1    3    3  502    0 -0.31897348903E+01 -0.52910118577E+02 -0.35541622880E+01  0.53289394124E+02  0.41800000000E+01 0.  1.
         -5    1    3    3    0  502  0.13937513720E+02  0.43585424791E+02  0.85100294298E+02  0.96713370495E+02  0.41800000000E+01 0.  1.
        -11    1    1    2    0    0  0.27031331466E+02 -0.51489416946E+01  0.34177939220E+02  0.43878650967E+02  0.00000000000E+00 0. -1.
         11    1    1    2    0    0 -0.37779110296E+02  0.14473635481E+02 -0.28185935036E+02  0.49307141802E+02  0.00000000000E+00 0.  1.
</event>
<event>
 7    1  0.3151015E-009  0.1406173E+03  0.7561462E-02  0.1212501E+00
          1   -1    0    0  501    0  0.00000000000E+00  0.00000000000E+00  0.10127329226E+04  0.10127329226E+04  0.00000000000E+00 0. -1.
         -1   -1    0    0    0  501 -0.00000000000E+00 -0.00000000000E+00 -0.33370671472E+02  0.33370671472E+02  0.00000000000E+00 0.  1.
         25    2    1    2    0    0  0.50225286900E+02 -0.44154093228E+02  0.79537523687E+03  0.80792305572E+03  0.12508290506E+03 0.  0.
          5    1    3    3  502    0  0.40074376190E+02 -0.87477905909E+02  0.50083329793E+03  0.51000961203E+03  0.41800000000E+01 0. -1.
         -5    1    3    3    0  502  0.10150910710E+02  0.43323812681E+02  0.29454193895E+03  0.29791344369E+03  0.41800000000E+01 0. -1.
        -11    1    1    2    0    0 -0.29652831955E+02  0.87425703986E+02  0.74361536557E+02  0.11854190094E+03  0.00000000000E+00 0.  1.
         11    1    1    2    0    0 -0.20572454946E+02 -0.43271610758E+02  0.10962547768E+03  0.11963863739E+03  0.00000000000E+00 0. -1.
</event>
<event>
 7    1  0.3151015E-009  0.1277761E+03  0.7561462E-02  0.1230793E+00
          1   -1    0    0  501    0  0.00000000000E+00  0.00000000000E+00  0.22016799902E+03  0.22016799902E+03  0.00000000000E+00 0. -1.
         -1   -1    0    0    0  501 -0.00000000000E+00 -0.00000000000E+00 -0.82325628921E+02  0.82325628921E+02  0.00000000000E+00 0.  1.
         25    2    1    2    0    0 -0.51257339895E+02 -0.63440796235E+02  0.66338095863E+02  0.16340024818E+03  0.12508736396E+03 0.  0.
          5    1    3    3  502    0 -0.70366075745E+02 -0.83081498453E+02  0.22068552391E+02  0.11116840111E+03  0.41800000000E+01 0. -1.
         -5    1    3    3    0  502  0.19108735849E+02  0.19640702218E+02  0.44269543472E+02  0.52231847073E+02  0.41800000000E+01 0. -1.
        -11    1    1    2    0    0 -0.22992998965E+02  0.31031180521E+01  0.94258400413E+01  0.25043039023E+02  0.00000000000E+00 0. -1.
         11    1    1    2    0    0  0.74250338860E+02  0.60337678182E+02  0.62078434193E+02  0.11405034073E+03  0.00000000000E+00 0.  1.
</event>
<event>
 7    1  0.3151015E-009  0.1107421E+03  0.7561462E-02  0.1259202E+00
          2   -1    0    0  501    0  0.00000000000E+00  0.00000000000E+00  0.19485374743E+02  0.19485374743E+02  0.00000000000E+00 0. -1.
         -2   -1    0    0    0  501 -0.00000000000E+00 -0.00000000000E+00 -0.72137817924E+03  0.72137817924E+03  0.00000000000E+00 0.  1.
         25    2    1    2    0    0 -0.33248564682E+02 -0.11908485694E+01 -0.47850691272E+03  0.49570633716E+03  0.12509605111E+03 0.  0.
          5    1    3    3  502    0  0.12627269901E+02 -0.51285324397E+02 -0.12593401699E+03  0.13662533249E+03  0.41800000000E+01 0.  1.
         -5    1    3    3    0  502 -0.45875834583E+02  0.50094475828E+02 -0.35257289574E+03  0.35908100467E+03  0.41800000000E+01 0.  1.
        -11    1    1    2    0    0  0.53428030563E+02 -0.31504991248E+02 -0.12520728951E+03  0.13972825151E+03  0.00000000000E+00 0.  1.
         11    1    1    2    0    0 -0.20179465881E+02  0.32695839817E+02 -0.98178602261E+02  0.10542896531E+03  0.00000000000E+00 0. -1.
</event>
<event>
 7    1  0.3151015E-009  0.1353532E+03  0.7561462E-02  0.1219722E+00
         -2   -1    0    0    0  501 -0.00000000000E+00  0.00000000000E+00  0.15360271556E+02  0.15360271556E+02  0.00000000000E+00 0.  1.
          2   -1    0    0  501    0  0.00000000000E+00 -0.00000000000E+00 -0.26432120450E+04  0.26432120450E+04  0.00000000000E+00 0. -1.
         25    2    1    2    0    0 -0.94157142573E+02 -0.52454504527E+02 -0.22291441577E+04  0.22352516579E+04  0.12509698568E+03 0.  0.
          5    1    3    3  502    0 -0.77449984574E+02 -0.91314702475E+02 -0.18089027419E+04  0.18128660946E+04  0.41800000000E+01 0.  1.
         -5    1    3    3    0  502 -0.16707157999E+02  0.38860197948E+02 -0.42024141581E+03  0.42238556329E+03  0.41800000000E+01 0.  1.
        -11    1    1    2    0    0  0.76086858304E+02  0.47337060984E+02 -0.39385837624E+03  0.40392378970E+03  0.00000000000E+00 0. -1.
         11    1    1    2    0    0  0.18070284269E+02  0.51174435429E+01 -0.48492395256E+01  0.19396868973E+02  0.00000000000E+00 0.  1.
</event>
<event>
 7    1  0.3151015E-009  0.1661484E+03  0.7561462E-02  0.1181925E+00
          2   -1    0    0  501    0  0.00000000000E+00  0.00000000000E+00  0.88795761462E+03  0.88795761462E+03  0.00000000000E+00 0. -1.
         -2   -1    0    0    0  501 -0.00000000000E+00 -0.00000000000E+00 -0.80041229683E+02  0.80041229683E+02  0.00000000000E+00 0.  1.
         25    2    1    2    0    0  0.61094681417E+01  0.14708412060E+03  0.63053968748E+02  0.20320895500E+03  0.12508801815E+03 0.  0.
          5    1    3    3  502    0 -0.25520782570E+02  0.93606036114E+02  0.92687278829E+02  0.13424531425E+03  0.41800000000E+01 0. -1.
         -5    1    3    3    0  502  0.31630250712E+02  0.53478084481E+02 -0.29633310081E+02  0.68963640755E+02  0.41800000000E+01 0. -1.
        -11    1    1    2    0    0 -0.44181728486E+02 -0.41277041720E+02  0.28976579881E+03  0.29600681996E+03  0.00000000000E+00 0. -1.
         11    1    1    2    0    0  0.38072260344E+02 -0.10580707888E+03  0.45509661738E+03  0.46878306934E+03  0.00000000000E+00 0.  1.
</event>
<event>
 7    1  0.3151015E-009  0.9027432E+02  0.7561462E-02  0.1302189E+00
          2   -1    0    0  501    0  0.00000000000E+00  0.00000000000E+00  0.27364964789E+02  0.27364964789E+02  0.00000000000E+00 0. -1.
         -2   -1    0    0    0  501 -0.00000000000E+00 -0.00000000000E+00 -0.43865362621E+03  0.43865362621E+03  0.00000000000E+00 0.  1.
         25    2    1    2    0    0  0.68947980333E+01 -0.26567198474E+01 -0.26362572911E+03  0.29189144266E+03  0.12508993904E+03 0.  0.
          5    1    3    3  502    0  0.30924815727E+02 -0.35836528413E+02 -0.33574408134E+02  0.58183453644E+02  0.41800000000E+01 0.  1.
         -5    1    3    3    0  502 -0.24030017694E+02  0.33179808565E+02 -0.23005132097E+03  0.23370798901E+03  0.41800000000E+01 0.  1.
        -11    1    1    2    0    0  0.39134611318E+02  0.18343209323E+02 -0.61118982640E+02  0.74856670847E+02  0.00000000000E+00 0. -1.
         11    1    1    2    0    0 -0.46029409351E+02 -0.15686489476E+02 -0.86543949675E+02  0.99270477497E+02  0.00000000000E+00 0.  1.
</event>
<event>
 7    1  0.3151015E-009  0.1204128E+03  0.7561462E-02  0.1242418E+00
          3   -1    0    0  501    0  0.00000000000E+00  0.00000000000E+00  0.18870652862E+03  0.18870652862E+03  0.00000000000E+00 0. -1.
         -3   -1    0    0    0  501 -0.00000000000E+00 -0.00000000000E+00 -0.83687558600E+02  0.83687558600E+02  0.00000000000E+00 0.  1.
         25    2    1    2    0    0  0.40535561525E+01  0.60369239007E+02  0.84095578616E+02  0.16242238672E+03  0.12509232202E+03 0.  0.
          5    1    3    3  502    0 -0.47518158889E+02  0.67546656506E+02  0.69936799421E+02  0.10830122133E+03  0.41800000000E+01 0.  1.
         -5    1    3    3    0  502  0.51571715041E+02 -0.71774174989E+01  0.14158779195E+02  0.54121165384E+02  0.41800000000E+01 0.  1.
        -11    1    1    2    0    0  0.29055923384E+02 -0.66183780929E+02  0.41418491755E+01  0.72399547349E+02  0.00000000000E+00 0. -1.
         11    1    1    2    0    0 -0.33109479537E+02  0.58145419225E+01  0.16781542228E+02  0.37572153152E+02  0.00000000000E+00 0.  1.
</event>
<event>
 7    1  0.3151015E-009  0.1018745E+03  0.7561462E-02  0.1276403E+00
          1   -1    0    0  501    0  0.00000000000E+00  0.00000000000E+00  0.73551165496E+03  0.73551165496E+03  0.00000000000E+00 0. -1.
         -1   -1    0    0    0  501 -0.00000000000E+00 -0.00000000000E+00 -0.30257688497E+02  0.30257688497E+02  0.00000000000E+00 0.  1.
         25    2    1    2    0    0  0.62252845542E+02 -0.15719302123E+02  0.58727017675E+03  0.60386783978E+03  0.12509034409E+03 0.  0.
          5    1    3    3  502    0  0.33621342433E+02  0.32326566917E+02  0.48476883697E+03  0.48702535796E+03  0.41800000000E+01 0. -1.
         -5    1    3    3    0  502  0.28631503109E+02 -0.48045869040E+02  0.10250133978E+03  0.11684248182E+03  0.41800000000E+01 0. -1.
        -11    1    1    2    0    0 -0.37278293489E+01 -0.27707954759E+02  0.64875172421E+01  0.28700441609E+02  0.00000000000E+00 0.  1.
         11    1    1    2    0    0 -0.58525016193E+02  0.43427256882E+02  0.11149627246E+03  0.13320106206E+03  0.00000000000E+00 0. -1.
</event>
<event>
 7    1  0.3151015E-009  0.3142578E+03  0.7561462E-02  0.1078323E+00
         -3   -1    0    0    0  501 -0.00000000000E+00  0.00000000000E+00  0.20313546952E+04  0.20313546952E+04  0.00000000000E+00 0.  1.
          3   -1    0    0  501    0  0.00000000000E+00 -0.00000000000E+00 -0.50610257732E+02  0.50610257732E+02  0.00000000000E+00 0. -1.
         25    2    1    2    0    0  0.23627526822E+03 -0.18397669446E+03  0.90200252393E+03  0.95860793038E+03  0.12508870668E+03 0.  0.
          5    1    3    3  502    0 -0.86325145288E+01 -0.30452123634E+02  0.14049361384E+03  0.14407560540E+03  0.41800000000E+01 0.  1.
         -5    1    3    3    0  502  0.24490778275E+03 -0.15352457082E+03  0.76150891009E+03  0.81453232498E+03  0.41800000000E+01 0.  1.
        -11    1    1    2    0    0 -0.21956464286E+03  0.13984017298E+03  0.81939826608E+03  0.85975428166E+03  0.00000000000E+00 0.  1.
         11    1    1    2    0    0 -0.16710625358E+02  0.44136521481E+02  0.25934364742E+03  0.26360274085E+03  0.00000000000E+00 0. -1.
</event>
<event>
 7    1  0.3151015E-009  0.8317974E+02  0.7561462E-02  0.1320263E+00
         -2   -1    0    0    0  501 -0.00000000000E+00  0.00000000000E+00  0.10988812233E+03  0.10988812233E+03  0.00000000000E+00 0. -1.
          2   -1    0    0  501    0  0.00000000000E+00 -0.00000000000E+00 -0.11710589432E+03  0.11710589432E+03  0.00000000000E+00 0.  1.
         25    2    1    2    0    0 -0.13680142647E+02  0.62139713894E+01 -0.33749516446E+02  0.13043147163E+03  0.12509028415E+03 0.  0.
          5    1    3    3  502    0  0.26894340970E+02  0.16311540989E+02 -0.68765764482E+02  0.75733577167E+02  0.41800000000E+01 0.  1.
         -5    1    3    3    0  502 -0.40574483617E+02 -0.10097569600E+02  0.35016248037E+02  0.54697894468E+02  0.41800000000E+01 0.  1.
        -11    1    1    2    0    0  0.45817121933E+02 -0.28080441170E+02  0.18794101748E+02  0.56929237647E+02  0.00000000000E+00 0.  1.
         11    1    1    2    0    0 -0.32136979287E+02  0.21866469781E+02  0.77376427060E+01  0.39633307369E+02  0.00000000000E+00 0. -1.
</event>
<event>
 7    1  0.3151015E-009  0.1287280E+03  0.7561462E-02  0.1229355E+00
         -1   -1    0    0    0  501 -0.00000000000E+00  0.00000000000E+00  0.22222599207E+02  0.22222599207E+02  0.00000000000E+00 0.  1.
          1   -1    0    0  501    0  0.00000000000E+00 -0.00000000000E+00 -0.84745641840E+03  0.84745641840E+03  0.00000000000E+00 0. -1.
         25    2    1    2    0    0  0.73425193238E+02 -0.39130731829E+02 -0.47657716279E+03  0.49969616061E+03  0.12509191683E+03 0.  0.
          5    1    3    3  502    0  0.20300748003E+02 -0.71189873314E+02 -0.15087066856E+03  0.16810576868E+03  0.41800000000E+01 0.  1.
         -5    1    3    3    0  502  0.53124445235E+02  0.32059141485E+02 -0.32570649423E+03  0.33159039193E+03  0.41800000000E+01 0.  1.
        -11    1    1    2    0    0 -0.89542839172E+02  0.49148150494E+02 -0.26057179631E+03  0.27987697615E+03  0.00000000000E+00 0.  1.
         11    1    1    2    0    0  0.16117645935E+02 -0.10017418665E+02 -0.88084860093E+02  0.90105880856E+02  0.00000000000E+00 0. -1.
</event>
<event>
 7    1  0.3151015E-009  0.5726085E+02  0.7561462E-02  0.1409700E+00
         -1   -1    0    0    0  501 -0.00000000000E+00  0.00000000000E+00  0.31635508139E+02  0.31635508139E+02  0.00000000000E+00 0.  1.
          1   -1    0    0  501    0  0.00000000000E+00 -0.00000000000E+00 -0.52395353624E+03  0.52395353624E+03  0.00000000000E+00 0. -1.
         25    2    1    2    0    0  0.17025366920E+02  0.25535074379E+02 -0.44322822054E+03  0.46156297324E+03  0.12508884699E+03 0.  0.
          5    1    3    3  502    0 -0.17401062412E+02  0.22721330087E+02 -0.41697345171E+03  0.41797534335E+03  0.41800000000E+01 0.  1.
         -5    1    3    3    0  502  0.34426429332E+02  0.28137442915E+01 -0.26254768830E+02  0.43587629895E+02  0.41800000000E+01 0.  1.
        -11    1    1    2    0    0 -0.11929975297E+02 -0.36669182731E+02  0.47125712602E+01  0.38847929168E+02  0.00000000000E+00 0.  1.
         11    1    1    2    0    0 -0.50953916227E+01  0.11134108352E+02 -0.53802378815E+02  0.55178141966E+02  0.00000000000E+00 0. -1.
</event>
<event>
 7    1  0.3151015E-009  0.1511214E+03  0.7561462E-02  0.1199102E+00
          1   -1    0    0  501    0  0.00000000000E+00  0.00000000000E+00  0.97042469046E+03  0.97042469046E+03  0.00000000000E+00 0. -1.
         -1   -1    0    0    0  501 -0.00000000000E+00 -0.00000000000E+00 -0.35273645654E+02  0.35273645654E+02  0.00000000000E+00 0.  1.
         25    2    1    2    0    0  0.14634765584E+03 -0.28332888743E+02  0.51377034560E+03  0.54939122550E+03  0.12510140562E+03 0.  0.
          5    1    3    3  502    0  0.10136062829E+03 -0.32914279556E+02  0.15734708377E+03  0.19008656959E+03  0.41800000000E+01 0. -1.
         -5    1    3    3    0  502  0.44987027546E+02  0.45813908134E+01  0.35642326183E+03  0.35930465591E+03  0.41800000000E+01 0. -1.
        -11    1    1    2    0    0 -0.45911424991E+02  0.17600893872E+02  0.26921325678E+03  0.27366663669E+03  0.00000000000E+00 0. -1.
         11    1    1    2    0    0 -0.10043623085E+03  0.10731994871E+02  0.15216744243E+03  0.18264047393E+03  0.00000000000E+00 0.  1.
</event>
<event>
 7    1  0.3151015E-009  0.1280541E+03  0.7561462E-02  0.1230372E+00
          3   -1    0    0  501    0  0.00000000000E+00  0.00000000000E+00  0.59672117542E+02  0.59672117542E+02  0.00000000000E+00 0. -1.
         -3   -1    0    0    0  501 -0.00000000000E+00 -0.00000000000E+00 -0.37680138128E+03  0.37680138128E+03  0.00000000000E+00 0.  1.
         25    2    1    2    0    0 -0.94990388661E+02 -0.78375623406E+01 -0.22457043013E+03  0.27416127744E+03  0.12509167294E+03 0.  0.
          5    1    3    3  502    0 -0.43289110758E+02 -0.56008344213E+02 -0.52900278717E+02  0.88469167624E+02  0.41800000000E+01 0. -1.
         -5    1    3    3    0  502 -0.51701277903E+02  0.48170781872E+02 -0.17167015141E+03  0.18569210982E+03  0.41800000000E+01 0. -1.
        -11    1    1    2    0    0  0.14528508159E+02 -0.23854979127E+02 -0.66286827474E+02  0.71931085596E+02  0.00000000000E+00 0.  1.
         11    1    1    2    0    0  0.80461880503E+02  0.31692541467E+02 -0.26272006131E+02  0.90381135780E+02  0.00000000000E+00 0. -1.
</event>
<event>
 7    1  0.3151015E-009  0.6596481E+02  0.7561462E-02  0.1374379E+00
          2   -1    0    0  501    0  0.00000000000E+00  0.00000000000E+00  0.27313412911E+03  0.27313412911E+03  0.00000000000E+00 0. -1.
         -2   -1    0    0    0  501 -0.00000000000E+00 -0.00000000000E+00 -0.44042740404E+02  0.44042740404E+02  0.00000000000E+00 0.  1.
         25    2    1    2    0    0  0.19783130800E+02  0.14252980861E+02  0.13956886709E+03  0.18899058260E+03  0.12507378591E+03 0.  0.
          5    1    3    3  502    0 -0.79356952374E+01  0.11806612944E+02  0.15580145896E+03  0.15650539410E+03  0.41800000000E+01 0.  1.
         -5    1    3    3    0  502  0.27718826038E+02  0.24463679170E+01 -0.16232591867E+02  0.32485188496E+02  0.41800000000E+01 0.  1.
        -11    1    1    2    0    0 -0.42053674332E+02  0.21200808865E+02  0.31593503393E+02  0.56710980224E+02  0.00000000000E+00 0.  1.
         11    1    1    2    0    0  0.22270543532E+02 -0.35453789726E+02  0.57929018223E+02  0.71475306697E+02  0.00000000000E+00 0. -1.
</event>
<event>
 7    1  0.3151015E-009  0.9841169E+02  0.7561462E-02  0.1283672E+00
         -1   -1    0    0    0  501 -0.00000000000E+00  0.00000000000E+00  0.23928084997E+02  0.23928084997E+02  0.00000000000E+00 0.  1.
          1   -1    0    0  501    0  0.00000000000E+00 -0.00000000000E+00 -0.67191044402E+03  0.67191044402E+03  0.00000000000E+00 0. -1.
         25    2    1    2    0    0  0.19320167334E+02  0.22229099899E+02 -0.56156648665E+03  0.57608302124E+03  0.12508927488E+03 0.  0.
          5    1    3    3  502    0  0.44844052717E+02  0.60874264775E+02 -0.42814991431E+03  0.43479476388E+03  0.41800000000E+01 0.  1.
         -5    1    3    3    0  502 -0.25523885383E+02 -0.38645164875E+02 -0.13341657234E+03  0.14128825736E+03  0.41800000000E+01 0.  1.
        -11    1    1    2    0    0 -0.27611967627E+02 -0.43637536647E+02 -0.32142084487E+02  0.60825726104E+02  0.00000000000E+00 0.  1.
         11    1    1    2    0    0  0.82918002935E+01  0.21408436748E+02 -0.54273787884E+02  0.58929781668E+02  0.00000000000E+00 0. -1.
</event>
<event>
 7    1  0.3151015E-009  0.6842391E+02  0.7561462E-02  0.1365536E+00
         -2   -1    0    0    0  501 -0.00000000000E+00  0.00000000000E+00  0.13586422469E+03  0.13586422469E+03  0.00000000000E+00 0.  1.
          2   -1    0    0  501    0  0.00000000000E+00 -0.00000000000E+00 -0.10739542175E+03  0.10739542175E+03  0.00000000000E+00 0. -1.
         25    2    1    2    0    0  0.30555505265E+02 -0.14998142086E+02  0.56423824831E+02  0.14138671833E+03  0.12509185802E+03 0.  0.
          5    1    3    3  502    0  0.11606580519E+02  0.25132684652E+02 -0.31905082428E+02  0.42447275931E+02  0.41800000000E+01 0. -1.
         -5    1    3    3    0  502  0.18948924746E+02 -0.40130826738E+02  0.88328907259E+02  0.98939442394E+02  0.41800000000E+01 0. -1.
        -11    1    1    2    0    0  0.12731946274E+02 -0.82187507770E+01 -0.46852772496E+02  0.49242589400E+02  0.00000000000E+00 0. -1.
         11    1    1    2    0    0 -0.43287451540E+02  0.23216892863E+02  0.18897750614E+02  0.52630338715E+02  0.00000000000E+00 0.  1.
</event>
<event>
 7    1  0.3151015E-009  0.2624176E+03  0.7561462E-02  0.1105699E+00
         -4   -1    0    0    0  501 -0.00000000000E+00  0.00000000000E+00  0.30056601468E+03  0.30056601468E+03  0.00000000000E+00 0.  1.
          4   -1    0    0  501    0  0.00000000000E+00 -0.00000000000E+00 -0.26166999645E+03  0.26166999645E+03  0.00000000000E+00 0. -1.
         25    2    1    2    0    0  0.13699481172E+03 -0.21202272458E+03 -0.34515458398E+02  0.28383111389E+03  0.12509024809E+03 0.  0.
          5    1    3    3  502    0  0.10745546834E+03 -0.19292410709E+03  0.16764346787E+02  0.22150599201E+03  0.41800000000E+01 0. -1.
         -5    1    3    3    0  502  0.29539343383E+02 -0.19098617487E+02 -0.51279805185E+02  0.62325121878E+02  0.41800000000E+01 0. -1.
        -11    1    1    2    0    0 -0.12839176638E+03  0.11879995071E+03  0.46651920025E+02  0.18103666922E+03  0.00000000000E+00 0.  1.
         11    1    1    2    0    0 -0.86030453436E+01  0.93222773875E+02  0.26759556604E+02  0.97368228020E+02  0.00000000000E+00 0. -1.
</event>
<event>
 7    1  0.3151015E-009  0.1231518E+03  0.7561462E-02  0.1237986E+00
          2   -1    0    0  501    0  0.00000000000E+00  0.00000000000E+00  0.71116512364E+02  0.71116512364E+02  0.00000000000E+00 0. -1.
         -2   -1    0    0    0  501 -0.00000000000E+00 -0.00000000000E+00 -0.38369061774E+03  0.38369061774E+03  0.00000000000E+00 0.  1.
         25    2    1    2    0    0  0.14272171727E+01  0.10658717693E+03 -0.25706005595E+03  0.30510748788E+03  0.12509134087E+03 0.  0.
          5    1    3    3  502    0  0.35730730264E+02  0.94628189489E+02 -0.94509307194E+02  0.13849426298E+03  0.41800000000E+01 0. -1.
         -5    1    3    3    0  502 -0.34303513092E+02  0.11958987441E+02 -0.16255074876E+03  0.16661322490E+03  0.41800000000E+01 0. -1.
        -11    1    1    2    0    0  0.91471448057E+01 -0.37002406723E+02 -0.68250643087E+02  0.78172876646E+02  0.00000000000E+00 0. -1.
         11    1    1    2    0    0 -0.10574361978E+02 -0.69584770207E+02  0.12736593661E+02  0.71526765578E+02  0.00000000000E+00 0.  1.
</event>
<event>
 7    1  0.3807801E-009  0.1859504E+03  0.7561462E-02  0.1162165E+00
         -1   -1    0    0    0  501 -0.00000000000E+00  0.00000000000E+00  0.60350665185E+02  0.60350665185E+02  0.00000000000E+00 0.  1.
          1   -1    0    0  501    0  0.00000000000E+00 -0.00000000000E+00 -0.75702719413E+03  0.75702719413E+03  0.00000000000E+00 0. -1.
         25    2    1    2    0    0 -0.69945342407E+02 -0.16969330346E+03 -0.35196536589E+03  0.41619379439E+03  0.12509791182E+03 0.  0.
          5    1    3    3  502    0 -0.48412263283E+02 -0.14902844955E+03 -0.35279052633E+03  0.38604644006E+03  0.41800000000E+01 0.  1.
         -5    1    3    3    0  502 -0.21533079124E+02 -0.20664853910E+02  0.82516044378E+00  0.30147354335E+02  0.41800000000E+01 0.  1.
        -11    1    1    2    0    0  0.35783961407E+02  0.57407521871E+02 -0.50473464705E+02  0.84401931854E+02  0.00000000000E+00 0.  1.
         11    1    1    2    0    0  0.34161381000E+02  0.11228578159E+03 -0.29423769835E+03  0.31678213306E+03  0.00000000000E+00 0. -1.
</event>
<event>
 7    1  0.3151015E-009  0.1549991E+03  0.7561462E-02  0.1194461E+00
          1   -1    0    0  501    0  0.00000000000E+00  0.00000000000E+00  0.41708802718E+02  0.41708802718E+02  0.00000000000E+00 0. -1.
         -1   -1    0    0    0  501 -0.00000000000E+00 -0.00000000000E+00 -0.62691849711E+03  0.62691849711E+03  0.00000000000E+00 0.  1.
         25    2    1    2    0    0 -0.25664408716E+02 -0.11692178803E+03 -0.31587715479E+03  0.36021598593E+03  0.12509121955E+03 0.  0.
          5    1    3    3  502    0  0.12211017296E+01 -0.13820062101E+03 -0.24349686113E+03  0.28001624331E+03  0.41800000000E+01 0. -1.
         -5    1    3    3    0  502 -0.26885510445E+02  0.21278832984E+02 -0.72380293667E+02  0.80199742620E+02  0.41800000000E+01 0. -1.
        -11    1    1    2    0    0  0.48710175925E+02  0.80201669572E+02 -0.23522273247E+03  0.25324834237E+03  0.00000000000E+00 0.  1.
         11    1    1    2    0    0 -0.23045767210E+02  0.36720118457E+02 -0.34109807121E+02  0.55162971526E+02  0.00000000000E+00 0. -1.
</event>
<event>
 7    1  0.3151015E-009  0.1240981E+03  0.7561462E-02  0.1236486E+00
         -2   -1    0    0    0  501 -0.00000000000E+00  0.00000000000E+00  0.12425121921E+02  0.12425121921E+02  0.00000000000E+00 0.  1.
          2   -1    0    0  501    0  0.00000000000E+00 -0.00000000000E+00 -0.14197000048E+04  0.14197000048E+04  0.00000000000E+00 0. -1.
         25    2    1    2    0    0  0.46944847883E+02 -0.41194379373E+02 -0.10132397960E+04  0.10228390983E+04  0.12507654086E+03 0.  0.
          5    1    3    3  502    0  0.72116367925E+02  0.16864741759E+02 -0.63519603212E+03  0.63951283150E+03  0.41800000000E+01 0.  1.
         -5    1    3    3    0  502 -0.25171520041E+02 -0.58059121132E+02 -0.37804376393E+03  0.38332626679E+03  0.41800000000E+01 0.  1.
        -11    1    1    2    0    0  0.14084113935E+02  0.47216387466E+02 -0.16744694166E+03  0.17454577561E+03  0.00000000000E+00 0.  1.
         11    1    1    2    0    0 -0.61028961818E+02 -0.60220080927E+01 -0.22658814521E+03  0.23474025286E+03  0.00000000000E+00 0. -1.
</event>
<event>
 7    1  0.3151015E-009  0.1050389E+03  0.7561462E-02  0.1270043E+00
         -1   -1    0    0    0  501 -0.00000000000E+00  0.00000000000E+00  0.15586804326E+02  0.15586804326E+02  0.00000000000E+00 0.  1.
          1   -1    0    0  501    0  0.00000000000E+00 -0.00000000000E+00 -0.81972230817E+03  0.81972230817E+03  0.00000000000E+00 0. -1.
         25    2    1    2    0    0  0.31050616238E+02 -0.31894220777E+01 -0.43955967901E+03  0.45807488813E+03  0.12508228708E+03 0.  0.
          5    1    3    3  502    0  0.67868245053E+02  0.20695061842E+02 -0.16021852642E+03  0.17527644702E+03  0.41800000000E+01 0. -1.
         -5    1    3    3    0  502 -0.36817628815E+02 -0.23884483920E+02 -0.27934115259E+03  0.28279844111E+03  0.41800000000E+01 0. -1.
        -11    1    1    2    0    0 -0.43146161605E+01 -0.42102025470E+02 -0.20114017828E+03  0.20554456397E+03  0.00000000000E+00 0. -1.
         11    1    1    2    0    0 -0.26736000078E+02  0.45291447547E+02 -0.16343564656E+03  0.17168966040E+03  0.00000000000E+00 0.  1.
</event>
<event>
 7    1  0.3151015E-009  0.1216813E+03  0.7561462E-02  0.1240349E+00
         -1   -1    0    0    0  501 -0.00000000000E+00  0.00000000000E+00  0.17574259127E+02  0.17574259127E+02  0.00000000000E+00 0.  1.
          1   -1    0    0  501    0  0.00000000000E+00 -0.00000000000E+00 -0.99520875709E+03  0.99520875709E+03  0.00000000000E+00 0. -1.
         25    2    1    2    0    0 -0.16825302354E+02  0.44560718723E+02 -0.66601784907E+03  0.67933848729E+03  0.12510897879E+03 0.  0.
          5    1    3    3  502    0  0.29114220313E+02 -0.31956514252E+02 -0.17907298949E+03  0.18426465910E+03  0.41800000000E+01 0.  1.
         -5    1    3    3    0  502 -0.45939522667E+02  0.76517232974E+02 -0.48694485958E+03  0.49507382819E+03  0.41800000000E+01 0.  1.
        -11    1    1    2    0    0  0.55825769180E+02 -0.44806330353E+02 -0.13754545455E+03  0.15505765318E+03  0.00000000000E+00 0.  1.
         11    1    1    2    0    0 -0.39000466827E+02  0.24561163032E+00 -0.17407119435E+03  0.17838687575E+03  0.00000000000E+00 0. -1.
</event>
<event>
 7    1  0.3151015E-009  0.9503075E+02  0.7561462E-02  0.1291107E+00
          2   -1    0    0  501    0  0.00000000000E+00  0.00000000000E+00  0.55948533285E+02  0.55948533285E+02  0.00000000000E+00 0. -1.
         -2   -1    0    0    0  501 -0.00000000000E+00 -0.00000000000E+00 -0.31312253456E+03  0.31312253456E+03  0.00000000000E+00 0.  1.
         25    2    1    2    0    0  0.67934132159E+02 -0.33689078155E+02 -0.14167901753E+03  0.20364487801E+03  0.12509313344E+03 0.  0.
          5    1    3    3  502    0  0.34919065988E+02 -0.17401901846E+02  0.15477135429E+02  0.42180344693E+02  0.41800000000E+01 0.  1.
         -5    1    3    3    0  502  0.33015066171E+02 -0.16287176309E+02 -0.15715615296E+03  0.16146453332E+03  0.41800000000E+01 0.  1.
        -11    1    1    2    0    0 -0.32296232565E+02 -0.27858876628E+02 -0.66716536644E+02  0.79184972733E+02  0.00000000000E+00 0. -1.
         11    1    1    2    0    0 -0.35637899593E+02  0.61547954783E+02 -0.48778447096E+02  0.86241217098E+02  0.00000000000E+00 0.  1.
</event>
<event>
 7    1  0.3151015E-009  0.9735783E+02  0.7561462E-02  0.1285952E+00
          1   -1    0    0  501    0  0.00000000000E+00  0.00000000000E+00  0.61944646092E+03  0.61944646092E+03  0.00000000000E+00 0. -1.
         -1   -1    0    0    0  501 -0.00000000000E+00 -0.00000000000E+00 -0.22114451975E+02  0.22114451975E+02  0.00000000000E+00 0.  1.
         25    2    1    2    0    0  0.22587070899E+02  0.25839964863E+02  0.41691525041E+03  0.43662702920E+03  0.12508779733E+03 0.  0.
          5    1    3    3  502    0 -0.38419441520E+02  0.26096487049E+00  0.29791862760E+03  0.30041488422E+03  0.41800000000E+01 0. -1.
         -5    1    3    3    0  502  0.61006512419E+02  0.25578999992E+02  0.11899662281E+03  0.13621214497E+03  0.41800000000E+01 0. -1.
        -11    1    1    2    0    0  0.68733258724E+01 -0.50744681781E+02  0.62117705459E+02  0.80503879839E+02  0.00000000000E+00 0.  1.
         11    1    1    2    0    0 -0.29460396771E+02  0.24904716918E+02  0.11829905307E+03  0.12443000386E+03  0.00000000000E+00 0. -1.
</event>
<event>
 7    1  0.3151015E-009  0.1098800E+03  0.7561462E-02  0.1260792E+00
         -1   -1    0    0    0  501 -0.00000000000E+00  0.00000000000E+00  0.14634368422E+03  0.14634368422E+03  0.00000000000E+00 0.  1.
          1   -1    0    0  501    0  0.00000000000E+00 -0.00000000000E+00 -0.94107271465E+02  0.94107271465E+02  0.00000000000E+00 0. -1.
         25    2    1    2    0    0 -0.31530122082E+02  0.14229279913E+02  0.32881480623E+01  0.12982495915E+03  0.12508831718E+03 0.  0.
          5    1    3    3  502    0  0.41566429552E+02 -0.20255529156E+02  0.13255259446E+02  0.48282800561E+02  0.41800000000E+01 0. -1.
         -5    1    3    3    0  502 -0.73096551634E+02  0.34484809068E+02 -0.99671113833E+01  0.81542158585E+02  0.41800000000E+01 0. -1.
        -11    1    1    2    0    0  0.61280423542E+02 -0.62402929293E+01  0.50689499530E+02  0.79772532415E+02  0.00000000000E+00 0.  1.
         11    1    1    2    0    0 -0.29750301460E+02 -0.79889869833E+01 -0.17412348324E+01  0.30853464129E+02  0.00000000000E+00 0. -1.
</event>
<event>
 7    1  0.3514384E-009  0.1045674E+03  0.7561462E-02  0.1270974E+00
          1   -1    0    0  501    0  0.00000000000E+00  0.00000000000E+00  0.45504394287E+03  0.45504394287E+03  0.00000000000E+00 0. -1.
         -1   -1    0    0    0  501 -0.00000000000E+00 -0.00000000000E+00 -0.31036576087E+02  0.31036576087E+02  0.00000000000E+00 0.  1.
         25    2    1    2    0    0 -0.46929367265E+02 -0.71436479387E+01  0.25741260714E+03  0.29010694841E+03  0.12508954387E+03 0.  0.
          5    1    3    3  502    0 -0.31783929922E+01  0.47462956045E+02  0.42063652737E+02  0.63636920574E+02  0.41800000000E+01 0.  1.
         -5    1    3    3    0  502 -0.43750974273E+02 -0.54606603984E+02  0.21534895440E+03  0.22647002784E+03  0.41800000000E+01 0.  1.
        -11    1    1    2    0    0  0.11057738610E+02 -0.34554836058E+02  0.24972694094E+02  0.44044815001E+02  0.00000000000E+00 0.  1.
         11    1    1    2    0    0  0.35871628655E+02  0.41698483996E+02  0.14162206555E+03  0.15192875555E+03  0.00000000000E+00 0. -1.
</event>
<event>
 7    1  0.3151015E-009  0.1154587E+03  0.7561462E-02  0.1250782E+00
          1   -1    0    0  501    0  0.00000000000E+00  0.00000000000E+00  0.49290509940E+03  0.49290509940E+03  0.00000000000E+00 0. -1.
         -1   -1    0    0    0  501 -0.00000000000E+00 -0.00000000000E+00 -0.27580789621E+02  0.27580789621E+02  0.00000000000E+00 0.  1.
         25    2    1    2    0    0  0.40092311136E+02 -0.17108145149E+02  0.24452738735E+03  0.27810179334E+03  0.12508749840E+03 0.  0.
          5    1    3    3  502    0  0.14645886771E+02  0.54105936742E+02  0.92169687852E+02  0.10795683466E+03  0.41800000000E+01 0. -1.
         -5    1    3    3    0  502  0.25446424365E+02 -0.71214081890E+02  0.15235769949E+03  0.17014495869E+03  0.41800000000E+01 0. -1.
        -11    1    1    2    0    0 -0.33706283346E+02 -0.33757715076E+02  0.89215136810E+02  0.10116836215E+03  0.00000000000E+00 0. -1.
         11    1    1    2    0    0 -0.63860277904E+01  0.50865860225E+02  0.13158178562E+03  0.14121573352E+03  0.00000000000E+00 0.  1.
</event>
<event>
 7    1  0.3151015E-009  0.1046160E+03  0.7561462E-02  0.1270878E+00
          1   -1    0    0  501    0  0.00000000000E+00  0.00000000000E+00  0.42863854753E+03  0.42863854753E+03  0.00000000000E+00 0. -1.
         -1   -1    0    0    0  501 -0.00000000000E+00 -0.00000000000E+00 -0.27746051769E+02  0.27746051769E+02  0.00000000000E+00 0.  1.
         25    2    1    2    0    0 -0.11859061769E+02 -0.15397894494E+02  0.22971306865E+03  0.26228404861E+03  0.12508835177E+03 0.  0.
          5    1    3    3  502    0 -0.65059169848E+02 -0.28837516998E+01  0.16524998942E+03  0.17766835118E+03  0.41800000000E+01 0.  1.
         -5    1    3    3    0  502  0.53200108079E+02 -0.12514142794E+02  0.64463079223E+02  0.84615697435E+02  0.41800000000E+01 0.  1.
        -11    1    1    2    0    0  0.17057057592E+02 -0.34769053795E+02  0.96541679641E+02  0.10401983572E+03  0.00000000000E+00 0.  1.
         11    1    1    2    0    0 -0.51979958226E+01  0.50166948290E+02  0.74637747476E+02  0.90080714971E+02  0.00000000000E+00 0. -1.
</event>
<event>
 7    1  0.3151015E-009  0.1190549E+03  0.7561462E-02  0.1244664E+00
         -1   -1    0    0    0  501 -0.00000000000E+00  0.00000000000E+00  0.14208897653E+03  0.14208897653E+03  0.00000000000E+00 0.  1.
          1   -1    0    0  501    0  0.00000000000E+00 -0.00000000000E+00 -0.15654838368E+03  0.15654838368E+03  0.00000000000E+00 0. -1.
         25    2    1    2    0    0  0.64427034358E+02 -0.67645813383E+02 -0.49316802927E+01  0.15619834461E+03  0.12508717985E+03 0.  0.
          5    1    3    3  502    0 -0.93207429236E+01 -0.91090570232E+01  0.46748383626E+02  0.48710727156E+02  0.41800000000E+01 0.  1.
         -5    1    3    3    0  502  0.73747777282E+02 -0.58536756360E+02 -0.51680063918E+02  0.10748761745E+03  0.41800000000E+01 0.  1.
        -11    1    1    2    0    0  0.52560009646E+01  0.59823703304E+02  0.24053246857E+02  0.64692037435E+02  0.00000000000E+00 0.  1.
         11    1    1    2    0    0 -0.69683035323E+02  0.78221100790E+01 -0.33580973715E+02  0.77746978163E+02  0.00000000000E+00 0. -1.
</event>
<event>
 7    1  0.3151015E-009  0.9666384E+02  0.7561462E-02  0.1287472E+00
          2   -1    0    0  501    0  0.00000000000E+00  0.00000000000E+00  0.66536481499E+02  0.66536481499E+02  0.00000000000E+00 0. -1.
         -2   -1    0    0    0  501 -0.00000000000E+00 -0.00000000000E+00 -0.21040754182E+03  0.21040754182E+03  0.00000000000E+00 0.  1.
         25    2    1    2    0    0 -0.76127348128E+01  0.24560304803E+02 -0.52410917344E+02  0.13800508935E+03  0.12504934277E+03 0.  0.
          5    1    3    3  502    0  0.57002022603E+02 -0.24935846449E+01 -0.18992424095E+02  0.60279624403E+02  0.41800000000E+01 0.  1.
         -5    1    3    3    0  502 -0.64614757416E+02  0.27053889448E+02 -0.33418493249E+02  0.77725464947E+02  0.41800000000E+01 0.  1.
        -11    1    1    2    0    0 -0.21148599412E+02 -0.29967563208E+02  0.60122019529E+01  0.37168059864E+02  0.00000000000E+00 0. -1.
         11    1    1    2    0    0  0.28761334225E+02  0.54072584051E+01 -0.97472344929E+02  0.10177087410E+03  0.00000000000E+00 0.  1.
</event>
<event>
 7    1  0.3151015E-009  0.3863498E+03  0.7561462E-02  0.1048611E+00
          2   -1    0    0  501    0  0.00000000000E+00  0.00000000000E+00  0.48542922715E+03  0.48542922715E+03  0.00000000000E+00 0. -1.
         -2   -1    0    0    0  501 -0.00000000000E+00 -0.00000000000E+00 -0.34658502987E+03  0.34658502987E+03  0.00000000000E+00 0.  1.
         25    2    1    2    0    0 -0.31116283490E+03  0.22082588014E+03  0.17527331401E+03  0.43812632276E+03  0.12509021116E+03 0.  0.
          5    1    3    3  502    0 -0.13420260595E+03  0.45041524576E+02  0.16876373606E+02  0.14262314948E+03  0.41800000000E+01 0.  1.
         -5    1    3    3    0  502 -0.17696022894E+03  0.17578435556E+03  0.15839694040E+03  0.29550317328E+03  0.41800000000E+01 0.  1.
        -11    1    1    2    0    0  0.23853670471E+03 -0.17265523323E+03 -0.66162303075E+02  0.30180629450E+03  0.00000000000E+00 0. -1.
         11    1    1    2    0    0  0.72626130185E+02 -0.48170646913E+02  0.29733186350E+02  0.92081639756E+02  0.00000000000E+00 0.  1.
</event>
<event>
 7    1  0.3151015E-009  0.1660617E+03  0.7561462E-02  0.1182018E+00
          3   -1    0    0  501    0  0.00000000000E+00  0.00000000000E+00  0.13351854748E+03  0.13351854748E+03  0.00000000000E+00 0. -1.
         -3   -1    0    0    0  501 -0.00000000000E+00 -0.00000000000E+00 -0.23747442152E+03  0.23747442152E+03  0.00000000000E+00 0.  1.
         25    2    1    2    0    0  0.31181509901E+02  0.12801841428E+03 -0.10789339435E+03  0.21130410585E+03  0.12508972639E+03 0.  0.
          5    1    3    3  502    0 -0.35970294127E+02  0.97814848874E+02 -0.83550027528E+02  0.13364013701E+03  0.41800000000E+01 0.  1.
         -5    1    3    3    0  502  0.67151804028E+02  0.30203565411E+02 -0.24343366818E+02  0.77663968839E+02  0.41800000000E+01 0.  1.
        -11    1    1    2    0    0  0.15228083724E+02 -0.97141458842E+02 -0.17673751363E+02  0.99903548721E+02  0.00000000000E+00 0.  1.
         11    1    1    2    0    0 -0.46409593625E+02 -0.30876955443E+02  0.21611271671E+02  0.59785314426E+02  0.00000000000E+00 0. -1.
</event>
<event>
 7    1  0.3151015E-009  0.3994066E+03  0.7561462E-02  0.1043985E+00
          2   -1    0    0  501    0  0.00000000000E+00  0.00000000000E+00  0.34071063450E+04  0.34071063450E+04  0.00000000000E+00 0. -1.
         -2   -1    0    0    0  501 -0.00000000000E+00 -0.00000000000E+00 -0.50231855347E+02  0.50231855347E+02  0.00000000000E+00 0.  1.
         25    2    1    2    0    0  0.23383073911E+03  0.31354385299E+03  0.20187368377E+04  0.20600810081E+04  0.12509507490E+03 0.  0.
          5    1    3    3  502    0 -0.35131285949E+01  0.10022934863E+02  0.11531713220E+02  0.16225107260E+02  0.41800000000E+01 0. -1.
         -5    1    3    3    0  502  0.23734386770E+03  0.30352091812E+03  0.20072051245E+04  0.20438559009E+04  0.41800000000E+01 0. -1.
        -11    1    1    2    0    0 -0.20100891822E+03 -0.19873119155E+03  0.95193169177E+03  0.99301189192E+03  0.00000000000E+00 0.  1.
         11    1    1    2    0    0 -0.32821820892E+02 -0.11481266144E+03  0.38620596017E+03  0.40424530031E+03  0.00000000000E+00 0. -1.
</event>
<event>
 7    1  0.3151015E-009  0.1065574E+03  0.7561462E-02  0.1267081E+00
         -2   -1    0    0    0  501 -0.00000000000E+00  0.00000000000E+00  0.36413320207E+02  0.36413320207E+02  0.00000000000E+00 0.  1.
          2   -1    0    0  501    0  0.00000000000E+00 -0.00000000000E+00 -0.36988138265E+03  0.36988138265E+03  0.00000000000E+00 0. -1.
         25    2    1    2    0    0 -0.18865596950E+00 -0.35241403722E+02 -0.15332951263E+03  0.20099564362E+03  0.12508923687E+03 0.  0.
          5    1    3    3  502    0  0.13112778895E+02  0.44320766533E+02 -0.76749130076E+02  0.89689334281E+02  0.41800000000E+01 0.  1.
         -5    1    3    3    0  502 -0.13301434864E+02 -0.79562170255E+02 -0.76580382557E+02  0.11130630933E+03  0.41800000000E+01 0.  1.
        -11    1    1    2    0    0  0.37384815998E+02  0.44583436465E+01 -0.13142771163E+03  0.13671409832E+03  0.00000000000E+00 0. -1.
         11    1    1    2    0    0 -0.37196160028E+02  0.30783060076E+02 -0.48710838183E+02  0.68584960924E+02  0.00000000000E+00 0.  1.
</event>
<event>
 7    1  0.3151015E-009  0.1188223E+03  0.7561462E-02  0.1245053E+00
         -3   -1    0    0    0  501 -0.00000000000E+00  0.00000000000E+00  0.27857709354E+02  0.27857709354E+02  0.00000000000E+00 0. -1.
          3   -1    0    0  501    0  0.00000000000E+00 -0.00000000000E+00 -0.74396076741E+03  0.74396076741E+03  0.00000000000E+00 0.  1.
         25    2    1    2    0    0  0.11126999545E+02  0.76209317903E+02 -0.54092625829E+03  0.56051780378E+03  0.12508925293E+03 0.  0.
          5    1    3    3  502    0  0.44154804677E+02  0.77537490867E+02 -0.21395244294E+03  0.23185087773E+03  0.41800000000E+01 0.  1.
         -5    1    3    3    0  502 -0.33027805132E+02 -0.13281729642E+01 -0.32697381535E+03  0.32866692605E+03  0.41800000000E+01 0.  1.
        -11    1    1    2    0    0 -0.20863082901E+02  0.13444394162E+02 -0.60638714314E+02  0.65521550929E+02  0.00000000000E+00 0.  1.
         11    1    1    2    0    0  0.97360833556E+01 -0.89653712065E+02 -0.11453808545E+03  0.14577912205E+03  0.00000000000E+00 0. -1.
</event>
<event>
 7    1  0.3151015E-009  0.1050015E+03  0.7561462E-02  0.1270117E+00
          1   -1    0    0  501    0  0.00000000000E+00  0.00000000000E+00  0.15954349164E+03  0.15954349164E+03  0.00000000000E+00 0. -1.
         -1   -1    0    0    0  501 -0.00000000000E+00 -0.00000000000E+00 -0.75580302490E+02  0.75580302490E+02  0.00000000000E+00 0.  1.
         25    2    1    2    0    0  0.10284161352E+02 -0.70693926003E+01  0.45195146018E+02  0.13358415352E+03  0.12508550900E+03 0.  0.
          5    1    3    3  502    0 -0.32043933900E+02  0.46851674605E+02  0.17660895429E+02  0.59592556082E+02  0.41800000000E+01 0. -1.
         -5    1    3    3    0  502  0.42328095253E+02 -0.53921067205E+02  0.27534250590E+02  0.73991597441E+02  0.41800000000E+01 0. -1.
        -11    1    1    2    0    0 -0.89304573127E+00  0.45164987376E+02 -0.16573636377E+01  0.45204208538E+02  0.00000000000E+00 0.  1.
         11    1    1    2    0    0 -0.93911156211E+01 -0.38095594776E+02  0.40425406772E+02  0.56335432071E+02  0.00000000000E+00 0. -1.
</event>
<event>
 7    1  0.3151015E-009  0.8408193E+02  0.7561462E-02  0.1317851E+00
         -2   -1    0    0    0  501 -0.00000000000E+00  0.00000000000E+00  0.29594957465E+02  0.29594957465E+02  0.00000000000E+00 0.  1.
          2   -1    0    0  501    0  0.00000000000E+00 -0.00000000000E+00 -0.45082985231E+03  0.45082985231E+03  0.00000000000E+00 0. -1.
         25    2    1    2    0    0 -0.10304071900E+02  0.34648975800E+02 -0.27600112808E+03  0.30516872191E+03  0.12507837825E+03 0.  0.
          5    1    3    3  502    0  0.32654765061E+02  0.17664256408E+02 -0.15297955016E+02  0.40371517972E+02  0.41800000000E+01 0. -1.
         -5    1    3    3    0  502 -0.42958836960E+02  0.16984719392E+02 -0.26070317307E+03  0.26479720394E+03  0.41800000000E+01 0. -1.
        -11    1    1    2    0    0 -0.30276110170E+02  0.11611584439E+01 -0.14151289940E+02  0.33440247351E+02  0.00000000000E+00 0.  1.
         11    1    1    2    0    0  0.40580182069E+02 -0.35810134244E+02 -0.13108247682E+03  0.14181584052E+03  0.00000000000E+00 0. -1.
</event>
<event>
 7    1  0.3151015E-009  0.1863082E+03  0.7561462E-02  0.1161834E+00
          1   -1    0    0  501    0  0.00000000000E+00  0.00000000000E+00  0.58534826750E+03  0.58534826750E+03  0.00000000000E+00 0. -1.
         -1   -1    0    0    0  501 -0.00000000000E+00 -0.00000000000E+00 -0.77162254395E+02  0.77162254395E+02  0.00000000000E+00 0.  1.
         25    2    1    2    0    0  0.12000832147E+03  0.10421109896E+03  0.12466427538E+03  0.23759424719E+03  0.12509154397E+03 0.  0.
          5    1    3    3  502    0 -0.12023876107E+02  0.61561462729E+02  0.47364525185E+02  0.78709960844E+02  0.41800000000E+01 0. -1.
         -5    1    3    3    0  502  0.13203219758E+03  0.42649636231E+02  0.77299750195E+02  0.15888428635E+03  0.41800000000E+01 0. -1.
        -11    1    1    2    0    0 -0.11029622684E+03 -0.59770276217E+02  0.20203034366E+03  0.23781085621E+03  0.00000000000E+00 0.  1.
         11    1    1    2    0    0 -0.97120946272E+01 -0.44440822743E+02  0.18149139407E+03  0.18710541849E+03  0.00000000000E+00 0. -1.
</event>
<event>
 7    1  0.3151015E-009  0.9939198E+02  0.7561462E-02  0.1281580E+00
          1   -1    0    0  501    0  0.00000000000E+00  0.00000000000E+00  0.29454251696E+03  0.29454251696E+03  0.00000000000E+00 0. -1.
         -1   -1    0    0    0  501 -0.00000000000E+00 -0.00000000000E+00 -0.57917421066E+02  0.57917421066E+02  0.00000000000E+00 0.  1.
         25    2    1    2    0    0 -0.67107297248E+02 -0.14475684051E+02  0.14999899792E+03  0.20702820915E+03  0.12509214697E+03 0.  0.
          5    1    3    3  502    0 -0.44715521024E+02  0.24394707545E+02  0.73541832743E+00  0.51113528706E+02  0.41800000000E+01 0.  1.
         -5    1    3    3    0  502 -0.22391776224E+02 -0.38870391596E+02  0.14926357959E+03  0.15591468044E+03  0.41800000000E+01 0.  1.
        -11    1    1    2    0    0  0.64766325585E+02 -0.20219134727E+02  0.87405798000E+02  0.11064928316E+03  0.00000000000E+00 0. -1.
         11    1    1    2    0    0  0.23409716631E+01  0.34694818778E+02 -0.77970002114E+00  0.34782445723E+02  0.00000000000E+00 0.  1.
</event>
<event>
 7    1  0.3151015E-009  0.1734165E+03  0.7561462E-02  0.1174331E+00
         -4   -1    0    0    0  501 -0.00000000000E+00  0.00000000000E+00  0.12820721168E+03  0.12820721168E+03  0.00000000000E+00 0.  1.
          4   -1    0    0  501    0  0.00000000000E+00 -0.00000000000E+00 -0.30316823471E+03  0.30316823471E+03  0.00000000000E+00 0. -1.
         25    2    1    2    0    0  0.94589321011E+02 -0.12819341090E+03 -0.13575884241E+03  0.24384219363E+03  0.12509141399E+03 0.  0.
          5    1    3    3  502    0  0.26442665543E+02 -0.65741325794E+02 -0.13360135709E+03  0.15128757879E+03  0.41800000000E+01 0. -1.
         -5    1    3    3    0  502  0.68146655469E+02 -0.62452085105E+02 -0.21574853176E+01  0.92554614841E+02  0.41800000000E+01 0. -1.
        -11    1    1    2    0    0 -0.89823338913E+01  0.88506914990E+02 -0.21609227450E+02  0.91548429992E+02  0.00000000000E+00 0.  1.
         11    1    1    2    0    0 -0.85606987120E+02  0.39686495909E+02 -0.17592953175E+02  0.95984822773E+02  0.00000000000E+00 0. -1.
</event>
<event>
 7    1  0.3151015E-009  0.6930571E+02  0.7561462E-02  0.1362470E+00
          1   -1    0    0  501    0  0.00000000000E+00  0.00000000000E+00  0.25039771909E+02  0.25039771909E+02  0.00000000000E+00 0. -1.
         -1   -1    0    0    0  501 -0.00000000000E+00 -0.00000000000E+00 -0.46406053123E+03  0.46406053123E+03  0.00000000000E+00 0.  1.
         25    2    1    2    0    0  0.21427841423E+02 -0.11909011126E+02 -0.25173310385E+03  0.28216645889E+03  0.12508948002E+03 0.  0.
          5    1    3    3  502    0  0.41517832655E+02  0.15321467591E+02 -0.21420413247E+02  0.49343533530E+02  0.41800000000E+01 0. -1.
         -5    1    3    3    0  502 -0.20089991232E+02 -0.27230478717E+02 -0.23031269060E+03  0.23282292536E+03  0.41800000000E+01 0. -1.
        -11    1    1    2    0    0 -0.20508745317E+02 -0.19701862311E+02 -0.16690410456E+03  0.16930963390E+03  0.00000000000E+00 0.  1.
         11    1    1    2    0    0 -0.91909610620E+00  0.31610873436E+02 -0.20383550917E+02  0.37624210358E+02  0.00000000000E+00 0. -1.
</event>
<event>
 7    1  0.3151015E-009  0.1108096E+03  0.7561462E-02  0.1259078E+00
         -1   -1    0    0    0  501 -0.00000000000E+00  0.00000000000E+00  0.28073331576E+03  0.28073331576E+03  0.00000000000E+00 0. -1.
          1   -1    0    0  501    0  0.00000000000E+00 -0.00000000000E+00 -0.11793625995E+03  0.11793625995E+03  0.00000000000E+00 0.  1.
         25    2    1    2    0    0  0.10034515315E+03  0.37161750192E+02  0.19478134322E+03  0.25502520467E+03  0.12509171799E+03 0.  0.
          5    1    3    3  502    0  0.81768941380E+02  0.12942986167E+02  0.20614667840E+03  0.22218822219E+03  0.41800000000E+01 0.  1.
         -5    1    3    3    0  502  0.18576211769E+02  0.24218764025E+02 -0.11365335176E+02  0.32836982478E+02  0.41800000000E+01 0.  1.
        -11    1    1    2    0    0 -0.98183423238E+01 -0.84348098985E+01 -0.45868069842E+02  0.47659476446E+02  0.00000000000E+00 0.  1.
         11    1    1    2    0    0 -0.90526810825E+02 -0.28726940294E+02  0.13883782422E+02  0.95984894599E+02  0.00000000000E+00 0. -1.
</event>
<event>
 7    1  0.3151015E-009  0.1102769E+03  0.7561462E-02  0.1260058E+00
         -2   -1    0    0    0  501 -0.00000000000E+00  0.00000000000E+00  0.11106296666E+03  0.11106296666E+03  0.00000000000E+00 0.  1.
          2   -1    0    0  501    0  0.00000000000E+00 -0.00000000000E+00 -0.11358834236E+03  0.11358834236E+03  0.00000000000E+00 0. -1.
         25    2    1    2    0    0 -0.13909444229E+02  0.23832316987E+02 -0.12674113111E+02  0.12872872791E+03  0.12509596426E+03 0.  0.
          5    1    3    3  502    0  0.18317342221E+02  0.67930900525E+02 -0.20480187958E+02  0.73396476557E+02  0.41800000000E+01 0.  1.
         -5    1    3    3    0  502 -0.32226786449E+02 -0.44098583538E+02  0.78060748466E+01  0.55332251350E+02  0.41800000000E+01 0.  1.
        -11    1    1    2    0    0  0.45435832151E+02 -0.39394126342E+02  0.43866764924E+01  0.60295563387E+02  0.00000000000E+00 0. -1.
         11    1    1    2    0    0 -0.31526387922E+02  0.15561809355E+02  0.57620609151E+01  0.35627017723E+02  0.00000000000E+00 0.  1.
</event>
<event>
 7    1  0.3151015E-009  0.1002151E+03  0.7561462E-02  0.1279844E+00
         -2   -1    0    0    0  501 -0.00000000000E+00  0.00000000000E+00  0.51166123225E+03  0.51166123225E+03  0.00000000000E+00 0. -1.
          2   -1    0    0  501    0  0.00000000000E+00 -0.00000000000E+00 -0.23540789739E+02  0.23540789739E+02  0.00000000000E+00 0.  1.
         25    2    1    2    0    0 -0.98919004193E+00 -0.95798333708E+01  0.24684930823E+03  0.27690398445E+03  0.12509390045E+03 0.  0.
          5    1    3    3  502    0  0.64994149310E+00  0.57415904243E+02  0.99024756847E+02  0.11454424190E+03  0.41800000000E+01 0.  1.
         -5    1    3    3    0  502 -0.16391315350E+01 -0.66995737614E+02  0.14782455138E+03  0.16235974255E+03  0.41800000000E+01 0.  1.
        -11    1    1    2    0    0 -0.24830441411E+01  0.42518775362E+02  0.57444782497E+02  0.71511641028E+02  0.00000000000E+00 0.  1.
         11    1    1    2    0    0  0.34722341831E+01 -0.32938941991E+02  0.18382635179E+03  0.18678639651E+03  0.00000000000E+00 0. -1.
</event>
<event>
 7    1  0.3151015E-009  0.1271775E+03  0.7561462E-02  0.1231705E+00
          3   -1    0    0  501    0  0.00000000000E+00  0.00000000000E+00  0.77287212682E+03  0.77287212682E+03  0.00000000000E+00 0. -1.
         -3   -1    0    0    0  501 -0.00000000000E+00 -0.00000000000E+00 -0.22031234257E+02  0.22031234257E+02  0.00000000000E+00 0.  1.
         25    2    1    2    0    0 -0.44736824685E+02 -0.54994485722E+02  0.35880640195E+03  0.38654531813E+03  0.12509784947E+03 0.  0.
          5    1    3    3  502    0  0.32467678672E+02  0.16946877497E+02  0.11732842071E+03  0.12298283426E+03  0.41800000000E+01 0.  1.
         -5    1    3    3    0  502 -0.77204503357E+02 -0.71941363219E+02  0.24147798124E+03  0.26356248387E+03  0.41800000000E+01 0.  1.
        -11    1    1    2    0    0  0.65682289124E+02  0.15975883984E+02  0.27607045200E+03  0.28422576667E+03  0.00000000000E+00 0. -1.
         11    1    1    2    0    0 -0.20945464439E+02  0.39018601738E+02  0.11596403861E+03  0.12413227627E+03  0.00000000000E+00 0.  1.
</event>
<event>
 7    1  0.3151015E-009  0.2338046E+03  0.7561462E-02  0.1123990E+00
         -1   -1    0    0    0  501 -0.00000000000E+00  0.00000000000E+00  0.43737156828E+02  0.43737156828E+02  0.00000000000E+00 0.  1.
          1   -1    0    0  501    0  0.00000000000E+00 -0.00000000000E+00 -0.16759915800E+04  0.16759915800E+04  0.00000000000E+00 0. -1.
         25    2    1    2    0    0 -0.53167702034E+02  0.22210058028E+03 -0.53224239963E+03  0.59252555549E+03  0.12509632149E+03 0.  0.
          5    1    3    3  502    0 -0.66631124284E+02  0.20107696706E+03 -0.52508803558E+03  0.56622130913E+03  0.41800000000E+01 0.  1.
         -5    1    3    3    0  502  0.13463422250E+02  0.21023613223E+02 -0.71543640451E+01  0.26304246359E+02  0.41800000000E+01 0.  1.
        -11    1    1    2    0    0  0.31085189982E+02 -0.18210681121E+03 -0.10042598881E+04  0.10211107200E+04  0.00000000000E+00 0. -1.
         11    1    1    2    0    0  0.22082512052E+02 -0.39993769067E+02 -0.95752135458E+02  0.10609246131E+03  0.00000000000E+00 0.  1.
</event>
<event>
 7    1  0.3151015E-009  0.1248827E+03  0.7561462E-02  0.1235253E+00
          1   -1    0    0  501    0  0.00000000000E+00  0.00000000000E+00  0.11167643787E+03  0.11167643787E+03  0.00000000000E+00 0. -1.
         -1   -1    0    0    0  501 -0.00000000000E+00 -0.00000000000E+00 -0.20502575801E+03  0.20502575801E+03  0.00000000000E+00 0.  1.
         25    2    1    2    0    0  0.10484342593E+03  0.18854440110E+01 -0.62277604190E+02  0.17470552478E+03  0.12509125288E+03 0.  0.
          5    1    3    3  502    0  0.30355976215E+02 -0.16307658264E+02  0.35983781607E+02  0.49997299415E+02  0.41800000000E+01 0.  1.
         -5    1    3    3    0  502  0.74487449710E+02  0.18193102275E+02 -0.98261385797E+02  0.12470822536E+03  0.41800000000E+01 0.  1.
        -11    1    1    2    0    0 -0.10899285514E+03  0.24367808375E+02 -0.21418775988E+02  0.11371893651E+03  0.00000000000E+00 0. -1.
         11    1    1    2    0    0  0.41494292150E+01 -0.26253252386E+02 -0.96529399557E+01  0.28277734588E+02  0.00000000000E+00 0.  1.
</event>
<event>
 7    1  0.3151015E-009  0.1053192E+03  0.7561462E-02  0.1269492E+00
          1   -1    0    0  501    0  0.00000000000E+00  0.00000000000E+00  0.83821027386E+03  0.83821027386E+03  0.00000000000E+00 0. -1.
         -1   -1    0    0    0  501 -0.00000000000E+00 -0.00000000000E+00 -0.15925001141E+02  0.15925001141E+02  0.00000000000E+00 0.  1.
         25    2    1    2    0    0 -0.28783830793E+01  0.31754591118E+02  0.54743630431E+03  0.56244985642E+03  0.12508674817E+03 0.  0.
          5    1    3    3  502    0 -0.33943506241E+02 -0.35891001780E+02  0.29849917215E+03  0.30258809262E+03  0.41800000000E+01 0. -1.
         -5    1    3    3    0  502  0.31065123162E+02  0.67645592897E+02  0.24893713216E+03  0.25986176380E+03  0.41800000000E+01 0. -1.
        -11    1    1    2    0    0 -0.14622905268E+02  0.23981455488E+02  0.35275503211E+02  0.45092135595E+02  0.00000000000E+00 0.  1.
         11    1    1    2    0    0  0.17501288347E+02 -0.55736046605E+02  0.23957346520E+03  0.24659328298E+03  0.00000000000E+00 0. -1.
</event>
<event>
 7    1  0.3151015E-009  0.9807380E+02  0.7561462E-02  0.1284399E+00
         -1   -1    0    0    0  501 -0.00000000000E+00  0.00000000000E+00  0.47147262542E+02  0.47147262542E+02  0.00000000000E+00 0.  1.
          1   -1    0    0  501    0  0.00000000000E+00 -0.00000000000E+00 -0.47024581049E+03  0.47024581049E+03  0.00000000000E+00 0. -1.
         25    2    1    2    0    0 -0.85480936419E+01 -0.45733796616E+02 -0.38745099004E+03  0.40979338116E+03  0.12509074908E+03 0.  0.
          5    1    3    3  502    0 -0.16204094303E+02 -0.83797128464E+02 -0.32576533705E+03  0.33678636943E+03  0.41800000000E+01 0.  1.
         -5    1    3    3    0  502  0.76560006616E+01  0.38063331848E+02 -0.61685652989E+02  0.73007011733E+02  0.41800000000E+01 0.  1.
        -11    1    1    2    0    0  0.19781810767E+02 -0.44030159449E+01 -0.50251896416E+02  0.54184496676E+02  0.00000000000E+00 0. -1.
         11    1    1    2    0    0 -0.11233717125E+02  0.50136812561E+02  0.14604338507E+02  0.53415195192E+02  0.00000000000E+00 0.  1.
</event>
<event>
 7    1  0.3151015E-009  0.1300823E+03  0.7561462E-02  0.1227334E+00
          2   -1    0    0  501    0  0.00000000000E+00  0.00000000000E+00  0.46497032336E+02  0.46497032336E+02  0.00000000000E+00 0. -1.
         -2   -1    0    0    0  501 -0.00000000000E+00 -0.00000000000E+00 -0.49066510121E+03  0.49066510121E+03  0.00000000000E+00 0.  1.
         25    2    1    2    0    0  0.16738869880E+02 -0.10054684119E+03 -0.19989940747E+03  0.25689869103E+03  0.12508919741E+03 0.  0.
          5    1    3    3  502    0 -0.40761720925E+02 -0.86384050112E+02 -0.86651297374E+02  0.12903349078E+03  0.41800000000E+01 0. -1.
         -5    1    3    3    0  502  0.57500590805E+02 -0.14162791076E+02 -0.11324811010E+03  0.12786520025E+03  0.41800000000E+01 0. -1.
        -11    1    1    2    0    0 -0.20393030208E+02  0.43697626420E+02 -0.26206177294E+02  0.54882802080E+02  0.00000000000E+00 0. -1.
         11    1    1    2    0    0  0.36541603285E+01  0.56849214768E+02 -0.21806248411E+03  0.22538064043E+03  0.00000000000E+00 0.  1.
</event>
<event>
 7    1  0.3151015E-009  0.6470208E+02  0.7561462E-02  0.1379096E+00
         -1   -1    0    0    0  501 -0.00000000000E+00  0.00000000000E+00  0.26331134835E+02  0.26331134835E+02  0.00000000000E+00 0.  1.
          1   -1    0    0  501    0  0.00000000000E+00 -0.00000000000E+00 -0.63957773855E+03  0.63957773855E+03  0.00000000000E+00 0. -1.
         25    2    1    2    0    0  0.40192509100E+02  0.42721355227E+01 -0.49761690263E+03  0.51468721067E+03  0.12508658648E+03 0.  0.
          5    1    3    3  502    0  0.73894745671E+01 -0.11641955384E+02 -0.46607161849E+03  0.46629429058E+03  0.41800000000E+01 0. -1.
         -5    1    3    3    0  502  0.32803034533E+02  0.15914090906E+02 -0.31545284134E+02  0.48392920092E+02  0.41800000000E+01 0. -1.
        -11    1    1    2    0    0 -0.55386744390E+02  0.11313759170E+02 -0.32324265554E+02  0.65119511241E+02  0.00000000000E+00 0.  1.
         11    1    1    2    0    0  0.15194235289E+02 -0.15585894692E+02 -0.83305435539E+02  0.86102151481E+02  0.00000000000E+00 0. -1.
</event>
<event>
 7    1  0.3151015E-009  0.6075130E+02  0.7561462E-02  0.1394706E+00
          1   -1    0    0  501    0  0.00000000000E+00  0.00000000000E+00  0.22927049999E+03  0.22927049999E+03  0.00000000000E+00 0. -1.
         -1   -1    0    0    0  501 -0.00000000000E+00 -0.00000000000E+00 -0.59119459062E+02  0.59119459062E+02  0.00000000000E+00 0.  1.
         25    2    1    2    0    0  0.33970941074E+02 -0.24953310500E+02  0.11531934055E+03  0.17527930366E+03  0.12509033314E+03 0.  0.
          5    1    3    3  502    0 -0.44946339094E+01  0.19405896295E+02  0.11461938909E+03  0.11641248773E+03  0.41800000000E+01 0. -1.
         -5    1    3    3    0  502  0.38465574984E+02 -0.44359206795E+02  0.69995146241E+00  0.58866815935E+02  0.41800000000E+01 0. -1.
        -11    1    1    2    0    0 -0.20426858529E+02  0.12926571854E+02  0.79166403456E+02  0.82774828574E+02  0.00000000000E+00 0. -1.
         11    1    1    2    0    0 -0.13544082545E+02  0.12026738645E+02 -0.24334703078E+02  0.30335826811E+02  0.00000000000E+00 0.  1.
</event>
<event>
 7    1  0.3151015E-009  0.1093624E+03  0.7561462E-02  0.1261755E+00
         -1   -1    0    0    0  501 -0.00000000000E+00  0.00000000000E+00  0.36067480866E+03  0.36067480866E+03  0.00000000000E+00 0.  1.
          1   -1    0    0  501    0  0.00000000000E+00 -0.00000000000E+00 -0.36036944967E+02  0.36036944967E+02  0.00000000000E+00 0. -1.
         25    2    1    2    0    0 -0.71905009020E+01  0.14430270279E+02  0.13138373572E+03  0.18212270580E+03  0.12508820069E+03 0.  0.
          5    1    3    3  502    0 -0.62055719786E+02  0.29040166301E+02  0.80224926589E+02  0.10558292884E+03  0.41800000000E+01 0. -1.
         -5    1    3    3    0  502  0.54865218884E+02 -0.14609896022E+02  0.51158809126E+02  0.76539776954E+02  0.41800000000E+01 0. -1.
        -11    1    1    2    0    0  0.31941586578E+02 -0.44138912661E+02  0.11853992274E+03  0.13046157230E+03  0.00000000000E+00 0. -1.
         11    1    1    2    0    0 -0.24751085676E+02  0.29708642381E+02  0.74714205233E+02  0.84127475523E+02  0.00000000000E+00 0.  1.
</event>
<event>
 7    1  0.3151015E-009  0.1305632E+03  0.7561462E-02  0.1226622E+00
          1   -1    0    0  501    0  0.00000000000E+00  0.00000000000E+00  0.33653846546E+03  0.33653846546E+03  0.00000000000E+00 0. -1.
         -1   -1    0    0    0  501 -0.00000000000E+00 -0.00000000000E+00 -0.61036944349E+02  0.61036944349E+02  0.00000000000E+00 0.  1.
         25    2    1    2    0    0  0.68473466864E+01 -0.90932954074E+02  0.12174022712E+03  0.19693551481E+03  0.12508887161E+03 0.  0.
          5    1    3    3  502    0  0.36297338769E+02  0.22730300597E+01 -0.48678487690E+01  0.36930093677E+02  0.41800000000E+01 0. -1.
         -5    1    3    3    0  502 -0.29449992082E+02 -0.93205984134E+02  0.12660807589E+03  0.16000542114E+03  0.41800000000E+01 0. -1.
        -11    1    1    2    0    0  0.64624924237E+01  0.10621746982E+03  0.11361169099E+03  0.15566480345E+03  0.00000000000E+00 0. -1.
         11    1    1    2    0    0 -0.13309839110E+02 -0.15284515745E+02  0.40149602992E+02  0.44975091541E+02  0.00000000000E+00 0.  1.
</event>
<event>
 7    1  0.3151015E-009  0.9406183E+02  0.7561462E-02  0.1293303E+00
         -2   -1    0    0    0  501 -0.00000000000E+00  0.00000000000E+00  0.14965179640E+02  0.14965179640E+02  0.00000000000E+00 0. -1.
          2   -1    0    0  501    0  0.00000000000E+00 -0.00000000000E+00 -0.10274963232E+04  0.10274963232E+04  0.00000000000E+00 0.  1.
         25    2    1    2    0    0  0.34216990080E+02 -0.47906388720E+02 -0.57859969240E+03  0.59488716676E+03  0.12508921873E+03 0.  0.
          5    1    3    3  502    0 -0.67156527043E+01 -0.39085836867E+02 -0.47058426277E+02  0.61682821908E+02  0.41800000000E+01 0. -1.
         -5    1    3    3    0  502  0.40932642784E+02 -0.88205518534E+01 -0.53154126612E+03  0.53320434486E+03  0.41800000000E+01 0. -1.
        -11    1    1    2    0    0  0.12060364813E+02  0.57628950033E+02 -0.18339646141E+03  0.19261570637E+03  0.00000000000E+00 0.  1.
         11    1    1    2    0    0 -0.46277354893E+02 -0.97225613126E+01 -0.25053498970E+03  0.25495862966E+03  0.00000000000E+00 0. -1.
</event>
<event>
 7    1  0.3151015E-009  0.3183237E+03  0.7561462E-02  0.1076423E+00
         -1   -1    0    0    0  501 -0.00000000000E+00  0.00000000000E+00  0.16769655584E+03  0.16769655584E+03  0.00000000000E+00 0.  1.
          1   -1    0    0  501    0  0.00000000000E+00 -0.00000000000E+00 -0.77623943001E+03  0.77623943001E+03  0.00000000000E+00 0. -1.
         25    2    1    2    0    0  0.24939552865E+03  0.17792400775E+03 -0.10729117765E+03  0.34787052291E+03  0.12508965449E+03 0.  0.
          5    1    3    3  502    0  0.45315348284E+02  0.86408486327E+02 -0.72166630936E+02  0.12143064819E+03  0.41800000000E+01 0.  1.
         -5    1    3    3    0  502  0.20408018037E+03  0.91515521424E+02 -0.35124546718E+02  0.22643987472E+03  0.41800000000E+01 0.  1.
        -11    1    1    2    0    0 -0.71336584330E+01 -0.31319141118E+02 -0.99446904569E+02  0.10450581090E+03  0.00000000000E+00 0. -1.
         11    1    1    2    0    0 -0.24226187022E+03 -0.14660486663E+03 -0.40180479195E+03  0.49155965204E+03  0.00000000000E+00 0.  1.
</event>
<event>
 7    1  0.3151015E-009  0.8260521E+02  0.7561462E-02  0.1321817E+00
         -1   -1    0    0    0  501 -0.00000000000E+00  0.00000000000E+00  0.11651641572E+02  0.11651641572E+02  0.00000000000E+00 0.  1.
          1   -1    0    0  501    0  0.00000000000E+00 -0.00000000000E+00 -0.10990699028E+04  0.10990699028E+04  0.00000000000E+00 0. -1.
         25    2    1    2    0    0  0.13881744875E+02  0.90026666863E+01 -0.98276794833E+03  0.99083451527E+03  0.12508575273E+03 0.  0.
          5    1    3    3  502    0  0.18903912822E+02 -0.51545585465E+02 -0.66554286933E+03  0.66781665794E+03  0.41800000000E+01 0. -1.
         -5    1    3    3    0  502 -0.50221679472E+01  0.60548252151E+02 -0.31722507900E+03  0.32301785733E+03  0.41800000000E+01 0. -1.
        -11    1    1    2    0    0 -0.13682148366E+02 -0.27518451553E+02 -0.93151997831E+02  0.98090575794E+02  0.00000000000E+00 0. -1.
         11    1    1    2    0    0 -0.19959650913E+00  0.18515784867E+02 -0.11498315094E+02  0.21796453335E+02  0.00000000000E+00 0.  1.
</event>
<event>
 7    1  0.3151015E-009  0.1030398E+03  0.7561462E-02  0.1274030E+00
          2   -1    0    0  501    0  0.00000000000E+00  0.00000000000E+00  0.11479426922E+03  0.11479426922E+03  0.00000000000E+00 0. -1.
         -2   -1    0    0    0  501 -0.00000000000E+00 -0.00000000000E+00 -0.33950331060E+03  0.33950331060E+03  0.00000000000E+00 0.  1.
         25    2    1    2    0    0  0.13566676161E+01 -0.27895119518E+02  0.68851937314E+02  0.14549120284E+03  0.12508845906E+03 0.  0.
          5    1    3    3  502    0  0.14100511524E+02  0.39857147336E+02  0.63255203700E+02  0.76197833395E+02  0.41800000000E+01 0. -1.
         -5    1    3    3    0  502 -0.12743843908E+02 -0.67752266854E+02  0.55967336141E+01  0.69293369441E+02  0.41800000000E+01 0. -1.
        -11    1    1    2    0    0  0.33180294508E+02  0.45062455307E+02 -0.14812272919E+03  0.15834108666E+03  0.00000000000E+00 0. -1.
         11    1    1    2    0    0 -0.34536962124E+02 -0.17167335789E+02 -0.14543824951E+03  0.15046529032E+03  0.00000000000E+00 0.  1.
</event>
<event>
 7    1  0.3151015E-009  0.1056467E+03  0.7561462E-02  0.1268851E+00
          2   -1    0    0  501    0  0.00000000000E+00  0.00000000000E+00  0.30660495828E+03  0.30660495828E+03  0.00000000000E+00 0. -1.
         -2   -1    0    0    0  501 -0.00000000000E+00 -0.00000000000E+00 -0.69094577264E+02  0.69094577264E+02  0.00000000000E+00 0.  1.
         25    2    1    2    0    0  0.97087443978E+00  0.79976840726E+02  0.19906868817E+03  0.24834232704E+03  0.12509328975E+03 0.  0.
          5    1    3    3  502    0  0.13237946751E+02  0.91726650680E+02  0.65333466061E+02  0.11346786270E+03  0.41800000000E+01 0. -1.
         -5    1    3    3    0  502 -0.12267072311E+02 -0.11749809954E+02  0.13373522211E+03  0.13487446434E+03  0.41800000000E+01 0. -1.
        -11    1    1    2    0    0  0.20431096620E+02 -0.24206008226E+01  0.42058395911E+02  0.46820910756E+02  0.00000000000E+00 0. -1.
         11    1    1    2    0    0 -0.21401971060E+02 -0.77556239904E+02 -0.36167030693E+01  0.80536297744E+02  0.00000000000E+00 0.  1.
</event>
<event>
 7    1  0.3151015E-009  0.9969965E+02  0.7561462E-02  0.1280929E+00
          3   -1    0    0  501    0  0.00000000000E+00  0.00000000000E+00  0.47391547452E+02  0.47391547452E+02  0.00000000000E+00 0. -1.
         -3   -1    0    0    0  501 -0.00000000000E+00 -0.00000000000E+00 -0.32097977451E+03  0.32097977451E+03  0.00000000000E+00 0.  1.
         25    2    1    2    0    0  0.15168052365E+02  0.16120433190E+02 -0.71817084152E+02  0.14592783999E+03  0.12508917910E+03 0.  0.
          5    1    3    3  502    0 -0.45576602915E+02 -0.22244693481E+01  0.51253983749E+01  0.46107668621E+02  0.41800000000E+01 0. -1.
         -5    1    3    3    0  502  0.60744655280E+02  0.18344902538E+02 -0.76942482527E+02  0.99820171366E+02  0.41800000000E+01 0. -1.
        -11    1    1    2    0    0  0.34666537389E+02 -0.19961988575E+02 -0.59939418799E+02  0.72062359998E+02  0.00000000000E+00 0. -1.
         11    1    1    2    0    0 -0.49834589754E+02  0.38415553854E+01 -0.14183172410E+03  0.15038112197E+03  0.00000000000E+00 0.  1.
</event>
<event>
 7    1  0.3151015E-009  0.9571049E+02  0.7561462E-02  0.1289584E+00
         -2   -1    0    0    0  501 -0.00000000000E+00  0.00000000000E+00  0.27932112968E+03  0.27932112968E+03  0.00000000000E+00 0.  1.
          2   -1    0    0  501    0  0.00000000000E+00 -0.00000000000E+00 -0.63310520257E+02  0.63310520257E+02  0.00000000000E+00 0. -1.
         25    2    1    2    0    0 -0.39207906507E+02  0.38792152205E+02  0.48932729434E+02  0.14520427823E+03  0.12509108442E+03 0.  0.
          5    1    3    3  502    0 -0.75774805720E+02  0.56140412994E+02  0.44224135888E+02  0.10424401061E+03  0.41800000000E+01 0. -1.
         -5    1    3    3    0  502  0.36566899213E+02 -0.17348260789E+02  0.47085935465E+01  0.40960267622E+02  0.41800000000E+01 0. -1.
        -11    1    1    2    0    0  0.15769853715E+02 -0.81371932367E+01 -0.70353716687E+01  0.19089228756E+02  0.00000000000E+00 0. -1.
         11    1    1    2    0    0  0.23438052792E+02 -0.30654958968E+02  0.17411325166E+03  0.17833814295E+03  0.00000000000E+00 0.  1.
</event>
<event>
 7    1  0.3151015E-009  0.8326965E+02  0.7561462E-02  0.1320021E+00
          2   -1    0    0  501    0  0.00000000000E+00  0.00000000000E+00  0.68493877269E+03  0.68493877269E+03  0.00000000000E+00 0. -1.
         -2   -1    0    0    0  501 -0.00000000000E+00 -0.00000000000E+00 -0.20170755678E+02  0.20170755678E+02  0.00000000000E+00 0.  1.
         25    2    1    2    0    0  0.39081283098E+02 -0.49303682068E+00  0.29418500053E+03  0.32205551776E+03  0.12508937687E+03 0.  0.
          5    1    3    3  502    0  0.38896409088E+02  0.32685159976E+02  0.37709860780E+02  0.63409434020E+02  0.41800000000E+01 0. -1.
         -5    1    3    3    0  502  0.18487400989E+00 -0.33178196797E+02  0.25647513975E+03  0.25864608374E+03  0.41800000000E+01 0. -1.
        -11    1    1    2    0    0  0.16626698669E+02 -0.16952228725E+02  0.34148610542E+02  0.41592700914E+02  0.00000000000E+00 0.  1.
         11    1    1    2    0    0 -0.55707981767E+02  0.17445265546E+02  0.33643440594E+03  0.34146130970E+03  0.00000000000E+00 0. -1.
</event>
<event>
 7    1  0.3151015E-009  0.1120493E+03  0.7561462E-02  0.1256821E+00
          4   -1    0    0  501    0  0.00000000000E+00  0.00000000000E+00  0.65031367002E+02  0.65031367002E+02  0.00000000000E+00 0. -1.
         -4   -1    0    0    0  501 -0.00000000000E+00 -0.00000000000E+00 -0.30689059447E+03  0.30689059447E+03  0.00000000000E+00 0.  1.
         25    2    1    2    0    0  0.52154913341E+02  0.43670450113E+02 -0.54336370270E+02  0.15240711098E+03  0.12509293803E+03 0.  0.
          5    1    3    3  502    0  0.64276479626E+02  0.80646010495E+02 -0.41089237282E+02  0.11109024558E+03  0.41800000000E+01 0.  1.
         -5    1    3    3    0  502 -0.12121566285E+02 -0.36975560382E+02 -0.13247132988E+02  0.41316865408E+02  0.41800000000E+01 0.  1.
        -11    1    1    2    0    0 -0.30760110476E+02  0.25028502538E+01 -0.65845311698E+01  0.31556373471E+02  0.00000000000E+00 0. -1.
         11    1    1    2    0    0 -0.21394802865E+02 -0.46173300367E+02 -0.18093832603E+03  0.18795847702E+03  0.00000000000E+00 0.  1.
</event>
<event>
 7    1  0.3151015E-009  0.1074510E+03  0.7561462E-02  0.1265364E+00
          1   -1    0    0  501    0  0.00000000000E+00  0.00000000000E+00  0.58387928204E+03  0.58387928204E+03  0.00000000000E+00 0. -1.
         -1   -1    0    0    0  501 -0.00000000000E+00 -0.00000000000E+00 -0.21465198258E+02  0.21465198258E+02  0.00000000000E+00 0.  1.
         25    2    1    2    0    0 -0.71691534013E+01  0.19292038971E+02  0.27227232478E+03  0.30033738950E+03  0.12508696641E+03 0.  0.
          5    1    3    3  502    0  0.16361834607E+02  0.68755834826E+02  0.17202897937E+03  0.18602826827E+03  0.41800000000E+01 0.  1.
         -5    1    3    3    0  502 -0.23530988009E+02 -0.49463795855E+02  0.10024334541E+03  0.11430912123E+03  0.41800000000E+01 0.  1.
        -11    1    1    2    0    0 -0.39205355977E+02 -0.71807479097E+00  0.17758192161E+03  0.18185960093E+03  0.00000000000E+00 0. -1.
         11    1    1    2    0    0  0.46374509379E+02 -0.18573964180E+02  0.11255983740E+03  0.12314748987E+03  0.00000000000E+00 0.  1.
</event>
<event>
 7    1  0.3151015E-009  0.8886257E+02  0.7561462E-02  0.1305630E+00
         -2   -1    0    0    0  501 -0.00000000000E+00  0.00000000000E+00  0.38423051679E+02  0.38423051679E+02  0.00000000000E+00 0.  1.
          2   -1    0    0  501    0  0.00000000000E+00 -0.00000000000E+00 -0.23937846324E+03  0.23937846324E+03  0.00000000000E+00 0. -1.
         25    2    1    2    0    0 -0.91409630615E+01  0.10098105946E+02 -0.12074220406E+03  0.17438834192E+03  0.12508830884E+03 0.  0.
          5    1    3    3  502    0 -0.51321760755E+01 -0.55684653669E+02 -0.76695128133E+02  0.95009130956E+02  0.41800000000E+01 0. -1.
         -5    1    3    3    0  502 -0.40087869859E+01  0.65782759615E+02 -0.44047075923E+02  0.79379210963E+02  0.41800000000E+01 0. -1.
        -11    1    1    2    0    0 -0.21207653286E+02  0.48888236693E+01 -0.60380968742E+02  0.64183537928E+02  0.00000000000E+00 0.  1.
         11    1    1    2    0    0  0.30348616347E+02 -0.14986929615E+02 -0.19832238758E+02  0.39229635069E+02  0.00000000000E+00 0. -1.
</event>
<event>
 7    1  0.3151015E-009  0.1216442E+03  0.7561462E-02  0.1240409E+00
         -2   -1    0    0    0  501 -0.00000000000E+00  0.00000000000E+00  0.71974124611E+02  0.71974124611E+02  0.00000000000E+00 0.  1.
          2   -1    0    0  501    0  0.00000000000E+00 -0.00000000000E+00 -0.35839342048E+03  0.35839342048E+03  0.00000000000E+00 0. -1.
         25    2    1    2    0    0  0.39519929159E+02  0.99498347274E+02 -0.21458113993E+03  0.27047073941E+03  0.12509040472E+03 0.  0.
          5    1    3    3  502    0  0.16499196477E+02  0.96381081818E+02 -0.22446995344E+03  0.24487909019E+03  0.41800000000E+01 0.  1.
         -5    1    3    3    0  502  0.23020732682E+02  0.31172654565E+01  0.98888135073E+01  0.25591649219E+02  0.41800000000E+01 0.  1.
        -11    1    1    2    0    0 -0.47546772687E+02 -0.41051264289E+02  0.50087086774E+01  0.63015784176E+02  0.00000000000E+00 0.  1.
         11    1    1    2    0    0  0.80268435274E+01 -0.58447082985E+02 -0.76846864613E+02  0.96881021502E+02  0.00000000000E+00 0. -1.
</event>
<event>
 7    1  0.3151015E-009  0.2159458E+03  0.7561462E-02  0.1136942E+00
          1   -1    0    0  501    0  0.00000000000E+00  0.00000000000E+00  0.24617677140E+03  0.24617677140E+03  0.00000000000E+00 0. -1.
         -1   -1    0    0    0  501 -0.00000000000E+00 -0.00000000000E+00 -0.19318676600E+03  0.19318676600E+03  0.00000000000E+00 0.  1.
         25    2    1    2    0    0  0.65144058888E+02  0.17684553152E+03  0.93870274930E+01  0.22639206528E+03  0.12508861063E+03 0.  0.
          5    1    3    3  502    0  0.10135094912E+03  0.11190484534E+03 -0.20410331533E+01  0.15105081103E+03  0.41800000000E+01 0. -1.
         -5    1    3    3    0  502 -0.36206890228E+02  0.64940686183E+02  0.11428060646E+02  0.75341254250E+02  0.41800000000E+01 0. -1.
        -11    1    1    2    0    0 -0.45238363150E+02 -0.18055554809E+03  0.48054238991E+02  0.19223949992E+03  0.00000000000E+00 0.  1.
         11    1    1    2    0    0 -0.19905695739E+02  0.37100165614E+01 -0.44512610894E+01  0.20731972193E+02  0.00000000000E+00 0. -1.
</event>
<event>
 7    1  0.3151015E-009  0.6518503E+02  0.7561462E-02  0.1377277E+00
         -1   -1    0    0    0  501 -0.00000000000E+00  0.00000000000E+00  0.23074365336E+02  0.23074365336E+02  0.00000000000E+00 0.  1.
          1   -1    0    0  501    0  0.00000000000E+00 -0.00000000000E+00 -0.65484698041E+03  0.65484698041E+03  0.00000000000E+00 0. -1.
         25    2    1    2    0    0  0.24865905684E+02 -0.28083874691E+02 -0.47707910247E+03  0.49463011228E+03  0.12508981046E+03 0.  0.
          5    1    3    3  502    0  0.33876272682E+02 -0.45913228487E+02 -0.87665769870E+02  0.10468230991E+03  0.41800000000E+01 0. -1.
         -5    1    3    3    0  502 -0.90103669977E+01  0.17829353796E+02 -0.38941333260E+03  0.38994780237E+03  0.41800000000E+01 0. -1.
        -11    1    1    2    0    0 -0.34272663946E+02  0.17143471751E+02 -0.16245093971E+03  0.16690962204E+03  0.00000000000E+00 0. -1.
         11    1    1    2    0    0  0.94067582619E+01  0.10940402940E+02  0.77574271048E+01  0.16381611422E+02  0.00000000000E+00 0.  1.
</event>
<event>
 7    1  0.3151015E-009  0.1127420E+03  0.7561462E-02  0.1255575E+00
         -2   -1    0    0    0  501 -0.00000000000E+00  0.00000000000E+00  0.36057688008E+03  0.36057688008E+03  0.00000000000E+00 0.  1.
          2   -1    0    0  501    0  0.00000000000E+00 -0.00000000000E+00 -0.39561401363E+02  0.39561401363E+02  0.00000000000E+00 0. -1.
         25    2    1    2    0    0  0.34056781134E+02  0.36631080637E+02  0.18595439592E+03  0.22962639542E+03  0.12509014230E+03 0.  0.
          5    1    3    3  502    0  0.70838802389E+02  0.56594987099E+02  0.10823619769E+03  0.14125747902E+03  0.41800000000E+01 0. -1.
         -5    1    3    3    0  502 -0.36782021256E+02 -0.19963906461E+02  0.77718198233E+02  0.88368916398E+02  0.41800000000E+01 0. -1.
        -11    1    1    2    0    0 -0.54370244305E+02 -0.45109086664E+02  0.12995403299E+03  0.14791552946E+03  0.00000000000E+00 0.  1.
         11    1    1    2    0    0  0.20313463172E+02  0.84780060267E+01  0.51070498036E+01  0.22596356563E+02  0.00000000000E+00 0. -1.
</event>
<event>
 7    1  0.3151015E-009  0.1248024E+03  0.7561462E-02  0.1235378E+00
         -1   -1    0    0    0  501 -0.00000000000E+00  0.00000000000E+00  0.69209704047E+02  0.69209704047E+02  0.00000000000E+00 0.  1.
          1   -1    0    0  501    0  0.00000000000E+00 -0.00000000000E+00 -0.27178097467E+03  0.27178097467E+03  0.00000000000E+00 0. -1.
         25    2    1    2    0    0  0.55580080305E+02  0.47215740546E+02 -0.16003581547E+03  0.21581691522E+03  0.12508799774E+03 0.  0.
          5    1    3    3  502    0 -0.36546766735E+02  0.31542701814E+02 -0.35536172850E+02  0.60090766157E+02  0.41800000000E+01 0. -1.
         -5    1    3    3    0  502  0.92126847040E+02  0.15673038733E+02 -0.12449964262E+03  0.15572614906E+03  0.41800000000E+01 0. -1.
        -11    1    1    2    0    0 -0.75697052910E+02 -0.42973211034E+02 -0.11293742617E+02  0.87774081073E+02  0.00000000000E+00 0.  1.
         11    1    1    2    0    0  0.20116972605E+02 -0.42425295124E+01 -0.31241712531E+02  0.37399682422E+02  0.00000000000E+00 0. -1.
</event>
<event>
 6    1  0.3151015E-009  0.1050801E+03  0.7561462E-02  0.1269962E+00
          2   -1    0    0  501    0  0.00000000000E+00  0.00000000000E+00  0.80850331617E+02  0.80850331617E+02  0.00000000000E+00 0. -1.
         -2   -1    0    0    0  501 -0.00000000000E+00 -0.00000000000E+00 -0.20648469540E+03  0.20648469540E+03  0.00000000000E+00 0.  1.
          5    1    1    2  502    0  0.11715054880E+02 -0.65690853693E+02 -0.51628283271E+02  0.84471787025E+02  0.41800000000E+01 0.  1.
         -5    1    1    2    0  502  0.46261794254E+02  0.38346876802E+02  0.12552014169E+02  0.61527733809E+02  0.41800000000E+01 0.  1.
        -11    1    1    2    0    0 -0.27862137813E+01 -0.13895407890E+02 -0.68721845936E+02  0.70167923273E+02  0.00000000000E+00 0.  1.
         11    1    1    2    0    0 -0.55190635352E+02  0.41239384781E+02 -0.17836248744E+02  0.71167582907E+02  0.00000000000E+00 0. -1.
</event>
<event>
 7    1  0.3151015E-009  0.1111213E+03  0.7561462E-02  0.1258507E+00
         -1   -1    0    0    0  501 -0.00000000000E+00  0.00000000000E+00  0.40715564058E+02  0.40715564058E+02  0.00000000000E+00 0.  1.
          1   -1    0    0  501    0  0.00000000000E+00 -0.00000000000E+00 -0.37644563060E+03  0.37644563060E+03  0.00000000000E+00 0. -1.
         25    2    1    2    0    0 -0.14318448243E+02 -0.56082929868E+02 -0.16328558838E+03  0.21368243817E+03  0.12509071919E+03 0.  0.
          5    1    3    3  502    0  0.20458942412E+02 -0.81474625684E+02 -0.14299711278E+03  0.16589855219E+03  0.41800000000E+01 0.  1.
         -5    1    3    3    0  502 -0.34777390655E+02  0.25391695817E+02 -0.20288475595E+02  0.47783885978E+02  0.41800000000E+01 0.  1.
        -11    1    1    2    0    0  0.41230334301E+02  0.11513847782E+02 -0.12818703121E+03  0.13514593641E+03  0.00000000000E+00 0. -1.
         11    1    1    2    0    0 -0.26911886058E+02  0.44569082085E+02 -0.44257446956E+02  0.68332820081E+02  0.00000000000E+00 0.  1.
</event>
<event>
 7    1  0.3151015E-009  0.1069288E+03  0.7561462E-02  0.1266365E+00
         -1   -1    0    0    0  501 -0.00000000000E+00  0.00000000000E+00  0.39454869344E+03  0.39454869344E+03  0.00000000000E+00 0.  1.
          1   -1    0    0  501    0  0.00000000000E+00 -0.00000000000E+00 -0.29738011744E+02  0.29738011744E+02  0.00000000000E+00 0. -1.
         25    2    1    2    0    0 -0.74692810419E+01  0.15619128097E+02  0.21492318031E+03  0.24927548062E+03  0.12508614823E+03 0.  0.
          5    1    3    3  502    0 -0.63452523822E+02  0.21458785401E+02  0.14200061249E+03  0.15706160765E+03  0.41800000000E+01 0. -1.
         -5    1    3    3    0  502  0.55983242780E+02 -0.58396573032E+01  0.72922567828E+02  0.92213872970E+02  0.41800000000E+01 0. -1.
        -11    1    1    2    0    0  0.32283601249E+02  0.26265887972E+02  0.66336079083E+02  0.78310939011E+02  0.00000000000E+00 0. -1.
         11    1    1    2    0    0 -0.24814320207E+02 -0.41885016070E+02  0.83551422300E+02  0.96700285557E+02  0.00000000000E+00 0.  1.
</event>
<event>
 7    1  0.3151015E-009  0.1000214E+03  0.7561462E-02  0.1280251E+00
         -2   -1    0    0    0  501 -0.00000000000E+00  0.00000000000E+00  0.95200722753E+02  0.95200722753E+02  0.00000000000E+00 0.  1.
          2   -1    0    0  501    0  0.00000000000E+00 -0.00000000000E+00 -0.19226747529E+03  0.19226747529E+03  0.00000000000E+00 0. -1.
         25    2    1    2    0    0 -0.37558550893E+02 -0.26302983268E+02 -0.12344997160E+03  0.18163350270E+03  0.12509333373E+03 0.  0.
          5    1    3    3  502    0  0.17873396577E+02  0.38926926149E+02 -0.64773962425E+02  0.77768261475E+02  0.41800000000E+01 0. -1.
         -5    1    3    3    0  502 -0.55431947470E+02 -0.65229909417E+02 -0.58676009173E+02  0.10386524123E+03  0.41800000000E+01 0. -1.
        -11    1    1    2    0    0  0.14315998210E+02  0.41252777766E+02  0.52172922002E+02  0.68034941526E+02  0.00000000000E+00 0.  1.
         11    1    1    2    0    0  0.23242552682E+02 -0.14949794499E+02 -0.25789702944E+02  0.37799753818E+02  0.00000000000E+00 0. -1.
</event>
<event>
 7    1  0.3151015E-009  0.1219771E+03  0.7561462E-02  0.1239871E+00
         -2   -1    0    0    0  501 -0.00000000000E+00  0.00000000000E+00  0.48853792749E+02  0.48853792749E+02  0.00000000000E+00 0. -1.
          2   -1    0    0  501    0  0.00000000000E+00 -0.00000000000E+00 -0.42793797709E+03  0.42793797709E+03  0.00000000000E+00 0.  1.
         25    2    1    2    0    0 -0.31727535830E+02 -0.84217202637E+02 -0.16886640414E+03  0.22860892512E+03  0.12508798682E+03 0.  0.
          5    1    3    3  502    0 -0.53880747176E+02 -0.92752581228E+02 -0.73146192598E+02  0.12990001591E+03  0.41800000000E+01 0. -1.
         -5    1    3    3    0  502  0.22153211346E+02  0.85353785909E+01 -0.95720211543E+02  0.98708909215E+02  0.41800000000E+01 0. -1.
        -11    1    1    2    0    0 -0.20548006589E+02  0.13607036522E+02 -0.52753690494E+01  0.25203204881E+02  0.00000000000E+00 0.  1.
         11    1    1    2    0    0  0.52275542419E+02  0.70610166115E+02 -0.20494241115E+03  0.22297963984E+03  0.00000000000E+00 0. -1.
</event>
<event>
 7    1  0.3151015E-009  0.2674632E+03  0.7561462E-02  0.1102740E+00
         -3   -1    0    0    0  501 -0.00000000000E+00  0.00000000000E+00  0.83917980233E+03  0.83917980233E+03  0.00000000000E+00 0.  1.
          3   -1    0    0  501    0  0.00000000000E+00 -0.00000000000E+00 -0.10075180399E+03  0.10075180399E+03  0.00000000000E+00 0. -1.
         25    2    1    2    0    0 -0.25891107500E+03 -0.53935943829E+02  0.29692273167E+03  0.41684125288E+03  0.12509792455E+03 0.  0.
          5    1    3    3  502    0 -0.52010956977E+02  0.98349523988E+01  0.13909000957E+03  0.14888038520E+03  0.41800000000E+01 0. -1.
         -5    1    3    3    0  502 -0.20690011802E+03 -0.63770896228E+02  0.15783272210E+03  0.26796086768E+03  0.41800000000E+01 0. -1.
        -11    1    1    2    0    0  0.92142570191E+02  0.90858375410E+01  0.24264944168E+03  0.25971437625E+03  0.00000000000E+00 0.  1.
         11    1    1    2    0    0  0.16676850481E+03  0.44850106288E+02  0.19885582499E+03  0.26337597719E+03  0.00000000000E+00 0. -1.
</event>
<event>
 7    1  0.3151015E-009  0.1047658E+03  0.7561462E-02  0.1270582E+00
         -1   -1    0    0    0  501 -0.00000000000E+00  0.00000000000E+00  0.16318403807E+02  0.16318403807E+02  0.00000000000E+00 0.  1.
          1   -1    0    0  501    0  0.00000000000E+00 -0.00000000000E+00 -0.86227507102E+03  0.86227507102E+03  0.00000000000E+00 0. -1.
         25    2    1    2    0    0  0.29489693468E+02  0.42424878533E+01 -0.61115256002E+03  0.62453342825E+03  0.12508761196E+03 0.  0.
          5    1    3    3  502    0 -0.41158634928E+02  0.31354701202E+02 -0.21319552843E+03  0.21942414694E+03  0.41800000000E+01 0.  1.
         -5    1    3    3    0  502  0.70648328395E+02 -0.27112213349E+02 -0.39795703158E+03  0.40510928131E+03  0.41800000000E+01 0.  1.
        -11    1    1    2    0    0 -0.38350259017E+02  0.28585435001E+02 -0.19906083755E+03  0.20472685830E+03  0.00000000000E+00 0. -1.
         11    1    1    2    0    0  0.88605655495E+01 -0.32827922855E+02 -0.35743269640E+02  0.49333188275E+02  0.00000000000E+00 0.  1.
</event>
<event>
 7    1  0.3151015E-009  0.1703786E+03  0.7561462E-02  0.1177454E+00
         -2   -1    0    0    0  501 -0.00000000000E+00  0.00000000000E+00  0.51628175277E+02  0.51628175277E+02  0.00000000000E+00 0.  1.
          2   -1    0    0  501    0  0.00000000000E+00 -0.00000000000E+00 -0.10334993724E+04  0.10334993724E+04  0.00000000000E+00 0. -1.
         25    2    1    2    0    0  0.15467917581E+03  0.48327396816E+01 -0.81728693237E+03  0.84116160943E+03  0.12508365417E+03 0.  0.
          5    1    3    3  502    0  0.12642626344E+03 -0.18390000215E+02 -0.77335001161E+03  0.78384278083E+03  0.41800000000E+01 0.  1.
         -5    1    3    3    0  502  0.28252912372E+02  0.23222739897E+02 -0.43936920763E+02  0.57318828599E+02  0.41800000000E+01 0.  1.
        -11    1    1    2    0    0 -0.45430875631E+02 -0.40843646055E+02 -0.33898527132E+02  0.69866143628E+02  0.00000000000E+00 0.  1.
         11    1    1    2    0    0 -0.10924830018E+03  0.36010906374E+02 -0.13068573759E+03  0.17409979460E+03  0.00000000000E+00 0. -1.
</event>
<event>
 7    1  0.3151015E-009  0.9716869E+02  0.7561462E-02  0.1286365E+00
         -2   -1    0    0    0  501 -0.00000000000E+00  0.00000000000E+00  0.11141838072E+03  0.11141838072E+03  0.00000000000E+00 0.  1.
          2   -1    0    0  501    0  0.00000000000E+00 -0.00000000000E+00 -0.11447887468E+03  0.11447887468E+03  0.00000000000E+00 0. -1.
         25    2    1    2    0    0  0.94571311262E+01  0.25110120067E+02 -0.21831206937E+02  0.12978477739E+03  0.12509009308E+03 0.  0.
          5    1    3    3  502    0  0.54023690333E+02  0.22071967520E+02 -0.49870616022E+02  0.76878355926E+02  0.41800000000E+01 0.  1.
         -5    1    3    3    0  502 -0.44566559207E+02  0.30381525469E+01  0.28039409085E+02  0.52906421466E+02  0.41800000000E+01 0.  1.
        -11    1    1    2    0    0 -0.37877403130E+01  0.32678878265E+02  0.19109435275E+02  0.38045059836E+02  0.00000000000E+00 0.  1.
         11    1    1    2    0    0 -0.56693908132E+01 -0.57788998332E+02 -0.33872229799E+00  0.58067418173E+02  0.00000000000E+00 0. -1.
</event>
<event>
 7    1  0.3151015E-009  0.9505923E+02  0.7561462E-02  0.1291043E+00
          1   -1    0    0  501    0  0.00000000000E+00  0.00000000000E+00  0.98180421062E+03  0.98180421062E+03  0.00000000000E+00 0. -1.
         -1   -1    0    0    0  501 -0.00000000000E+00 -0.00000000000E+00 -0.13846300623E+02  0.13846300623E+02  0.00000000000E+00 0.  1.
         25    2    1    2    0    0 -0.25014526753E+02 -0.20129368367E+02  0.64029573348E+03  0.65319004979E+03  0.12509075429E+03 0.  0.
          5    1    3    3  502    0 -0.37259662107E+02 -0.47358545892E+02  0.14635188538E+03  0.15832706984E+03  0.41800000000E+01 0.  1.
         -5    1    3    3    0  502  0.12245135355E+02  0.27229177525E+02  0.49394384810E+03  0.49486297995E+03  0.41800000000E+01 0.  1.
        -11    1    1    2    0    0  0.55717856728E+02  0.34640333607E+02  0.21311425374E+03  0.22298456766E+03  0.00000000000E+00 0.  1.
         11    1    1    2    0    0 -0.30703329975E+02 -0.14510965239E+02  0.11454792278E+03  0.11947589379E+03  0.00000000000E+00 0. -1.
</event>
<event>
 7    1  0.3151015E-009  0.1012885E+03  0.7561462E-02  0.1277609E+00
         -2   -1    0    0    0  501 -0.00000000000E+00  0.00000000000E+00  0.36996620832E+02  0.36996620832E+02  0.00000000000E+00 0.  1.
          2   -1    0    0  501    0  0.00000000000E+00 -0.00000000000E+00 -0.36556748046E+03  0.36556748046E+03  0.00000000000E+00 0. -1.
         25    2    1    2    0    0  0.11106228808E+02 -0.30574452165E+02 -0.22047614221E+03  0.25557225131E+03  0.12509716587E+03 0.  0.
          5    1    3    3  502    0  0.61473996559E+02 -0.42469081283E+02 -0.10477909335E+03  0.12875871202E+03  0.41800000000E+01 0.  1.
         -5    1    3    3    0  502 -0.50367767751E+02  0.11894629118E+02 -0.11569704886E+03  0.12681353929E+03  0.41800000000E+01 0.  1.
        -11    1    1    2    0    0 -0.34412452536E+02  0.38090255451E+02 -0.19233170616E+02  0.54817873927E+02  0.00000000000E+00 0.  1.
         11    1    1    2    0    0  0.23306223728E+02 -0.75158032860E+01 -0.88861546797E+02  0.92173976060E+02  0.00000000000E+00 0. -1.
</event>
<event>
 7    1  0.3151015E-009  0.1186220E+03  0.7561462E-02  0.1245388E+00
          2   -1    0    0  501    0  0.00000000000E+00  0.00000000000E+00  0.15162965373E+03  0.15162965373E+03  0.00000000000E+00 0. -1.
         -2   -1    0    0    0  501 -0.00000000000E+00 -0.00000000000E+00 -0.14699512824E+03  0.14699512824E+03  0.00000000000E+00 0.  1.
         25    2    1    2    0    0 -0.48120832657E+01 -0.92924510582E+02 -0.38883571289E+02  0.16067821814E+03  0.12508971523E+03 0.  0.
          5    1    3    3  502    0 -0.12332440934E-01 -0.98069021670E+02 -0.75072522549E+02  0.12357543933E+03  0.41800000000E+01 0. -1.
         -5    1    3    3    0  502 -0.47997508247E+01  0.51445110874E+01  0.36188951260E+02  0.37102778812E+02  0.41800000000E+01 0. -1.
        -11    1    1    2    0    0 -0.38196031306E+02  0.13373936878E+02  0.13298791611E+02  0.42598789342E+02  0.00000000000E+00 0.  1.
         11    1    1    2    0    0  0.43008114571E+02  0.79550573704E+02  0.30219305164E+02  0.95347774490E+02  0.00000000000E+00 0. -1.
</event>
<event>
 7    1  0.3248346E-009  0.1028366E+03  0.7561462E-02  0.1274442E+00
         -2   -1    0    0    0  501 -0.00000000000E+00  0.00000000000E+00  0.43540714417E+02  0.43540714417E+02  0.00000000000E+00 0.  1.
          2   -1    0    0  501    0  0.00000000000E+00 -0.00000000000E+00 -0.54269004800E+03  0.54269004800E+03  0.00000000000E+00 0. -1.
         25    2    1    2    0    0 -0.90363069225E+02 -0.14701339155E+02 -0.15732081698E+03  0.22085953348E+03  0.12508988936E+03 0.  0.
          5    1    3    3  502    0 -0.91656012567E+02 -0.82532347064E+01 -0.17708568671E+03  0.19961401093E+03  0.41800000000E+01 0. -1.
         -5    1    3    3    0  502  0.12929433422E+01 -0.64481044484E+01  0.19764869722E+02  0.21245522554E+02  0.41800000000E+01 0. -1.
        -11    1    1    2    0    0  0.29761580111E+02 -0.20064480720E+02 -0.33064982215E+02  0.48801927074E+02  0.00000000000E+00 0.  1.
         11    1    1    2    0    0  0.60601489114E+02  0.34765819875E+02 -0.30876353438E+03  0.31656930186E+03  0.00000000000E+00 0. -1.
</event>
<event>
 7    1  0.3151015E-009  0.1216527E+03  0.7561462E-02  0.1240395E+00
         -2   -1    0    0    0  501 -0.00000000000E+00  0.00000000000E+00  0.18858456611E+03  0.18858456611E+03  0.00000000000E+00 0.  1.
          2   -1    0    0  501    0  0.00000000000E+00 -0.00000000000E+00 -0.10928991528E+03  0.10928991528E+03  0.00000000000E+00 0. -1.
         25    2    1    2    0    0 -0.31479637304E+01  0.89862748550E+02  0.78659182033E+02  0.17297296854E+03  0.12508859930E+03 0.  0.
          5    1    3    3  502    0  0.28003130852E+02 -0.22723771361E+02  0.11104892721E+02  0.37964933356E+02  0.41800000000E+01 0.  1.
         -5    1    3    3    0  502 -0.31151094582E+02  0.11258651991E+03  0.67554289312E+02  0.13500803518E+03  0.41800000000E+01 0.  1.
        -11    1    1    2    0    0  0.39127626545E+01 -0.31540457435E+02 -0.41987824819E+02  0.52660113937E+02  0.00000000000E+00 0. -1.
         11    1    1    2    0    0 -0.76479892414E+00 -0.58322291115E+02  0.42623293612E+02  0.72241398911E+02  0.00000000000E+00 0.  1.
</event>
<event>
 7    1  0.3151015E-009  0.7562908E+02  0.7561462E-02  0.1341934E+00
         -1   -1    0    0    0  501 -0.00000000000E+00  0.00000000000E+00  0.22747780942E+02  0.22747780942E+02  0.00000000000E+00 0.  1.
          1   -1    0    0  501    0  0.00000000000E+00 -0.00000000000E+00 -0.55183307421E+03  0.55183307421E+03  0.00000000000E+00 0. -1.
         25    2    1    2    0    0 -0.23876291216E+02 -0.38270739517E+01 -0.35007750328E+03  0.37254046078E+03  0.12508961923E+03 0.  0.
          5    1    3    3  502    0 -0.93349576735E+01 -0.44302315687E+02 -0.43474166271E+02  0.62907170839E+02  0.41800000000E+01 0.  1.
         -5    1    3    3    0  502 -0.14541333543E+02  0.40475241735E+02 -0.30660333701E+03  0.30963328994E+03  0.41800000000E+01 0.  1.
        -11    1    1    2    0    0  0.10823783087E+02 -0.27007845210E+02 -0.16179708021E+03  0.16439243641E+03  0.00000000000E+00 0. -1.
         11    1    1    2    0    0  0.13052508130E+02  0.30834919161E+02 -0.17210709784E+02  0.37647957972E+02  0.00000000000E+00 0.  1.
</event>
<event>
 7    1  0.3151015E-009  0.4997546E+02  0.7561462E-02  0.1445474E+00
          2   -1    0    0  501    0  0.00000000000E+00  0.00000000000E+00  0.93654006833E+03  0.93654006833E+03  0.00000000000E+00 0. -1.
         -2   -1    0    0    0  501 -0.00000000000E+00 -0.00000000000E+00 -0.18006339522E+02  0.18006339522E+02  0.00000000000E+00 0.  1.
         25    2    1    2    0    0  0.17688540713E+02  0.31908074954E+01  0.76204451496E+03  0.77245194290E+03  0.12508835112E+03 0.  0.
          5    1    3    3  502    0  0.10094952518E+02 -0.12393796672E+02  0.75160787941E+03  0.75178945926E+03  0.41800000000E+01 0.  1.
         -5    1    3    3    0  502  0.75935881955E+01  0.15584604168E+02  0.10436635554E+02  0.20662483646E+02  0.41800000000E+01 0.  1.
        -11    1    1    2    0    0  0.85343586435E+01  0.25402915467E+02  0.70625635292E+01  0.27713231412E+02  0.00000000000E+00 0.  1.
         11    1    1    2    0    0 -0.26222899357E+02 -0.28593722963E+02  0.14942665031E+03  0.15438123354E+03  0.00000000000E+00 0. -1.
</event>
<event>
 7    1  0.3151015E-009  0.1233041E+03  0.7561462E-02  0.1237744E+00
         -1   -1    0    0    0  501 -0.00000000000E+00  0.00000000000E+00  0.68199678706E+03  0.68199678706E+03  0.00000000000E+00 0.  1.
          1   -1    0    0  501    0  0.00000000000E+00 -0.00000000000E+00 -0.29440319953E+02  0.29440319953E+02  0.00000000000E+00 0. -1.
         25    2    1    2    0    0  0.12506498207E+02  0.76652422945E+02  0.23729089047E+03  0.27926073019E+03  0.12509029654E+03 0.  0.
          5    1    3    3  502    0 -0.35593290469E+02 -0.26808702938E+01  0.14089579033E+03  0.14540689642E+03  0.41800000000E+01 0.  1.
         -5    1    3    3    0  502  0.48099788676E+02  0.79333293239E+02  0.96395100135E+02  0.13385383378E+03  0.41800000000E+01 0.  1.
        -11    1    1    2    0    0 -0.50891135559E+02 -0.40037118564E+02  0.26588836531E+03  0.27365946238E+03  0.00000000000E+00 0.  1.
         11    1    1    2    0    0  0.38384637351E+02 -0.36615304381E+02  0.14937721133E+03  0.15851691444E+03  0.00000000000E+00 0. -1.
</event>
<event>
 7    1  0.3151015E-009  0.8128915E+02  0.7561462E-02  0.1325432E+00
          1   -1    0    0  501    0  0.00000000000E+00  0.00000000000E+00  0.47737479344E+03  0.47737479344E+03  0.00000000000E+00 0. -1.
         -1   -1    0    0    0  501 -0.00000000000E+00 -0.00000000000E+00 -0.33602231290E+02  0.33602231290E+02  0.00000000000E+00 0.  1.
         25    2    1    2    0    0  0.39880545034E+02  0.41624668024E+02  0.17980752473E+03  0.22650570460E+03  0.12510402633E+03 0.  0.
          5    1    3    3  502    0  0.33768119222E+02  0.50555497701E+02  0.16973778320E+02  0.63259195174E+02  0.41800000000E+01 0. -1.
         -5    1    3    3    0  502  0.61124258120E+01 -0.89308296770E+01  0.16283374641E+03  0.16324650942E+03  0.41800000000E+01 0. -1.
        -11    1    1    2    0    0 -0.59201415633E+02 -0.23985832212E+02  0.24207240633E+03  0.25035809886E+03  0.00000000000E+00 0. -1.
         11    1    1    2    0    0  0.19320870599E+02 -0.17638835812E+02  0.21892631087E+02  0.34113221270E+02  0.00000000000E+00 0.  1.
</event>
<event>
 7    1  0.3151015E-009  0.6677644E+02  0.7561462E-02  0.1371411E+00
          1   -1    0    0  501    0  0.00000000000E+00  0.00000000000E+00  0.25867424368E+03  0.25867424368E+03  0.00000000000E+00 0. -1.
         -1   -1    0    0    0  501 -0.00000000000E+00 -0.00000000000E+00 -0.50606967955E+02  0.50606967955E+02  0.00000000000E+00 0.  1.
         25    2    1    2    0    0 -0.35672331789E+02  0.83739234773E+01  0.14187837308E+03  0.19266351874E+03  0.12508845212E+03 0.  0.
          5    1    3    3  502    0 -0.53387237075E+02  0.23393815958E+02  0.15500863032E+03  0.16565812863E+03  0.41800000000E+01 0. -1.
         -5    1    3    3    0  502  0.17714905286E+02 -0.15019892480E+02 -0.13130257243E+02  0.27005390105E+02  0.41800000000E+01 0. -1.
        -11    1    1    2    0    0  0.13982468267E+01 -0.16282344513E+02 -0.18637458303E+02  0.24787591433E+02  0.00000000000E+00 0.  1.
         11    1    1    2    0    0  0.34274084962E+02  0.79084210358E+01  0.84826360945E+02  0.91830101461E+02  0.00000000000E+00 0. -1.
</event>
<event>
 7    1  0.3151015E-009  0.1043350E+03  0.7561462E-02  0.1271435E+00
         -1   -1    0    0    0  501 -0.00000000000E+00  0.00000000000E+00  0.34714414040E+02  0.34714414040E+02  0.00000000000E+00 0.  1.
          1   -1    0    0  501    0  0.00000000000E+00 -0.00000000000E+00 -0.41830057430E+03  0.41830057430E+03  0.00000000000E+00 0. -1.
         25    2    1    2    0    0  0.40818095504E+02  0.24307436885E+02 -0.25238365865E+03  0.28566073594E+03  0.12509027339E+03 0.  0.
          5    1    3    3  502    0 -0.37786010275E+02  0.56699977198E+01 -0.29201674556E+02  0.48271540721E+02  0.41800000000E+01 0.  1.
         -5    1    3    3    0  502  0.78604105779E+02  0.18637439166E+02 -0.22318198410E+03  0.23738919522E+03  0.41800000000E+01 0.  1.
        -11    1    1    2    0    0  0.29452505804E+01  0.23987472203E+02 -0.82573519775E+02  0.86037546988E+02  0.00000000000E+00 0. -1.
         11    1    1    2    0    0 -0.43763346084E+02 -0.48294909088E+02 -0.48628981835E+02  0.81316705409E+02  0.00000000000E+00 0.  1.
</event>
<event>
 7    1  0.3151015E-009  0.2034378E+03  0.7561462E-02  0.1146871E+00
          2   -1    0    0  501    0  0.00000000000E+00  0.00000000000E+00  0.14838301903E+04  0.14838301903E+04  0.00000000000E+00 0. -1.
         -2   -1    0    0    0  501 -0.00000000000E+00 -0.00000000000E+00 -0.33209380903E+02  0.33209380903E+02  0.00000000000E+00 0.  1.
         25    2    1    2    0    0 -0.61130501763E+02  0.18200989516E+03  0.80847536175E+03  0.84032394652E+03  0.12508950543E+03 0.  0.
          5    1    3    3  502    0 -0.59417185256E+02  0.11882730433E+03  0.30270906714E+03  0.33060638512E+03  0.41800000000E+01 0. -1.
         -5    1    3    3    0  502 -0.17133165064E+01  0.63182590836E+02  0.50576629461E+03  0.50971756140E+03  0.41800000000E+01 0. -1.
        -11    1    1    2    0    0  0.80601630443E+02 -0.11228692309E+03  0.47170641388E+03  0.49154035117E+03  0.00000000000E+00 0. -1.
         11    1    1    2    0    0 -0.19471128681E+02 -0.69722972072E+02  0.17043903373E+03  0.18517527347E+03  0.00000000000E+00 0.  1.
</event>
<event>
 7    1  0.3151015E-009  0.2341349E+03  0.7561462E-02  0.1123763E+00
          2   -1    0    0  501    0  0.00000000000E+00  0.00000000000E+00  0.12424222655E+04  0.12424222655E+04  0.00000000000E+00 0. -1.
         -2   -1    0    0    0  501 -0.00000000000E+00 -0.00000000000E+00 -0.49037827293E+02  0.49037827293E+02  0.00000000000E+00 0.  1.
         25    2    1    2    0    0  0.14779672957E+03  0.16587080973E+03  0.56434398721E+03  0.61926493009E+03  0.12509164220E+03 0.  0.
          5    1    3    3  502    0  0.56419564719E+02  0.96027193350E+00  0.68969381480E+02  0.89209513993E+02  0.41800000000E+01 0.  1.
         -5    1    3    3    0  502  0.91377164855E+02  0.16491053780E+03  0.49537460573E+03  0.53005541610E+03  0.41800000000E+01 0.  1.
        -11    1    1    2    0    0 -0.87186747563E+02 -0.11263656163E+03  0.28235423800E+03  0.31624743427E+03  0.00000000000E+00 0.  1.
         11    1    1    2    0    0 -0.60609982010E+02 -0.53234248103E+02  0.34668621297E+03  0.35594772840E+03  0.00000000000E+00 0. -1.
</event>
<event>
 7    1  0.3151015E-009  0.1097378E+03  0.7561462E-02  0.1261056E+00
         -2   -1    0    0    0  501 -0.00000000000E+00  0.00000000000E+00  0.24101988204E+03  0.24101988204E+03  0.00000000000E+00 0.  1.
          2   -1    0    0  501    0  0.00000000000E+00 -0.00000000000E+00 -0.64209701648E+02  0.64209701648E+02  0.00000000000E+00 0. -1.
         25    2    1    2    0    0  0.93914449834E+01  0.28285340579E+02  0.32027686998E+02  0.13252367147E+03  0.12509392885E+03 0.  0.
          5    1    3    3  502    0 -0.56242456784E+02  0.13455933827E+02  0.29510683713E+02  0.65058657790E+02  0.41800000000E+01 0.  1.
         -5    1    3    3    0  502  0.65633901767E+02  0.14829406752E+02  0.25170032855E+01  0.67465013684E+02  0.41800000000E+01 0.  1.
        -11    1    1    2    0    0  0.19594060887E+02 -0.52671268958E+02  0.82992600201E+02  0.10022954397E+03  0.00000000000E+00 0.  1.
         11    1    1    2    0    0 -0.28985505871E+02  0.24385928379E+02  0.61789893192E+02  0.72476368247E+02  0.00000000000E+00 0. -1.
</event>
<event>
 7    1  0.3151015E-009  0.1070196E+03  0.7561462E-02  0.1266191E+00
         -1   -1    0    0    0  501 -0.00000000000E+00  0.00000000000E+00  0.12836630161E+03  0.12836630161E+03  0.00000000000E+00 0.  1.
          1   -1    0    0  501    0  0.00000000000E+00 -0.00000000000E+00 -0.10827537046E+03  0.10827537046E+03  0.00000000000E+00 0. -1.
         25    2    1    2    0    0 -0.18411230148E+02 -0.37598092389E+02  0.31462594123E+02  0.13560668148E+03  0.12508671907E+03 0.  0.
          5    1    3    3  502    0  0.37473575907E+02  0.26834888781E+02  0.14912120662E+02  0.48623285469E+02  0.41800000000E+01 0.  1.
         -5    1    3    3    0  502 -0.55884806055E+02 -0.64432981171E+02  0.16550473461E+02  0.86983396014E+02  0.41800000000E+01 0.  1.
        -11    1    1    2    0    0  0.45065312640E+02  0.15232045881E+02 -0.34928335816E+02  0.59015983157E+02  0.00000000000E+00 0. -1.
         11    1    1    2    0    0 -0.26654082493E+02  0.22366046508E+02  0.23556672849E+02  0.42019007433E+02  0.00000000000E+00 0.  1.
</event>
<event>
 7    1  0.3151015E-009  0.1610335E+03  0.7561462E-02  0.1187535E+00
         -1   -1    0    0    0  501 -0.00000000000E+00  0.00000000000E+00  0.31802603111E+02  0.31802603111E+02  0.00000000000E+00 0.  1.
          1   -1    0    0  501    0  0.00000000000E+00 -0.00000000000E+00 -0.10900409685E+04  0.10900409685E+04  0.00000000000E+00 0. -1.
         25    2    1    2    0    0 -0.46475402378E+02 -0.14382974570E+03 -0.59601038603E+03  0.62746995797E+03  0.12507281524E+03 0.  0.
          5    1    3    3  502    0 -0.39367380699E+02 -0.17187386780E+02 -0.46282929984E+02  0.63283322727E+02  0.41800000000E+01 0. -1.
         -5    1    3    3    0  502 -0.71080216789E+01 -0.12664235892E+03 -0.54972745605E+03  0.56418663524E+03  0.41800000000E+01 0. -1.
        -11    1    1    2    0    0  0.26390475400E+02  0.56085586281E+02 -0.32077709381E+03  0.32671087233E+03  0.00000000000E+00 0. -1.
         11    1    1    2    0    0  0.20084926979E+02  0.87744159421E+02 -0.14145088550E+03  0.16766274128E+03  0.00000000000E+00 0.  1.
</event>
<event>
 7    1  0.3954659E-009  0.1482788E+03  0.7561462E-02  0.1202604E+00
         -2   -1    0    0    0  501 -0.00000000000E+00  0.00000000000E+00  0.25732039523E+02  0.25732039523E+02  0.00000000000E+00 0.  1.
          2   -1    0    0  501    0  0.00000000000E+00 -0.00000000000E+00 -0.87832988638E+03  0.87832988638E+03  0.00000000000E+00 0. -1.
         25    2    1    2    0    0  0.24321608879E+02  0.97927284711E+02 -0.38883413394E+03  0.42073830987E+03  0.12508975947E+03 0.  0.
          5    1    3    3  502    0  0.63738152374E+02  0.10790479781E+02 -0.16743841988E+03  0.17953295902E+03  0.41800000000E+01 0. -1.
         -5    1    3    3    0  502 -0.39416543495E+02  0.87136804930E+02 -0.22139571406E+03  0.24120535085E+03  0.41800000000E+01 0. -1.
        -11    1    1    2    0    0 -0.50734228180E+02 -0.21348060265E+02 -0.19455701311E+03  0.20219330586E+03  0.00000000000E+00 0.  1.
         11    1    1    2    0    0  0.26412619301E+02 -0.76579224446E+02 -0.26920669981E+03  0.28113031017E+03  0.00000000000E+00 0. -1.
</event>
<event>
 7    1  0.3151015E-009  0.8339950E+02  0.7561462E-02  0.1319672E+00
          2   -1    0    0  501    0  0.00000000000E+00  0.00000000000E+00  0.53371626399E+03  0.53371626399E+03  0.00000000000E+00 0. -1.
         -2   -1    0    0    0  501 -0.00000000000E+00 -0.00000000000E+00 -0.33412701986E+02  0.33412701986E+02  0.00000000000E+00 0.  1.
         25    2    1    2    0    0  0.18415577117E+02  0.18202912835E+02  0.43730243832E+03  0.45557730201E+03  0.12508707379E+03 0.  0.
          5    1    3    3  502    0 -0.66749024611E+01  0.63671336819E+02  0.33140140217E+03  0.33755437372E+03  0.41800000000E+01 0.  1.
         -5    1    3    3    0  502  0.25090479578E+02 -0.45468423984E+02  0.10590103614E+03  0.11802292829E+03  0.41800000000E+01 0.  1.
        -11    1    1    2    0    0 -0.36035622367E+00  0.13796377554E+02 -0.17956109063E+02  0.22647113346E+02  0.00000000000E+00 0.  1.
         11    1    1    2    0    0 -0.18055220894E+02 -0.31999290388E+02  0.80957232746E+02  0.88904550619E+02  0.00000000000E+00 0. -1.
</event>
<event>
 7    1  0.3151015E-009  0.3498125E+03  0.7561462E-02  0.1062692E+00
          2   -1    0    0  501    0  0.00000000000E+00  0.00000000000E+00  0.27839807992E+04  0.27839807992E+04  0.00000000000E+00 0. -1.
         -2   -1    0    0    0  501 -0.00000000000E+00 -0.00000000000E+00 -0.68556313966E+02  0.68556313966E+02  0.00000000000E+00 0.  1.
         25    2    1    2    0    0  0.23247469174E+03  0.25150632835E+03  0.21786191913E+04  0.22089203192E+04  0.12508988940E+03 0.  0.
          5    1    3    3  502    0  0.12376675562E+03  0.20083865168E+03  0.12005667122E+04  0.12235327036E+04  0.41800000000E+01 0.  1.
         -5    1    3    3    0  502  0.10870793612E+03  0.50667676669E+02  0.97805247904E+03  0.98538761561E+03  0.41800000000E+01 0.  1.
        -11    1    1    2    0    0 -0.14615668884E+03 -0.17780026099E+03  0.27730427857E+03  0.36037809785E+03  0.00000000000E+00 0. -1.
         11    1    1    2    0    0 -0.86318002897E+02 -0.73706067363E+02  0.25950101535E+03  0.28323869608E+03  0.00000000000E+00 0.  1.
</event>
<event>
 7    1  0.3151015E-009  0.9471561E+02  0.7561462E-02  0.1291818E+00
         -1   -1    0    0    0  501 -0.00000000000E+00  0.00000000000E+00  0.32893356341E+03  0.32893356341E+03  0.00000000000E+00 0.  1.
          1   -1    0    0  501    0  0.00000000000E+00 -0.00000000000E+00 -0.52294328193E+02  0.52294328193E+02  0.00000000000E+00 0. -1.
         25    2    1    2    0    0  0.22562260237E+02 -0.43324553361E+00  0.25393824999E+03  0.28397353540E+03  0.12508833164E+03 0.  0.
          5    1    3    3  502    0 -0.42968464812E+02 -0.31958148606E+02  0.94840905375E+02  0.10899487127E+03  0.41800000000E+01 0.  1.
         -5    1    3    3    0  502  0.65530725048E+02  0.31524903073E+02  0.15909734461E+03  0.17497866413E+03  0.41800000000E+01 0.  1.
        -11    1    1    2    0    0  0.19438705082E+02  0.63802394496E+01 -0.25730053843E+02  0.32872577955E+02  0.00000000000E+00 0. -1.
         11    1    1    2    0    0 -0.42000965318E+02 -0.59469939160E+01  0.48431039068E+02  0.64381778241E+02  0.00000000000E+00 0.  1.
</event>
<event>
 7    1  0.3151015E-009  0.1202250E+03  0.7561462E-02  0.1242726E+00
          2   -1    0    0  501    0  0.00000000000E+00  0.00000000000E+00  0.86476346171E+03  0.86476346171E+03  0.00000000000E+00 0. -1.
         -2   -1    0    0    0  501 -0.00000000000E+00 -0.00000000000E+00 -0.31750897207E+02  0.31750897207E+02  0.00000000000E+00 0.  1.
         25    2    1    2    0    0  0.36522367451E+02  0.79874551785E+02  0.68676683423E+03  0.70357005430E+03  0.12509320275E+03 0.  0.
          5    1    3    3  502    0 -0.42030202806E+02  0.56522886901E+02  0.33680254281E+03  0.34411451573E+03  0.41800000000E+01 0. -1.
         -5    1    3    3    0  502  0.78552570257E+02  0.23351664884E+02  0.34996429142E+03  0.35945553858E+03  0.41800000000E+01 0. -1.
        -11    1    1    2    0    0 -0.88480928832E+01 -0.18496158869E+02 -0.99979007688E+01  0.22811283619E+02  0.00000000000E+00 0.  1.
         11    1    1    2    0    0 -0.27674274568E+02 -0.61378392916E+02  0.15624363105E+03  0.17013302099E+03  0.00000000000E+00 0. -1.
</event>
<event>
 7    1  0.3151015E-009  0.1399916E+03  0.7561462E-02  0.1213340E+00
          2   -1    0    0  501    0  0.00000000000E+00  0.00000000000E+00  0.93378073067E+03  0.93378073067E+03  0.00000000000E+00 0. -1.
         -2   -1    0    0    0  501 -0.00000000000E+00 -0.00000000000E+00 -0.30086468489E+02  0.30086468489E+02  0.00000000000E+00 0.  1.
         25    2    1    2    0    0 -0.55102956218E+02 -0.97857324478E+02  0.63438374073E+03  0.65627960670E+03  0.12509116648E+03 0.  0.
          5    1    3    3  502    0  0.27152196606E+02 -0.64533410314E+02  0.17784024419E+03  0.19117119993E+03  0.41800000000E+01 0.  1.
         -5    1    3    3    0  502 -0.82255152824E+02 -0.33323914164E+02  0.45654349654E+03  0.46510840677E+03  0.41800000000E+01 0.  1.
        -11    1    1    2    0    0  0.24498230836E+02  0.83822061732E+02  0.90992604716E+02  0.12611881485E+03  0.00000000000E+00 0.  1.
         11    1    1    2    0    0  0.30604725382E+02  0.14035262746E+02  0.17831791674E+03  0.18146877761E+03  0.00000000000E+00 0. -1.
</event>
<event>
 7    1  0.3151015E-009  0.1532744E+03  0.7561462E-02  0.1196506E+00
         -2   -1    0    0    0  501 -0.00000000000E+00  0.00000000000E+00  0.38120068298E+02  0.38120068298E+02  0.00000000000E+00 0. -1.
          2   -1    0    0  501    0  0.00000000000E+00 -0.00000000000E+00 -0.75257132249E+03  0.75257132249E+03  0.00000000000E+00 0.  1.
         25    2    1    2    0    0  0.94188507105E+02 -0.57739656095E+02 -0.54120687847E+03  0.56635476166E+03  0.12508991962E+03 0.  0.
          5    1    3    3  502    0  0.43625772034E+02  0.37535855504E+02 -0.22269898371E+03  0.23005316381E+03  0.41800000000E+01 0.  1.
         -5    1    3    3    0  502  0.50562735071E+02 -0.95275511599E+02 -0.31850789476E+03  0.33630159785E+03  0.41800000000E+01 0.  1.
        -11    1    1    2    0    0 -0.80056681230E+02  0.80872794801E+02 -0.12531964199E+03  0.16927638293E+03  0.00000000000E+00 0. -1.
         11    1    1    2    0    0 -0.14131825875E+02 -0.23133138706E+02 -0.47924733730E+02  0.55060246203E+02  0.00000000000E+00 0.  1.
</event>
<event>
 7    1  0.3151015E-009  0.9990109E+02  0.7561462E-02  0.1280504E+00
          1   -1    0    0  501    0  0.00000000000E+00  0.00000000000E+00  0.35090327108E+03  0.35090327108E+03  0.00000000000E+00 0. -1.
         -1   -1    0    0    0  501 -0.00000000000E+00 -0.00000000000E+00 -0.51375567034E+02  0.51375567034E+02  0.00000000000E+00 0.  1.
         25    2    1    2    0    0  0.34547301008E+02  0.47289055113E+02  0.86810848742E+02  0.16313359460E+03  0.12508667191E+03 0.  0.
          5    1    3    3  502    0 -0.12290266863E+02  0.65047184352E+02  0.42384836630E+01  0.66465208910E+02  0.41800000000E+01 0.  1.
         -5    1    3    3    0  502  0.46837567871E+02 -0.17758129238E+02  0.82572365079E+02  0.96668385695E+02  0.41800000000E+01 0.  1.
        -11    1    1    2    0    0 -0.44943674343E+02 -0.54435463721E+02  0.21502871752E+03  0.22631947096E+03  0.00000000000E+00 0. -1.
         11    1    1    2    0    0  0.10396373335E+02  0.71464086076E+01 -0.23118622252E+01  0.12825772548E+02  0.00000000000E+00 0.  1.
</event>
<event>
 7    1  0.3151015E-009  0.1187603E+03  0.7561462E-02  0.1245156E+00
          1   -1    0    0  501    0  0.00000000000E+00  0.00000000000E+00  0.65601703071E+02  0.65601703071E+02  0.00000000000E+00 0. -1.
         -1   -1    0    0    0  501 -0.00000000000E+00 -0.00000000000E+00 -0.50087944411E+03  0.50087944411E+03  0.00000000000E+00 0.  1.
         25    2    1    2    0    0 -0.23339046321E+02  0.98844697165E+02 -0.39147737219E+03  0.42334036370E+03  0.12509014893E+03 0.  0.
          5    1    3    3  502    0 -0.59206252624E+01  0.88228331906E+01  0.76833914622E+01  0.13762379640E+02  0.41800000000E+01 0. -1.
         -5    1    3    3    0  502 -0.17418421058E+02  0.90021863975E+02 -0.39916076366E+03  0.40957798406E+03  0.41800000000E+01 0. -1.
        -11    1    1    2    0    0 -0.30397379419E+02 -0.62330392501E+02 -0.10508833833E+02  0.70139247881E+02  0.00000000000E+00 0.  1.
         11    1    1    2    0    0  0.53736425739E+02 -0.36514304664E+02 -0.33291535016E+02  0.73001535601E+02  0.00000000000E+00 0. -1.
</event>
<event>
 7    1  0.3151015E-009  0.2200127E+03  0.7561462E-02  0.1133874E+00
          1   -1    0    0  501    0  0.00000000000E+00  0.00000000000E+00  0.32329192351E+03  0.32329192351E+03  0.00000000000E+00 0. -1.
         -1   -1    0    0    0  501 -0.00000000000E+00 -0.00000000000E+00 -0.21057532534E+03  0.21057532534E+03  0.00000000000E+00 0.  1.
         25    2    1    2    0    0 -0.69857733127E+02  0.20429320648E+03 -0.42326374845E+02  0.25308993177E+03  0.12508866641E+03 0.  0.
          5    1    3    3  502    0 -0.16171947549E+02  0.20131123152E+02 -0.54891507523E+02  0.60805789240E+02  0.41800000000E+01 0. -1.
         -5    1    3    3    0  502 -0.53685785579E+02  0.18416208333E+03  0.12565132678E+02  0.19228414253E+03  0.41800000000E+01 0. -1.
        -11    1    1    2    0    0  0.70457189503E+02 -0.13139866697E+03  0.59335231902E+02  0.16046960765E+03  0.00000000000E+00 0.  1.
         11    1    1    2    0    0 -0.59945637598E+00 -0.72894539506E+02  0.95707741114E+02  0.12030770942E+03  0.00000000000E+00 0. -1.
</event>
<event>
 7    1  0.3151015E-009  0.1081199E+03  0.7561462E-02  0.1264092E+00
         -1   -1    0    0    0  501 -0.00000000000E+00  0.00000000000E+00  0.38095234268E+02  0.38095234268E+02  0.00000000000E+00 0.  1.
          1   -1    0    0  501    0  0.00000000000E+00 -0.00000000000E+00 -0.31076781316E+03  0.31076781316E+03  0.00000000000E+00 0. -1.
         25    2    1    2    0    0 -0.11309070685E+02  0.18993350102E+02 -0.16901356559E+03  0.21142743203E+03  0.12508929305E+03 0.  0.
          5    1    3    3  502    0  0.18885890747E+02  0.67234819523E+02 -0.93291416258E+02  0.11661028502E+03  0.41800000000E+01 0.  1.
         -5    1    3    3    0  502 -0.30194961433E+02 -0.48241469421E+02 -0.75722149329E+02  0.94817147008E+02  0.41800000000E+01 0.  1.
        -11    1    1    2    0    0 -0.92876059313E+01 -0.50623017858E+02 -0.69843965596E+02  0.86759028874E+02  0.00000000000E+00 0.  1.
         11    1    1    2    0    0  0.20596676617E+02  0.31629667756E+02 -0.33815047707E+02  0.50676586521E+02  0.00000000000E+00 0. -1.
</event>
<event>
 7    1  0.3151015E-009  0.1748185E+03  0.7561462E-02  0.1172914E+00
         -1   -1    0    0    0  501 -0.00000000000E+00  0.00000000000E+00  0.25595233717E+02  0.25595233717E+02  0.00000000000E+00 0.  1.
          1   -1    0    0  501    0  0.00000000000E+00 -0.00000000000E+00 -0.13518664501E+04  0.13518664501E+04  0.00000000000E+00 0. -1.
         25    2    1    2    0    0 -0.25163136852E+02  0.13705107570E+03 -0.91878450389E+03  0.93767868916E+03  0.12514063569E+03 0.  0.
          5    1    3    3  502    0 -0.72358712875E+02  0.60267281588E+02 -0.54987903349E+03  0.55789994841E+03  0.41800000000E+01 0.  1.
         -5    1    3    3    0  502  0.47195576024E+02  0.76783794111E+02 -0.36890547040E+03  0.37977874075E+03  0.41800000000E+01 0.  1.
        -11    1    1    2    0    0  0.34349613967E+02 -0.14737763921E+03 -0.37981886499E+03  0.40885502898E+03  0.00000000000E+00 0.  1.
         11    1    1    2    0    0 -0.91864771157E+01  0.10326563506E+02 -0.27667847449E+02  0.30927965631E+02  0.00000000000E+00 0. -1.
</event>
<event>
 7    1  0.3151015E-009  0.1898168E+03  0.7561462E-02  0.1158627E+00
         -2   -1    0    0    0  501 -0.00000000000E+00  0.00000000000E+00  0.35971624917E+03  0.35971624917E+03  0.00000000000E+00 0.  1.
          2   -1    0    0  501    0  0.00000000000E+00 -0.00000000000E+00 -0.11370895306E+03  0.11370895306E+03  0.00000000000E+00 0. -1.
         25    2    1    2    0    0 -0.15797610910E+03 -0.58317257991E+02  0.16161307754E+03  0.26481108454E+03  0.12509504401E+03 0.  0.
          5    1    3    3  502    0 -0.61702133233E+02 -0.86373429525E+02  0.60074644862E+02  0.12204080436E+03  0.41800000000E+01 0.  1.
         -5    1    3    3    0  502 -0.96273975869E+02  0.28056171535E+02  0.10153843268E+03  0.14277028018E+03  0.41800000000E+01 0.  1.
        -11    1    1    2    0    0  0.80998965181E+01  0.14965339037E+02  0.44400412680E+02  0.47549619791E+02  0.00000000000E+00 0.  1.
         11    1    1    2    0    0  0.14987621258E+03  0.43351918954E+02  0.39993805888E+02  0.16106449790E+03  0.00000000000E+00 0. -1.
</event>
<event>
 7    1  0.3151015E-009  0.1646331E+03  0.7561462E-02  0.1183563E+00
         -1   -1    0    0    0  501 -0.00000000000E+00  0.00000000000E+00  0.35591403952E+02  0.35591403952E+02  0.00000000000E+00 0. -1.
          1   -1    0    0  501    0  0.00000000000E+00 -0.00000000000E+00 -0.89667519974E+03  0.89667519974E+03  0.00000000000E+00 0.  1.
         25    2    1    2    0    0  0.10955162912E+02  0.13383778521E+03 -0.34464152973E+03  0.39045772005E+03  0.12508748453E+03 0.  0.
          5    1    3    3  502    0 -0.39695921081E+02  0.28872972887E+02 -0.19282641851E+03  0.19901988541E+03  0.41800000000E+01 0.  1.
         -5    1    3    3    0  502  0.50651083993E+02  0.10496481233E+03 -0.15181511123E+03  0.19143783465E+03  0.41800000000E+01 0.  1.
        -11    1    1    2    0    0 -0.41279856087E+02 -0.20563905527E+02 -0.16470471277E+03  0.17103959523E+03  0.00000000000E+00 0.  1.
         11    1    1    2    0    0  0.30324693175E+02 -0.11327387969E+03 -0.35173755329E+03  0.37076928841E+03  0.00000000000E+00 0. -1.
</event>
<event>
 7    1  0.3151015E-009  0.1258368E+03  0.7561462E-02  0.1233767E+00
          1   -1    0    0  501    0  0.00000000000E+00  0.00000000000E+00  0.32654787818E+02  0.32654787818E+02  0.00000000000E+00 0. -1.
         -1   -1    0    0    0  501 -0.00000000000E+00 -0.00000000000E+00 -0.58861875704E+03  0.58861875704E+03  0.00000000000E+00 0.  1.
         25    2    1    2    0    0  0.75498017513E+02 -0.69557026835E+01 -0.21049094963E+03  0.25632483422E+03  0.12509056046E+03 0.  0.
          5    1    3    3  502    0 -0.28986491481E+02 -0.25820495669E+01 -0.11653794411E+02  0.31625416875E+02  0.41800000000E+01 0. -1.
         -5    1    3    3    0  502  0.10448450899E+03 -0.43736531166E+01 -0.19883715522E+03  0.22469941735E+03  0.41800000000E+01 0. -1.
        -11    1    1    2    0    0 -0.36431132406E+02  0.48452797432E+02 -0.18068175961E+03  0.19058016487E+03  0.00000000000E+00 0. -1.
         11    1    1    2    0    0 -0.39066885107E+02 -0.41497094749E+02 -0.16479125998E+03  0.17436854576E+03  0.00000000000E+00 0.  1.
</event>
<event>
 7    1  0.3151015E-009  0.2196074E+03  0.7561462E-02  0.1134176E+00
         -2   -1    0    0    0  501 -0.00000000000E+00  0.00000000000E+00  0.34730224425E+03  0.34730224425E+03  0.00000000000E+00 0.  1.
          2   -1    0    0  501    0  0.00000000000E+00 -0.00000000000E+00 -0.16236575844E+03  0.16236575844E+03  0.00000000000E+00 0. -1.
         25    2    1    2    0    0 -0.17719276358E+03 -0.95775870346E+02  0.14846343388E+03  0.27974744651E+03  0.12508776849E+03 0.  0.
          5    1    3    3  502    0 -0.34865958863E+01  0.24602455213E+02  0.10322695234E+02  0.27229902502E+02  0.41800000000E+01 0.  1.
         -5    1    3    3    0  502 -0.17370616769E+03 -0.12037832556E+03  0.13814073865E+03  0.25251754401E+03  0.41800000000E+01 0.  1.
        -11    1    1    2    0    0  0.15774063437E+02  0.18584571295E+01  0.40101970152E+02  0.43132852331E+02  0.00000000000E+00 0.  1.
         11    1    1    2    0    0  0.16141870014E+03  0.93917413216E+02 -0.36289182184E+01  0.18678770384E+03  0.00000000000E+00 0. -1.
</event>
<event>
 7    1  0.3151015E-009  0.9754998E+02  0.7561462E-02  0.1285534E+00
         -2   -1    0    0    0  501 -0.00000000000E+00  0.00000000000E+00  0.17325701464E+03  0.17325701464E+03  0.00000000000E+00 0.  1.
          2   -1    0    0  501    0  0.00000000000E+00 -0.00000000000E+00 -0.10619048919E+03  0.10619048919E+03  0.00000000000E+00 0. -1.
         25    2    1    2    0    0  0.59959548988E+01 -0.17991780331E+02  0.11834480059E+03  0.17324236491E+03  0.12509104500E+03 0.  0.
          5    1    3    3  502    0 -0.27658055252E+02 -0.60547244087E+02  0.89608329092E+02  0.11170524531E+03  0.41800000000E+01 0. -1.
         -5    1    3    3    0  502  0.33654010151E+02  0.42555463756E+02  0.28736471502E+02  0.61537119604E+02  0.41800000000E+01 0. -1.
        -11    1    1    2    0    0  0.28155411975E+02  0.26637654600E+02 -0.58566333035E+02  0.70230386808E+02  0.00000000000E+00 0. -1.
         11    1    1    2    0    0 -0.34151366874E+02 -0.86458742691E+01  0.72880578881E+01  0.35974752105E+02  0.00000000000E+00 0.  1.
</event>
<event>
 7    1  0.3151015E-009  0.1622725E+03  0.7561462E-02  0.1186155E+00
         -4   -1    0    0    0  501 -0.00000000000E+00  0.00000000000E+00  0.17009845672E+03  0.17009845672E+03  0.00000000000E+00 0.  1.
          4   -1    0    0  501    0  0.00000000000E+00 -0.00000000000E+00 -0.17786939990E+03  0.17786939990E+03  0.00000000000E+00 0. -1.
         25    2    1    2    0    0 -0.21455342897E+01 -0.13704769058E+03 -0.10718105619E+02  0.18587084897E+03  0.12508565824E+03 0.  0.
          5    1    3    3  502    0  0.27480653061E+02  0.14192524060E+02  0.12529442952E+01  0.31235497455E+02  0.41800000000E+01 0. -1.
         -5    1    3    3    0  502 -0.29626187351E+02 -0.15124021464E+03 -0.11971049914E+02  0.15463535151E+03  0.41800000000E+01 0. -1.
        -11    1    1    2    0    0 -0.10640183222E+02  0.45527310264E+02 -0.38741533878E+02  0.60719485555E+02  0.00000000000E+00 0. -1.
         11    1    1    2    0    0  0.12785717512E+02  0.91520380316E+02  0.41688696313E+02  0.10137752209E+03  0.00000000000E+00 0.  1.
</event>
<event>
 7    1  0.3151015E-009  0.1219173E+03  0.7561462E-02  0.1239967E+00
         -2   -1    0    0    0  501 -0.00000000000E+00  0.00000000000E+00  0.75462602604E+02  0.75462602604E+02  0.00000000000E+00 0.  1.
          2   -1    0    0  501    0  0.00000000000E+00 -0.00000000000E+00 -0.22612063767E+03  0.22612063767E+03  0.00000000000E+00 0. -1.
         25    2    1    2    0    0 -0.68675077987E+02  0.80797403379E+01 -0.60843636517E+02  0.15533900519E+03  0.12508680941E+03 0.  0.
          5    1    3    3  502    0 -0.10368887446E+03 -0.13301869394E+01 -0.31344955860E+02  0.10841185702E+03  0.41800000000E+01 0. -1.
         -5    1    3    3    0  502  0.35013796475E+02  0.94099272773E+01 -0.29498680656E+02  0.46927148171E+02  0.41800000000E+01 0. -1.
        -11    1    1    2    0    0  0.59707000514E+01  0.29737595576E+02 -0.59904651245E+02  0.67145670676E+02  0.00000000000E+00 0.  1.
         11    1    1    2    0    0  0.62704377935E+02 -0.37817335914E+02 -0.29909747306E+02  0.79098564411E+02  0.00000000000E+00 0. -1.
</event>
<event>
 7    1  0.3151015E-009  0.8621615E+02  0.7561462E-02  0.1312282E+00
          1   -1    0    0  501    0  0.00000000000E+00  0.00000000000E+00  0.10240241706E+04  0.10240241706E+04  0.00000000000E+00 0. -1.
         -1   -1    0    0    0  501 -0.00000000000E+00 -0.00000000000E+00 -0.13897270569E+02  0.13897270569E+02  0.00000000000E+00 0.  1.
         25    2    1    2    0    0 -0.44825289548E+02 -0.80063926977E+01  0.65907525488E+03  0.67238895446E+03  0.12511317105E+03 0.  0.
          5    1    3    3  502    0 -0.45296430706E+01 -0.27108368700E+02  0.58614033367E+03  0.58679923694E+03  0.41800000000E+01 0.  1.
         -5    1    3    3    0  502 -0.40295646478E+02  0.19101976002E+02  0.72934921212E+02  0.85589717516E+02  0.41800000000E+01 0.  1.
        -11    1    1    2    0    0 -0.17334402501E+02 -0.24252663378E+02  0.74293056731E+02  0.80050805552E+02  0.00000000000E+00 0.  1.
         11    1    1    2    0    0  0.62159692049E+02  0.32259056076E+02  0.27675858839E+03  0.28548168114E+03  0.00000000000E+00 0. -1.
</event>
<event>
 7    1  0.3533450E-009  0.4046779E+03  0.7561462E-02  0.1042172E+00
          2   -1    0    0  501    0  0.00000000000E+00  0.00000000000E+00  0.17402664810E+04  0.17402664810E+04  0.00000000000E+00 0. -1.
         -2   -1    0    0    0  501 -0.00000000000E+00 -0.00000000000E+00 -0.11102610690E+03  0.11102610690E+03  0.00000000000E+00 0.  1.
         25    2    1    2    0    0 -0.32595121213E+03 -0.23450139414E+03  0.11195507821E+04  0.11959416541E+04  0.12508952750E+03 0.  0.
          5    1    3    3  502    0 -0.19785931934E+02 -0.38919369345E+02  0.50762095442E+02  0.67085491325E+02  0.41800000000E+01 0.  1.
         -5    1    3    3    0  502 -0.30616528020E+03 -0.19558202480E+03  0.10687886867E+04  0.11288561628E+04  0.41800000000E+01 0.  1.
        -11    1    1    2    0    0  0.20951473081E+03  0.13732537936E+03  0.24564234002E+03  0.35084874441E+03  0.00000000000E+00 0.  1.
         11    1    1    2    0    0  0.11643648133E+03  0.97176014782E+02  0.26404725199E+03  0.30450218935E+03  0.00000000000E+00 0. -1.
</event>
<event>
 7    1  0.3151015E-009  0.1846395E+03  0.7561462E-02  0.1163387E+00
         -2   -1    0    0    0  501 -0.00000000000E+00  0.00000000000E+00  0.31753342919E+02  0.31753342919E+02  0.00000000000E+00 0.  1.
          2   -1    0    0  501    0  0.00000000000E+00 -0.00000000000E+00 -0.13058184233E+04  0.13058184233E+04  0.00000000000E+00 0. -1.
         25    2    1    2    0    0  0.13431699287E+03 -0.72859982436E+02 -0.91356329897E+03  0.93466367534E+03  0.12509457685E+03 0.  0.
          5    1    3    3  502    0  0.77552313656E+02  0.27239905957E+02 -0.37337490495E+03  0.38233841800E+03  0.41800000000E+01 0.  1.
         -5    1    3    3    0  502  0.56764679217E+02 -0.10009988839E+03 -0.54018839402E+03  0.55232525734E+03  0.41800000000E+01 0.  1.
        -11    1    1    2    0    0 -0.75715113593E+02  0.83006149493E+02 -0.17370961747E+03  0.20687636521E+03  0.00000000000E+00 0.  1.
         11    1    1    2    0    0 -0.58601879280E+02 -0.10146167057E+02 -0.18679216397E+03  0.19603172570E+03  0.00000000000E+00 0. -1.
</event>
<event>
 7    1  0.3151015E-009  0.1233002E+03  0.7561462E-02  0.1237750E+00
         -1   -1    0    0    0  501 -0.00000000000E+00  0.00000000000E+00  0.83439845552E+02  0.83439845552E+02  0.00000000000E+00 0.  1.
          1   -1    0    0  501    0  0.00000000000E+00 -0.00000000000E+00 -0.22889592047E+03  0.22889592047E+03  0.00000000000E+00 0. -1.
         25    2    1    2    0    0 -0.85353954904E+02 -0.60065368909E+01 -0.82207335953E+02  0.17241405002E+03  0.12508869836E+03 0.  0.
          5    1    3    3  502    0 -0.38589382008E+02  0.57302684561E+02 -0.57001745620E+02  0.89662754059E+02  0.41800000000E+01 0.  1.
         -5    1    3    3    0  502 -0.46764572896E+02 -0.63309221452E+02 -0.25205590334E+02  0.82751295960E+02  0.41800000000E+01 0.  1.
        -11    1    1    2    0    0  0.55642189183E+02  0.27336437926E+02  0.53050144385E+01  0.62221196016E+02  0.00000000000E+00 0.  1.
         11    1    1    2    0    0  0.29711765721E+02 -0.21329901035E+02 -0.68553753401E+02  0.77700519984E+02  0.00000000000E+00 0. -1.
</event>
<event>
 7    1  0.3151015E-009  0.1987026E+03  0.7561462E-02  0.1150838E+00
         -2   -1    0    0    0  501 -0.00000000000E+00  0.00000000000E+00  0.71293951061E+03  0.71293951061E+03  0.00000000000E+00 0. -1.
          2   -1    0    0  501    0  0.00000000000E+00 -0.00000000000E+00 -0.67445849228E+02  0.67445849228E+02  0.00000000000E+00 0.  1.
         25    2    1    2    0    0  0.78805409883E+02 -0.17238556481E+03  0.29636776188E+03  0.37337437086E+03  0.12508994745E+03 0.  0.
          5    1    3    3  502    0  0.39427067490E+02 -0.69921376738E+02  0.30968289102E+02  0.86139421322E+02  0.41800000000E+01 0.  1.
         -5    1    3    3    0  502  0.39378342393E+02 -0.10246418807E+03  0.26539947278E+03  0.28723494954E+03  0.41800000000E+01 0.  1.
        -11    1    1    2    0    0  0.72756107526E+01  0.82128867178E+02  0.11189848834E+03  0.13899408991E+03  0.00000000000E+00 0.  1.
         11    1    1    2    0    0 -0.86081020635E+02  0.90256697631E+02  0.23722741116E+03  0.26801689907E+03  0.00000000000E+00 0. -1.
</event>
<event>
 7    1  0.3151015E-009  0.3382024E+03  0.7561462E-02  0.1067564E+00
          1   -1    0    0  501    0  0.00000000000E+00  0.00000000000E+00  0.47460879547E+03  0.47460879547E+03  0.00000000000E+00 0. -1.
         -1   -1    0    0    0  501 -0.00000000000E+00 -0.00000000000E+00 -0.31695091439E+03  0.31695091439E+03  0.00000000000E+00 0.  1.
         25    2    1    2    0    0  0.87441357890E+02  0.31780380417E+03  0.25589287364E+03  0.43563108847E+03  0.12509209986E+03 0.  0.
          5    1    3    3  502    0 -0.75920800578E+01  0.72977175199E+02  0.11790595460E+03  0.13893377671E+03  0.41800000000E+01 0. -1.
         -5    1    3    3    0  502  0.95033437948E+02  0.24482662897E+03  0.13798691904E+03  0.29669731176E+03  0.41800000000E+01 0. -1.
        -11    1    1    2    0    0 -0.92362683371E+02 -0.17952779212E+03 -0.40045186212E+02  0.20582689416E+03  0.00000000000E+00 0.  1.
         11    1    1    2    0    0  0.49213254806E+01 -0.13827601205E+03 -0.58189806344E+02  0.15010172723E+03  0.00000000000E+00 0. -1.
</event>
<event>
 7    1  0.3151015E-009  0.8245722E+02  0.7561462E-02  0.1322219E+00
          2   -1    0    0  501    0  0.00000000000E+00  0.00000000000E+00  0.14111381763E+03  0.14111381763E+03  0.00000000000E+00 0. -1.
         -2   -1    0    0    0  501 -0.00000000000E+00 -0.00000000000E+00 -0.15355441579E+03  0.15355441579E+03  0.00000000000E+00 0.  1.
         25    2    1    2    0    0 -0.13061886132E+02  0.36374545878E+02 -0.96970104299E+02  0.16292429599E+03  0.12508958646E+03 0.  0.
          5    1    3    3  502    0 -0.11159133417E+02  0.49019327812E+02 -0.12337478020E+03  0.13329002044E+03  0.41800000000E+01 0. -1.
         -5    1    3    3    0  502 -0.19027527145E+01 -0.12644781934E+02  0.26404675905E+02  0.29634275555E+02  0.41800000000E+01 0. -1.
        -11    1    1    2    0    0 -0.40586198656E+02 -0.16117284135E+02  0.38291690574E+02  0.58079772178E+02  0.00000000000E+00 0.  1.
         11    1    1    2    0    0  0.53648084788E+02 -0.20257261744E+02  0.46237815560E+02  0.73664165254E+02  0.00000000000E+00 0. -1.
</event>
<event>
 7    1  0.3151015E-009  0.1532892E+03  0.7561462E-02  0.1196489E+00
         -1   -1    0    0    0  501 -0.00000000000E+00  0.00000000000E+00  0.97904420537E+02  0.97904420537E+02  0.00000000000E+00 0.  1.
          1   -1    0    0  501    0  0.00000000000E+00 -0.00000000000E+00 -0.24749786419E+03  0.24749786419E+03  0.00000000000E+00 0. -1.
         25    2    1    2    0    0 -0.37285434519E+02 -0.10605977403E+03 -0.78333778583E+02  0.18553309856E+03  0.12508984970E+03 0.  0.
          5    1    3    3  502    0  0.24953606275E+02 -0.99889148639E+02 -0.33088030417E+02  0.10822575774E+03  0.41800000000E+01 0. -1.
         -5    1    3    3    0  502 -0.62239040794E+02 -0.61706253888E+01 -0.45245748166E+02  0.77307340814E+02  0.41800000000E+01 0. -1.
        -11    1    1    2    0    0  0.64938100275E+02  0.77234746904E+02 -0.63364332438E+02  0.11915201057E+03  0.00000000000E+00 0. -1.
         11    1    1    2    0    0 -0.27652665756E+02  0.28825027125E+02 -0.78953326362E+01  0.40717175609E+02  0.00000000000E+00 0.  1.
</event>
<event>
 7    1  0.3151015E-009  0.8542659E+02  0.7561462E-02  0.1314321E+00
          2   -1    0    0  501    0  0.00000000000E+00  0.00000000000E+00  0.54451332742E+03  0.54451332742E+03  0.00000000000E+00 0. -1.
         -2   -1    0    0    0  501 -0.00000000000E+00 -0.00000000000E+00 -0.24637238290E+02  0.24637238290E+02  0.00000000000E+00 0.  1.
         25    2    1    2    0    0 -0.33123042168E+02 -0.14063136577E+02  0.33733915512E+03  0.36158022463E+03  0.12509054933E+03 0.  0.
          5    1    3    3  502    0 -0.61764220265E+02 -0.19811888651E+02  0.32166406569E+03  0.32816546649E+03  0.41800000000E+01 0. -1.
         -5    1    3    3    0  502  0.28641178097E+02  0.57487520749E+01  0.15675089432E+02  0.33414758145E+02  0.41800000000E+01 0. -1.
        -11    1    1    2    0    0 -0.10567984436E+01 -0.24666812974E+02  0.86304305216E+01  0.26154403381E+02  0.00000000000E+00 0.  1.
         11    1    1    2    0    0  0.34179840611E+02  0.38729949551E+02  0.17390650349E+03  0.18141593770E+03  0.00000000000E+00 0. -1.
</event>
<event>
 7    1  0.4608517E-009  0.1252905E+03  0.7561462E-02  0.1234616E+00
         -2   -1    0    0    0  501 -0.00000000000E+00  0.00000000000E+00  0.53808842460E+02  0.53808842460E+02  0.00000000000E+00 0.  1.
          2   -1    0    0  501    0  0.00000000000E+00 -0.00000000000E+00 -0.35868749194E+03  0.35868749194E+03  0.00000000000E+00 0. -1.
         25    2    1    2    0    0 -0.61603853209E+01 -0.74048169202E+02 -0.10073756260E+03  0.17696616774E+03  0.12509151169E+03 0.  0.
          5    1    3    3  502    0 -0.56317633086E+02 -0.16156767543E+01 -0.48481171702E+02  0.74445836804E+02  0.41800000000E+01 0.  1.
         -5    1    3    3    0  502  0.50157247765E+02 -0.72432492448E+02 -0.52256390902E+02  0.10252033094E+03  0.41800000000E+01 0.  1.
        -11    1    1    2    0    0 -0.23708745299E+02  0.72158876848E+02 -0.91177218120E+02  0.11866883844E+03  0.00000000000E+00 0.  1.
         11    1    1    2    0    0  0.29869130620E+02  0.18892923543E+01 -0.11296386875E+03  0.11686132822E+03  0.00000000000E+00 0. -1.
</event>
<event>
 7    1  0.3151015E-009  0.1035809E+03  0.7561462E-02  0.1272941E+00
          2   -1    0    0  501    0  0.00000000000E+00  0.00000000000E+00  0.12115743728E+03  0.12115743728E+03  0.00000000000E+00 0.  1.
         -2   -1    0    0    0  501 -0.00000000000E+00 -0.00000000000E+00 -0.17720723934E+03  0.17720723934E+03  0.00000000000E+00 0. -1.
         25    2    1    2    0    0  0.14203731776E+02  0.52733723883E+02 -0.11139559390E+03  0.17617880519E+03  0.12508957361E+03 0.  0.
          5    1    3    3  502    0 -0.48460843963E+01 -0.29795024645E+02 -0.80244547248E+02  0.85836401314E+02  0.41800000000E+01 0.  1.
         -5    1    3    3    0  502  0.19049816172E+02  0.82528748528E+02 -0.31151046655E+02  0.90342403872E+02  0.41800000000E+01 0.  1.
        -11    1    1    2    0    0  0.23886516364E+02 -0.47853332889E+02  0.63402610824E+02  0.82948165693E+02  0.00000000000E+00 0. -1.
         11    1    1    2    0    0 -0.38090248140E+02 -0.48803909936E+01 -0.80568189877E+01  0.39237705741E+02  0.00000000000E+00 0.  1.
</event>
<event>
 7    1  0.3151015E-009  0.9832884E+02  0.7561462E-02  0.1283850E+00
         -1   -1    0    0    0  501 -0.00000000000E+00  0.00000000000E+00  0.17872559200E+03  0.17872559200E+03  0.00000000000E+00 0.  1.
          1   -1    0    0  501    0  0.00000000000E+00 -0.00000000000E+00 -0.98882379456E+02  0.98882379456E+02  0.00000000000E+00 0. -1.
         25    2    1    2    0    0 -0.20978438747E+02 -0.54042103266E+02 -0.41640598722E+01  0.13793350248E+03  0.12509063871E+03 0.  0.
          5    1    3    3  502    0  0.74533613105E+01  0.11174717845E+02  0.47739193205E+02  0.49768764116E+02  0.41800000000E+01 0.  1.
         -5    1    3    3    0  502 -0.28431800058E+02 -0.65216821112E+02 -0.51903253077E+02  0.88164738362E+02  0.41800000000E+01 0.  1.
        -11    1    1    2    0    0 -0.35537537811E+02  0.38670610014E+01  0.31540309837E+02  0.47672443813E+02  0.00000000000E+00 0. -1.
         11    1    1    2    0    0  0.56515976558E+02  0.50175042265E+02  0.52466962584E+02  0.92002025170E+02  0.00000000000E+00 0.  1.
</event>
<event>
 7    1  0.3151015E-009  0.1034503E+03  0.7561462E-02  0.1273203E+00
          1   -1    0    0  501    0  0.00000000000E+00  0.00000000000E+00  0.11938495386E+03  0.11938495386E+03  0.00000000000E+00 0. -1.
         -1   -1    0    0    0  501 -0.00000000000E+00 -0.00000000000E+00 -0.11856990786E+03  0.11856990786E+03  0.00000000000E+00 0.  1.
         25    2    1    2    0    0  0.39982947746E+02 -0.12041565430E+02  0.22412885167E+02  0.13376827002E+03  0.12509187517E+03 0.  0.
          5    1    3    3  502    0  0.13625009999E+02 -0.59695833409E+02  0.43494400179E+02  0.75222793559E+02  0.41800000000E+01 0.  1.
         -5    1    3    3    0  502  0.26357937746E+02  0.47654267978E+02 -0.21081515012E+02  0.58545476461E+02  0.41800000000E+01 0.  1.
        -11    1    1    2    0    0 -0.38485733411E+02  0.44261946611E+02  0.94573427743E+01  0.59411387177E+02  0.00000000000E+00 0. -1.
         11    1    1    2    0    0 -0.14972143342E+01 -0.32220381180E+02 -0.31055181944E+02  0.44775204520E+02  0.00000000000E+00 0.  1.
</event>
<event>
 7    1  0.3151015E-009  0.2284098E+03  0.7561462E-02  0.1127764E+00
         -3   -1    0    0    0  501 -0.00000000000E+00  0.00000000000E+00  0.54337603950E+02  0.54337603950E+02  0.00000000000E+00 0.  1.
          3   -1    0    0  501    0  0.00000000000E+00 -0.00000000000E+00 -0.12546352815E+04  0.12546352815E+04  0.00000000000E+00 0. -1.
         25    2    1    2    0    0 -0.11840372431E+03  0.17864659994E+03 -0.86966251742E+03  0.90437537114E+03  0.12509143904E+03 0.  0.
          5    1    3    3  502    0  0.18868717133E+02  0.45582242431E+02 -0.28403708944E+03  0.28831980488E+03  0.41800000000E+01 0. -1.
         -5    1    3    3    0  502 -0.13727244144E+03  0.13306435751E+03 -0.58562542798E+03  0.61605556626E+03  0.41800000000E+01 0. -1.
        -11    1    1    2    0    0  0.14794479174E+02 -0.90502174619E+01  0.16420010185E+01  0.17420654910E+02  0.00000000000E+00 0.  1.
         11    1    1    2    0    0  0.10360924513E+03 -0.16959638248E+03 -0.33227716110E+03  0.38717685935E+03  0.00000000000E+00 0. -1.
</event>
<event>
 7    1  0.3151015E-009  0.2514622E+03  0.7561462E-02  0.1112384E+00
          2   -1    0    0  501    0  0.00000000000E+00  0.00000000000E+00  0.22014846342E+03  0.22014846342E+03  0.00000000000E+00 0. -1.
         -2   -1    0    0    0  501 -0.00000000000E+00 -0.00000000000E+00 -0.29328780399E+03  0.29328780399E+03  0.00000000000E+00 0.  1.
         25    2    1    2    0    0 -0.87149217964E+02 -0.21177755078E+03 -0.23088091551E+02  0.26196381397E+03  0.12508901893E+03 0.  0.
          5    1    3    3  502    0 -0.25155360231E+02  0.11950163570E+02  0.29371090289E+01  0.28314264376E+02  0.41800000000E+01 0. -1.
         -5    1    3    3    0  502 -0.61993857733E+02 -0.22372771434E+03 -0.26025200580E+02  0.23364954960E+03  0.41800000000E+01 0. -1.
        -11    1    1    2    0    0  0.91465892999E+02  0.12096798743E+03 -0.52618671813E+02  0.16052410469E+03  0.00000000000E+00 0.  1.
         11    1    1    2    0    0 -0.43166750346E+01  0.90809563348E+02  0.25674227894E+01  0.90948348740E+02  0.00000000000E+00 0. -1.
</event>
<event>
 7    1  0.3151015E-009  0.8464259E+02  0.7561462E-02  0.1316370E+00
         -3   -1    0    0    0  501 -0.00000000000E+00  0.00000000000E+00  0.45621081212E+03  0.45621081212E+03  0.00000000000E+00 0.  1.
          3   -1    0    0  501    0  0.00000000000E+00 -0.00000000000E+00 -0.31964672410E+02  0.31964672410E+02  0.00000000000E+00 0. -1.
         25    2    1    2    0    0 -0.40458024525E+02 -0.89991263798E+01  0.31509059138E+03  0.34152951986E+03  0.12506996497E+03 0.  0.
          5    1    3    3  502    0  0.32251803883E+02 -0.44512312449E+00  0.21665144325E+02  0.39079762882E+02  0.41800000000E+01 0. -1.
         -5    1    3    3    0  502 -0.72709828408E+02 -0.85540032553E+01  0.29342544706E+03  0.30244975698E+03  0.41800000000E+01 0. -1.
        -11    1    1    2    0    0  0.10630350041E+02 -0.19478814507E+02 -0.70950059626E+01  0.23297374663E+02  0.00000000000E+00 0. -1.
         11    1    1    2    0    0  0.29827674484E+02  0.28477940887E+02  0.11625055430E+03  0.12334859001E+03  0.00000000000E+00 0.  1.
</event>
<event>
 7    1  0.3151015E-009  0.8974341E+02  0.7561462E-02  0.1303474E+00
         -1   -1    0    0    0  501 -0.00000000000E+00  0.00000000000E+00  0.27896547473E+03  0.27896547473E+03  0.00000000000E+00 0.  1.
          1   -1    0    0  501    0  0.00000000000E+00 -0.00000000000E+00 -0.45387279780E+02  0.45387279780E+02  0.00000000000E+00 0. -1.
         25    2    1    2    0    0  0.26806272344E+02  0.24901488041E+02  0.13511353184E+03  0.18772942934E+03  0.12509201338E+03 0.  0.
          5    1    3    3  502    0  0.62764487556E+02  0.30948596437E+02  0.13374188527E+03  0.15100185693E+03  0.41800000000E+01 0.  1.
         -5    1    3    3    0  502 -0.35958215211E+02 -0.60471083961E+01  0.13716465687E+01  0.36727572414E+02  0.41800000000E+01 0.  1.
        -11    1    1    2    0    0  0.14272551006E+01 -0.40431912497E+02  0.88807117430E+01  0.41420328902E+02  0.00000000000E+00 0. -1.
         11    1    1    2    0    0 -0.28233527445E+02  0.15530424455E+02  0.89583951366E+02  0.95202996266E+02  0.00000000000E+00 0.  1.
</event>
<event>
 7    1  0.3151015E-009  0.1439275E+03  0.7561462E-02  0.1208140E+00
          2   -1    0    0  501    0  0.00000000000E+00  0.00000000000E+00  0.56189613559E+03  0.56189613559E+03  0.00000000000E+00 0. -1.
         -2   -1    0    0    0  501 -0.00000000000E+00 -0.00000000000E+00 -0.76748251826E+02  0.76748251826E+02  0.00000000000E+00 0.  1.
         25    2    1    2    0    0  0.10425900039E+03 -0.60237710280E+01  0.47400823390E+03  0.50123673999E+03  0.12509292038E+03 0.  0.
          5    1    3    3  502    0  0.10823586846E+03 -0.45406030195E+02  0.28819299534E+03  0.31120633953E+03  0.41800000000E+01 0. -1.
         -5    1    3    3    0  502 -0.39768680775E+01  0.39382259167E+02  0.18581523856E+03  0.19003040046E+03  0.41800000000E+01 0. -1.
        -11    1    1    2    0    0 -0.11047753511E+03  0.22717808713E+02  0.24152941473E+02  0.11534621441E+03  0.00000000000E+00 0.  1.
         11    1    1    2    0    0  0.62185347272E+01 -0.16694037685E+02 -0.13013291608E+02  0.22061433019E+02  0.00000000000E+00 0. -1.
</event>
<event>
 7    1  0.3151015E-009  0.1059178E+03  0.7561462E-02  0.1268322E+00
         -2   -1    0    0    0  501 -0.00000000000E+00  0.00000000000E+00  0.32277908207E+03  0.32277908207E+03  0.00000000000E+00 0.  1.
          2   -1    0    0  501    0  0.00000000000E+00 -0.00000000000E+00 -0.44342691508E+02  0.44342691508E+02  0.00000000000E+00 0. -1.
         25    2    1    2    0    0 -0.43528985054E+02 -0.51736666652E+01  0.19997619523E+03  0.23991766232E+03  0.12509383146E+03 0.  0.
          5    1    3    3  502    0  0.33843132480E+02 -0.29675955772E+01  0.11476706432E+02  0.36101958813E+02  0.41800000000E+01 0.  1.
         -5    1    3    3    0  502 -0.77372117534E+02 -0.22060710880E+01  0.18849948880E+03  0.20381570351E+03  0.41800000000E+01 0.  1.
        -11    1    1    2    0    0  0.30874951728E+02  0.47087793799E+02  0.45787735704E+02  0.72574373645E+02  0.00000000000E+00 0. -1.
         11    1    1    2    0    0  0.12654033326E+02 -0.41914127134E+02  0.32672459626E+02  0.54629737605E+02  0.00000000000E+00 0.  1.
</event>
<event>
 7    1  0.3151015E-009  0.1002540E+03  0.7561462E-02  0.1279763E+00
          1   -1    0    0  501    0  0.00000000000E+00  0.00000000000E+00  0.38631308880E+02  0.38631308880E+02  0.00000000000E+00 0. -1.
         -1   -1    0    0    0  501 -0.00000000000E+00 -0.00000000000E+00 -0.41769329367E+03  0.41769329367E+03  0.00000000000E+00 0.  1.
         25    2    1    2    0    0 -0.31096905361E+02 -0.11547786178E+02 -0.31306511918E+03  0.33876168392E+03  0.12509732512E+03 0.  0.
          5    1    3    3  502    0  0.39163131568E+02  0.19518126815E+02 -0.60799141770E+02  0.75024770500E+02  0.41800000000E+01 0. -1.
         -5    1    3    3    0  502 -0.70260036929E+02 -0.31065912993E+02 -0.25226597741E+03  0.26373691342E+03  0.41800000000E+01 0. -1.
        -11    1    1    2    0    0 -0.26266069047E+01 -0.27726026008E+02  0.63872487952E+01  0.28573213491E+02  0.00000000000E+00 0. -1.
         11    1    1    2    0    0  0.33723512266E+02  0.39273812187E+02 -0.72384114400E+02  0.88989705139E+02  0.00000000000E+00 0.  1.
</event>
<event>
 7    1  0.3921360E-009  0.1176694E+03  0.7561462E-02  0.1246992E+00
         -1   -1    0    0    0  501 -0.00000000000E+00  0.00000000000E+00  0.16704665045E+03  0.16704665045E+03  0.00000000000E+00 0.  1.
          1   -1    0    0  501    0  0.00000000000E+00 -0.00000000000E+00 -0.99379170411E+02  0.99379170411E+02  0.00000000000E+00 0. -1.
         25    2    1    2    0    0  0.58310494017E+02 -0.18658181453E+02  0.38107871466E+01  0.13932024159E+03  0.12508943269E+03 0.  0.
          5    1    3    3  502    0  0.36781210531E+01 -0.64419872483E+02 -0.13059238265E+02  0.65965632334E+02  0.41800000000E+01 0. -1.
         -5    1    3    3    0  502  0.54632372964E+02  0.45761691030E+02  0.16870025412E+02  0.73354609255E+02  0.41800000000E+01 0. -1.
        -11    1    1    2    0    0 -0.18661367760E+02 -0.30732169822E+02  0.51126104773E+02  0.62502731924E+02  0.00000000000E+00 0.  1.
         11    1    1    2    0    0 -0.39649126257E+02  0.49390351275E+02  0.12730588122E+02  0.64602847351E+02  0.00000000000E+00 0. -1.
</event>
<event>
 7    1  0.3151015E-009  0.4688286E+03  0.7561462E-02  0.1022251E+00
          2   -1    0    0  501    0  0.00000000000E+00  0.00000000000E+00  0.70157533601E+03  0.70157533601E+03  0.00000000000E+00 0. -1.
         -2   -1    0    0    0  501 -0.00000000000E+00 -0.00000000000E+00 -0.32501409172E+03  0.32501409172E+03  0.00000000000E+00 0.  1.
         25    2    1    2    0    0 -0.36315616074E+03 -0.29143790932E+03  0.21651352790E+03  0.52853052238E+03  0.12509177931E+03 0.  0.
          5    1    3    3  502    0 -0.30066536779E+03 -0.20995340608E+03  0.11567633302E+03  0.38454984402E+03  0.41800000000E+01 0. -1.
         -5    1    3    3    0  502 -0.62490792959E+02 -0.81484503243E+02  0.10083719487E+03  0.14398067837E+03  0.41800000000E+01 0. -1.
        -11    1    1    2    0    0  0.30132392726E+03  0.26353534739E+03  0.11454278817E+03  0.41637367686E+03  0.00000000000E+00 0.  1.
         11    1    1    2    0    0  0.61832233484E+02  0.27902561935E+02  0.45504928219E+02  0.81685228483E+02  0.00000000000E+00 0. -1.
</event>
<event>
 6    1  0.3151015E-009  0.8245451E+02  0.7561462E-02  0.1322227E+00
         -2   -1    0    0    0  501 -0.00000000000E+00  0.00000000000E+00  0.13733837731E+02  0.13733837731E+02  0.00000000000E+00 0.  1.
          2   -1    0    0  501    0  0.00000000000E+00 -0.00000000000E+00 -0.10271273976E+04  0.10271273976E+04  0.00000000000E+00 0. -1.
          5    1    1    2  502    0 -0.46190830381E+02  0.10411043462E+02 -0.68947106924E+03  0.69110766915E+03  0.41800000000E+01 0. -1.
         -5    1    1    2    0  502  0.92637734095E+01 -0.21010216424E+02 -0.21343729648E+02  0.31627106842E+02  0.41800000000E+01 0. -1.
        -11    1    1    2    0    0  0.62412549663E+02 -0.73794162404E+01 -0.15439632035E+03  0.16669734814E+03  0.00000000000E+00 0. -1.
         11    1    1    2    0    0 -0.25485492691E+02  0.17978589202E+02 -0.14818244067E+03  0.15142911124E+03  0.00000000000E+00 0.  1.
</event>
<event>
 7    1  0.3151015E-009  0.1358281E+03  0.7561462E-02  0.1219055E+00
          1   -1    0    0  501    0  0.00000000000E+00  0.00000000000E+00  0.22865118341E+03  0.22865118341E+03  0.00000000000E+00 0. -1.
         -1   -1    0    0    0  501 -0.00000000000E+00 -0.00000000000E+00 -0.16563225643E+03  0.16563225643E+03  0.00000000000E+00 0.  1.
         25    2    1    2    0    0 -0.43806417385E+02  0.71406235866E+02 -0.10642663534E+03  0.18436778748E+03  0.12508796755E+03 0.  0.
          5    1    3    3  502    0  0.40880397298E+02  0.44032590746E+02 -0.54587577362E+02  0.81285619474E+02  0.41800000000E+01 0. -1.
         -5    1    3    3    0  502 -0.84686814683E+02  0.27373645120E+02 -0.51839057979E+02  0.10308216800E+03  0.41800000000E+01 0. -1.
        -11    1    1    2    0    0 -0.27758808807E+02 -0.19859545951E+02  0.33200232227E+02  0.47615212398E+02  0.00000000000E+00 0. -1.
         11    1    1    2    0    0  0.71565226192E+02 -0.51546689916E+02  0.13624533009E+03  0.16230043997E+03  0.00000000000E+00 0.  1.
</event>
<event>
 7    1  0.3151015E-009  0.1848395E+03  0.7561462E-02  0.1163200E+00
         -2   -1    0    0    0  501 -0.00000000000E+00  0.00000000000E+00  0.33446799739E+02  0.33446799739E+02  0.00000000000E+00 0.  1.
          2   -1    0    0  501    0  0.00000000000E+00 -0.00000000000E+00 -0.12224913242E+04  0.12224913242E+04  0.00000000000E+00 0. -1.
         25    2    1    2    0    0 -0.13831374474E+03 -0.76684180240E+02 -0.82258205994E+03  0.84693572066E+03  0.12509082345E+03 0.  0.
          5    1    3    3  502    0  0.20676445817E+02 -0.28259623407E+02 -0.15547437839E+03  0.15942357561E+03  0.41800000000E+01 0.  1.
         -5    1    3    3    0  502 -0.15899019056E+03 -0.48424556833E+02 -0.66710768155E+03  0.68751214504E+03  0.41800000000E+01 0.  1.
        -11    1    1    2    0    0  0.31624882912E+02 -0.72114966350E+01 -0.23193932972E+02  0.39876025750E+02  0.00000000000E+00 0.  1.
         11    1    1    2    0    0  0.10668886183E+03  0.83895676875E+02 -0.34326853158E+03  0.36912637756E+03  0.00000000000E+00 0. -1.
</event>
<event>
 7    1  0.3151015E-009  0.8818126E+02  0.7561462E-02  0.1307317E+00
         -1   -1    0    0    0  501 -0.00000000000E+00  0.00000000000E+00  0.17954767166E+03  0.17954767166E+03  0.00000000000E+00 0.  1.
          1   -1    0    0  501    0  0.00000000000E+00 -0.00000000000E+00 -0.77042704226E+02  0.77042704226E+02  0.00000000000E+00 0. -1.
         25    2    1    2    0    0  0.82160481440E+00 -0.43099704502E+02  0.40120294578E+02  0.13825340758E+03  0.12508439993E+03 0.  0.
          5    1    3    3  502    0  0.54502159508E+02 -0.77899514068E+00  0.43235080905E+02  0.69698183946E+02  0.41800000000E+01 0. -1.
         -5    1    3    3    0  502 -0.53680554694E+02 -0.42320709362E+02 -0.31147863268E+01  0.68555223630E+02  0.41800000000E+01 0. -1.
        -11    1    1    2    0    0  0.15039553658E+02  0.17282617996E+02 -0.20090886184E+02  0.30471638727E+02  0.00000000000E+00 0. -1.
         11    1    1    2    0    0 -0.15861158472E+02  0.25817086506E+02  0.82475559037E+02  0.87865329580E+02  0.00000000000E+00 0.  1.
</event>
<event>
 7    1  0.3151015E-009  0.8511591E+02  0.7561462E-02  0.1315130E+00
          2   -1    0    0  501    0  0.00000000000E+00  0.00000000000E+00  0.13257635935E+03  0.13257635935E+03  0.00000000000E+00 0. -1.
         -2   -1    0    0    0  501 -0.00000000000E+00 -0.00000000000E+00 -0.11299544321E+03  0.11299544321E+03  0.00000000000E+00 0.  1.
         25    2    1    2    0    0  0.17803422945E+02 -0.40611716267E+02  0.45046200644E+02  0.14015246695E+03  0.12508908999E+03 0.  0.
          5    1    3    3  502    0  0.47624576002E+02  0.65736799016E+01 -0.21810159653E+02  0.52957237191E+02  0.41800000000E+01 0. -1.
         -5    1    3    3    0  502 -0.29821153057E+02 -0.47185396169E+02  0.66856360297E+02  0.87195229763E+02  0.41800000000E+01 0. -1.
        -11    1    1    2    0    0 -0.25611841579E+02  0.10067259550E+01 -0.51401641242E+02  0.57437867723E+02  0.00000000000E+00 0.  1.
         11    1    1    2    0    0  0.78084186339E+01  0.39604990312E+02  0.25936356741E+02  0.47981467883E+02  0.00000000000E+00 0. -1.
</event>
<event>
 7    1  0.3151015E-009  0.1003369E+03  0.7561462E-02  0.1279589E+00
          2   -1    0    0  501    0  0.00000000000E+00  0.00000000000E+00  0.24299943991E+03  0.24299943991E+03  0.00000000000E+00 0. -1.
         -2   -1    0    0    0  501 -0.00000000000E+00 -0.00000000000E+00 -0.95229806165E+02  0.95229806165E+02  0.00000000000E+00 0.  1.
         25    2    1    2    0    0 -0.89655540977E+02 -0.33676687616E+01  0.14571814935E+03  0.21196038731E+03  0.12507585505E+03 0.  0.
          5    1    3    3  502    0 -0.75772641894E+02 -0.26495660212E+02  0.19348460090E+02  0.82676166926E+02  0.41800000000E+01 0. -1.
         -5    1    3    3    0  502 -0.13882899083E+02  0.23127991450E+02  0.12636968926E+03  0.12928422038E+03  0.41800000000E+01 0. -1.
        -11    1    1    2    0    0  0.79226762260E+02  0.11118506912E+02 -0.34762413911E+02  0.87229160692E+02  0.00000000000E+00 0.  1.
         11    1    1    2    0    0  0.10428778717E+02 -0.77508381503E+01  0.36813898302E+02  0.39039698074E+02  0.00000000000E+00 0. -1.
</event>
<event>
 7    1  0.3151015E-009  0.1081321E+03  0.7561462E-02  0.1264068E+00
         -2   -1    0    0    0  501 -0.00000000000E+00  0.00000000000E+00  0.42561154307E+02  0.42561154307E+02  0.00000000000E+00 0.  1.
          2   -1    0    0  501    0  0.00000000000E+00 -0.00000000000E+00 -0.34080451635E+03  0.34080451635E+03  0.00000000000E+00 0. -1.
         25    2    1    2    0    0 -0.82129943911E+01 -0.53357933904E+02 -0.18444423032E+03  0.22931747546E+03  0.12510918458E+03 0.  0.
          5    1    3    3  502    0  0.18035186618E+02  0.35545789297E+02 -0.80871827411E+02  0.90257941267E+02  0.41800000000E+01 0. -1.
         -5    1    3    3    0  502 -0.26248181009E+02 -0.88903723201E+02 -0.10357240291E+03  0.13905953419E+03  0.41800000000E+01 0. -1.
        -11    1    1    2    0    0 -0.20555437704E+02  0.50453221142E+02 -0.11262492417E+03  0.12510966025E+03  0.00000000000E+00 0. -1.
         11    1    1    2    0    0  0.28768432095E+02  0.29047127627E+01 -0.11742075478E+01  0.28938534946E+02  0.00000000000E+00 0.  1.
</event>
<event>
 7    1  0.3151015E-009  0.1057320E+03  0.7561462E-02  0.1268684E+00
          1   -1    0    0  501    0  0.00000000000E+00  0.00000000000E+00  0.47434377585E+02  0.47434377585E+02  0.00000000000E+00 0. -1.
         -1   -1    0    0    0  501 -0.00000000000E+00 -0.00000000000E+00 -0.32523543385E+03  0.32523543385E+03  0.00000000000E+00 0.  1.
         25    2    1    2    0    0 -0.12561158261E+02 -0.29667209184E+02 -0.23098182384E+03  0.26464139140E+03  0.12507812398E+03 0.  0.
          5    1    3    3  502    0  0.48037608004E+02 -0.32408510623E+02 -0.16492998588E+03  0.17486364970E+03  0.41800000000E+01 0. -1.
         -5    1    3    3    0  502 -0.60598766265E+02  0.27413014395E+01 -0.66051837964E+02  0.89777741701E+02  0.41800000000E+01 0. -1.
        -11    1    1    2    0    0  0.79951103404E+01 -0.30851431209E+02 -0.32812015159E+02  0.45742331989E+02  0.00000000000E+00 0.  1.
         11    1    1    2    0    0  0.45660479210E+01  0.60518640393E+02 -0.14007217261E+02  0.62286088046E+02  0.00000000000E+00 0. -1.
</event>
<event>
 7    1  0.3151015E-009  0.1309805E+03  0.7561462E-02  0.1226008E+00
         -2   -1    0    0    0  501 -0.00000000000E+00  0.00000000000E+00  0.46958109148E+02  0.46958109148E+02  0.00000000000E+00 0.  1.
          2   -1    0    0  501    0  0.00000000000E+00 -0.00000000000E+00 -0.61853129440E+03  0.61853129440E+03  0.00000000000E+00 0. -1.
         25    2    1    2    0    0  0.98232355347E+02 -0.69092868448E+02 -0.40795645638E+03  0.44328129104E+03  0.12508562096E+03 0.  0.
          5    1    3    3  502    0  0.53347720687E+02 -0.67285240269E+02 -0.99295209961E+02  0.13134037453E+03  0.41800000000E+01 0.  1.
         -5    1    3    3    0  502  0.44884634660E+02 -0.18076281787E+01 -0.30866124642E+03  0.31194091651E+03  0.41800000000E+01 0.  1.
        -11    1    1    2    0    0 -0.23668474631E+02 -0.66554641435E+01  0.27985068965E+01  0.24745171957E+02  0.00000000000E+00 0.  1.
         11    1    1    2    0    0 -0.74563880717E+02  0.75748332591E+02 -0.16641523577E+03  0.19746294056E+03  0.00000000000E+00 0. -1.
</event>
<event>
 7    1  0.3151015E-009  0.1157345E+03  0.7561462E-02  0.1250304E+00
          1   -1    0    0  501    0  0.00000000000E+00  0.00000000000E+00  0.13384955411E+04  0.13384955411E+04  0.00000000000E+00 0. -1.
         -1   -1    0    0    0  501 -0.00000000000E+00 -0.00000000000E+00 -0.14416574681E+02  0.14416574681E+02  0.00000000000E+00 0.  1.
         25    2    1    2    0    0 -0.50307171906E+02  0.30453841473E+02  0.10382649462E+04  0.10474257734E+04  0.12509358198E+03 0.  0.
          5    1    3    3  502    0 -0.88295309095E+01 -0.43980088287E+02  0.20996959426E+03  0.21474848474E+03  0.41800000000E+01 0.  1.
         -5    1    3    3    0  502 -0.41477640997E+02  0.74433929759E+02  0.82829535198E+03  0.83267728870E+03  0.41800000000E+01 0.  1.
        -11    1    1    2    0    0  0.23081966391E+02  0.28198681235E+02  0.56522337744E+02  0.67251152108E+02  0.00000000000E+00 0.  1.
         11    1    1    2    0    0  0.27225205516E+02 -0.58652522707E+02  0.22929168243E+03  0.23823519024E+03  0.00000000000E+00 0. -1.
</event>
<event>
 7    1  0.3151015E-009  0.9849890E+02  0.7561462E-02  0.1283485E+00
         -2   -1    0    0    0  501 -0.00000000000E+00  0.00000000000E+00  0.35774742140E+02  0.35774742140E+02  0.00000000000E+00 0.  1.
          2   -1    0    0  501    0  0.00000000000E+00 -0.00000000000E+00 -0.35836359785E+03  0.35836359785E+03  0.00000000000E+00 0. -1.
         25    2    1    2    0    0 -0.10935219346E+02  0.23647935180E+02 -0.21315641119E+03  0.24851971567E+03  0.12509032570E+03 0.  0.
          5    1    3    3  502    0  0.38207984324E+02  0.47602058540E+02 -0.59377101225E+02  0.85257953255E+02  0.41800000000E+01 0. -1.
         -5    1    3    3    0  502 -0.49143203669E+02 -0.23954123360E+02 -0.15377930996E+03  0.16326176241E+03  0.41800000000E+01 0. -1.
        -11    1    1    2    0    0  0.35566912766E+02  0.12103739645E+02 -0.91003418153E+02  0.98453684099E+02  0.00000000000E+00 0. -1.
         11    1    1    2    0    0 -0.24631693420E+02 -0.35751674825E+02 -0.18429026369E+02  0.47164940225E+02  0.00000000000E+00 0.  1.
</event>
<event>
 7    1  0.3151015E-009  0.8570848E+02  0.7561462E-02  0.1313590E+00
         -1   -1    0    0    0  501 -0.00000000000E+00  0.00000000000E+00  0.89967681217E+02  0.89967681217E+02  0.00000000000E+00 0.  1.
          1   -1    0    0  501    0  0.00000000000E+00 -0.00000000000E+00 -0.14896814294E+03  0.14896814294E+03  0.00000000000E+00 0. -1.
         25    2    1    2    0    0 -0.30612485232E+02  0.18704134365E+02 -0.54172960404E+02  0.14095416155E+03  0.12508555922E+03 0.  0.
          5    1    3    3  502    0  0.19246643917E+02 -0.12512881432E+02  0.30106551150E+02  0.38090449275E+02  0.41800000000E+01 0.  1.
         -5    1    3    3    0  502 -0.49859129150E+02  0.31217015797E+02 -0.84279511555E+02  0.10286371227E+03  0.41800000000E+01 0.  1.
        -11    1    1    2    0    0  0.55721566020E+02 -0.27966741365E+02  0.15653372648E+02  0.64281098447E+02  0.00000000000E+00 0.  1.
         11    1    1    2    0    0 -0.25109080787E+02  0.92626070000E+01 -0.20480873968E+02  0.33700564163E+02  0.00000000000E+00 0. -1.
</event>
<event>
 7    1  0.3151015E-009  0.1172907E+03  0.7561462E-02  0.1247635E+00
         -1   -1    0    0    0  501 -0.00000000000E+00  0.00000000000E+00  0.15127568067E+03  0.15127568067E+03  0.00000000000E+00 0.  1.
          1   -1    0    0  501    0  0.00000000000E+00 -0.00000000000E+00 -0.13117767856E+03  0.13117767856E+03  0.00000000000E+00 0. -1.
         25    2    1    2    0    0  0.66862704531E+02 -0.52308270439E+02 -0.18316497268E+02  0.15229708155E+03  0.12510847519E+03 0.  0.
          5    1    3    3  502    0 -0.25709687610E+02 -0.50405683401E+02 -0.18282716883E+02  0.59610830332E+02  0.41800000000E+01 0.  1.
         -5    1    3    3    0  502  0.92572392142E+02 -0.19025870379E+01 -0.33780384704E-01  0.92686251221E+02  0.41800000000E+01 0.  1.
        -11    1    1    2    0    0 -0.25413575284E+02  0.15817204431E+02  0.62967578120E+02  0.69720511035E+02  0.00000000000E+00 0.  1.
         11    1    1    2    0    0 -0.41449129247E+02  0.36491066008E+02 -0.24553078746E+02  0.60435766642E+02  0.00000000000E+00 0. -1.
</event>
<event>
 7    1  0.3151015E-009  0.1355522E+03  0.7561462E-02  0.1219442E+00
         -2   -1    0    0    0  501 -0.00000000000E+00  0.00000000000E+00  0.36087535920E+02  0.36087535920E+02  0.00000000000E+00 0.  1.
          2   -1    0    0  501    0  0.00000000000E+00 -0.00000000000E+00 -0.71837420626E+03  0.71837420626E+03  0.00000000000E+00 0. -1.
         25    2    1    2    0    0  0.50217349831E+02 -0.10460412323E+03 -0.40719118712E+03  0.44148844249E+03  0.12507428657E+03 0.  0.
          5    1    3    3  502    0  0.79454298322E+01 -0.86715936301E+02 -0.37566215370E+03  0.38564531578E+03  0.41800000000E+01 0. -1.
         -5    1    3    3    0  502  0.42271919999E+02 -0.17888186934E+02 -0.31529033427E+02  0.55843126712E+02  0.41800000000E+01 0. -1.
        -11    1    1    2    0    0  0.84519793968E+01  0.68342222072E+02 -0.19747327753E+03  0.20913581858E+03  0.00000000000E+00 0. -1.
         11    1    1    2    0    0 -0.58669329228E+02  0.36261901162E+02 -0.77622205692E+02  0.10383748112E+03  0.00000000000E+00 0.  1.
</event>
<event>
 7    1  0.3151015E-009  0.1864130E+03  0.7561462E-02  0.1161737E+00
         -3   -1    0    0    0  501 -0.00000000000E+00  0.00000000000E+00  0.10105483715E+03  0.10105483715E+03  0.00000000000E+00 0.  1.
          3   -1    0    0  501    0  0.00000000000E+00 -0.00000000000E+00 -0.39270903774E+03  0.39270903774E+03  0.00000000000E+00 0. -1.
         25    2    1    2    0    0  0.13706909512E+03  0.75737433288E+02 -0.81037848914E+02  0.21619137277E+03  0.12508989194E+03 0.  0.
          5    1    3    3  502    0 -0.17448572882E+02  0.22872354683E+02  0.79836059895E+01  0.30146437085E+02  0.41800000000E+01 0.  1.
         -5    1    3    3    0  502  0.15451766800E+03  0.52865078605E+02 -0.89021454903E+02  0.18604493568E+03  0.41800000000E+01 0.  1.
        -11    1    1    2    0    0 -0.30742798851E+02 -0.66988320643E+02 -0.77017089589E+02  0.10660294026E+03  0.00000000000E+00 0.  1.
         11    1    1    2    0    0 -0.10632629627E+03 -0.87491126448E+01 -0.13359926209E+03  0.17096956185E+03  0.00000000000E+00 0. -1.
</event>
<event>
 7    1  0.3151015E-009  0.1685049E+03  0.7561462E-02  0.1179416E+00
          2   -1    0    0  501    0  0.00000000000E+00  0.00000000000E+00  0.39451718812E+03  0.39451718812E+03  0.00000000000E+00 0. -1.
         -2   -1    0    0    0  501 -0.00000000000E+00 -0.00000000000E+00 -0.96797313207E+02  0.96797313207E+02  0.00000000000E+00 0.  1.
         25    2    1    2    0    0  0.65121642572E+02  0.14883693315E+03  0.16820126496E+03  0.26520140689E+03  0.12508740818E+03 0.  0.
          5    1    3    3  502    0  0.41538262175E+02  0.26004557100E+02  0.12244331648E+03  0.13195265198E+03  0.41800000000E+01 0. -1.
         -5    1    3    3    0  502  0.23583380397E+02  0.12283237605E+03  0.45757948481E+02  0.13324875492E+03  0.41800000000E+01 0. -1.
        -11    1    1    2    0    0 -0.50139896248E+02 -0.12276539325E+03  0.51078334074E+02  0.14210681612E+03  0.00000000000E+00 0.  1.
         11    1    1    2    0    0 -0.14981746324E+02 -0.26071539902E+02  0.78440275880E+02  0.84006278312E+02  0.00000000000E+00 0. -1.
</event>
<event>
 7    1  0.3151015E-009  0.3535545E+03  0.7561462E-02  0.1061166E+00
         -2   -1    0    0    0  501 -0.00000000000E+00  0.00000000000E+00  0.50257592219E+02  0.50257592219E+02  0.00000000000E+00 0.  1.
          2   -1    0    0  501    0  0.00000000000E+00 -0.00000000000E+00 -0.30790948325E+04  0.30790948325E+04  0.00000000000E+00 0. -1.
         25    2    1    2    0    0 -0.32278588768E+03 -0.12626368871E+03 -0.93556476651E+03  0.10055158177E+04  0.12508948388E+03 0.  0.
          5    1    3    3  502    0 -0.15361913344E+03 -0.43204361237E+02 -0.59740179258E+03  0.61836221518E+03  0.41800000000E+01 0.  1.
         -5    1    3    3    0  502 -0.16916675424E+03 -0.83059327471E+02 -0.33816297394E+03  0.38715360254E+03  0.41800000000E+01 0.  1.
        -11    1    1    2    0    0  0.93898447650E+02 -0.69244898052E+01 -0.56384232816E+03  0.57164940134E+03  0.00000000000E+00 0.  1.
         11    1    1    2    0    0  0.22888744003E+03  0.13318817851E+03 -0.15294301456E+04  0.15521872056E+04  0.00000000000E+00 0. -1.
</event>
<event>
 7    1  0.3151015E-009  0.8905924E+02  0.7561462E-02  0.1305146E+00
         -1   -1    0    0    0  501 -0.00000000000E+00  0.00000000000E+00  0.75195985001E+02  0.75195985001E+02  0.00000000000E+00 0.  1.
          1   -1    0    0  501    0  0.00000000000E+00 -0.00000000000E+00 -0.19390482119E+03  0.19390482119E+03  0.00000000000E+00 0. -1.
         25    2    1    2    0    0  0.53207778941E+02 -0.13707584157E+02 -0.10185499797E+03  0.17041421022E+03  0.12509035466E+03 0.  0.
          5    1    3    3  502    0  0.26878777670E+02 -0.40816792168E+02 -0.11899523722E+03  0.12870826738E+03  0.41800000000E+01 0. -1.
         -5    1    3    3    0  502  0.26329001271E+02  0.27109208011E+02  0.17140239242E+02  0.41705942840E+02  0.41800000000E+01 0. -1.
        -11    1    1    2    0    0 -0.22569639286E+02 -0.30079490963E+02 -0.24234353565E+02  0.44737772484E+02  0.00000000000E+00 0. -1.
         11    1    1    2    0    0 -0.30638139655E+02  0.43787075121E+02  0.73805153481E+01  0.53948823490E+02  0.00000000000E+00 0.  1.
</event>
<event>
 7    1  0.3151015E-009  0.1024985E+03  0.7561462E-02  0.1275128E+00
         -2   -1    0    0    0  501 -0.00000000000E+00  0.00000000000E+00  0.38411613190E+03  0.38411613190E+03  0.00000000000E+00 0.  1.
          2   -1    0    0  501    0  0.00000000000E+00 -0.00000000000E+00 -0.33745072539E+02  0.33745072539E+02  0.00000000000E+00 0. -1.
         25    2    1    2    0    0  0.20124761204E+02 -0.31532877790E+01  0.15496090450E+03  0.20018790945E+03  0.12508943973E+03 0.  0.
          5    1    3    3  502    0 -0.45695284662E+02 -0.89682323798E+01  0.11172302848E+03  0.12111150121E+03  0.41800000000E+01 0. -1.
         -5    1    3    3    0  502  0.65820045866E+02  0.58149446009E+01  0.43237876017E+02  0.79076408245E+02  0.41800000000E+01 0. -1.
        -11    1    1    2    0    0 -0.54341535282E+02  0.14042381445E+02  0.14737182530E+03  0.15769795759E+03  0.00000000000E+00 0.  1.
         11    1    1    2    0    0  0.34216774078E+02 -0.10889093666E+02  0.48038329561E+02  0.59975337400E+02  0.00000000000E+00 0. -1.
</event>
<event>
 7    1  0.3151015E-009  0.1105249E+03  0.7561462E-02  0.1259601E+00
         -2   -1    0    0    0  501 -0.00000000000E+00  0.00000000000E+00  0.11253866878E+02  0.11253866878E+02  0.00000000000E+00 0.  1.
          2   -1    0    0  501    0  0.00000000000E+00 -0.00000000000E+00 -0.19978547131E+04  0.19978547131E+04  0.00000000000E+00 0. -1.
         25    2    1    2    0    0 -0.10243148547E+02 -0.19243793594E+02 -0.17404440409E+04  0.17450697014E+04  0.12509019706E+03 0.  0.
          5    1    3    3  502    0  0.57410974658E+02 -0.12029273980E+02 -0.81224077285E+03  0.81436679016E+03  0.41800000000E+01 0. -1.
         -5    1    3    3    0  502 -0.67654123205E+02 -0.72145196135E+01 -0.92820326807E+03  0.93070291121E+03  0.41800000000E+01 0. -1.
        -11    1    1    2    0    0  0.15371012893E+02 -0.35713728689E+02 -0.79878140937E+02  0.88838369265E+02  0.00000000000E+00 0. -1.
         11    1    1    2    0    0 -0.51278643461E+01  0.54957522283E+02 -0.16627866433E+03  0.17520050930E+03  0.00000000000E+00 0.  1.
</event>
<event>
 7    1  0.3151015E-009  0.1256083E+03  0.7561462E-02  0.1234122E+00
          2   -1    0    0  501    0  0.00000000000E+00  0.00000000000E+00  0.40212954218E+02  0.40212954218E+02  0.00000000000E+00 0.  1.
         -2   -1    0    0    0  501 -0.00000000000E+00 -0.00000000000E+00 -0.48595755724E+03  0.48595755724E+03  0.00000000000E+00 0. -1.
         25    2    1    2    0    0  0.80900807435E+02 -0.35363261737E+02 -0.25905438096E+03  0.30091832617E+03  0.12508863181E+03 0.  0.
          5    1    3    3  502    0  0.10109438747E+03 -0.48993470876E+02 -0.14113335852E+03  0.18043428902E+03  0.41800000000E+01 0.  1.
         -5    1    3    3    0  502 -0.20193580035E+02  0.13630209139E+02 -0.11792102244E+03  0.12048403715E+03  0.41800000000E+01 0.  1.
        -11    1    1    2    0    0 -0.67901292201E+02  0.57121989183E+02 -0.17722301656E+03  0.19819562238E+03  0.00000000000E+00 0. -1.
         11    1    1    2    0    0 -0.12999515234E+02 -0.21758727445E+02 -0.94672055015E+01  0.27056562907E+02  0.00000000000E+00 0.  1.
</event>
<event>
 7    1  0.3151015E-009  0.1120217E+03  0.7561462E-02  0.1256871E+00
          2   -1    0    0  501    0  0.00000000000E+00  0.00000000000E+00  0.11485517631E+03  0.11485517631E+03  0.00000000000E+00 0. -1.
         -2   -1    0    0    0  501 -0.00000000000E+00 -0.00000000000E+00 -0.12560042723E+03  0.12560042723E+03  0.00000000000E+00 0.  1.
         25    2    1    2    0    0  0.25855236687E+02  0.43220164739E+02  0.50579426971E+01  0.13494221820E+03  0.12508934233E+03 0.  0.
          5    1    3    3  502    0 -0.49452799468E+02  0.30487897569E+02  0.48941702601E+01  0.58450975834E+02  0.41800000000E+01 0.  1.
         -5    1    3    3    0  502  0.75308036155E+02  0.12732267170E+02  0.16377243708E+00  0.76491242363E+02  0.41800000000E+01 0.  1.
        -11    1    1    2    0    0  0.32289647279E+01  0.19714177574E+02  0.19322885824E+02  0.27792965427E+02  0.00000000000E+00 0. -1.
         11    1    1    2    0    0 -0.29084201415E+02 -0.62934342314E+02 -0.35126079445E+02  0.77720419913E+02  0.00000000000E+00 0.  1.
</event>
<event>
 7    1  0.3151015E-009  0.1118321E+03  0.7561462E-02  0.1257214E+00
          2   -1    0    0  501    0  0.00000000000E+00  0.00000000000E+00  0.38269379255E+03  0.38269379255E+03  0.00000000000E+00 0.  1.
         -2   -1    0    0    0  501 -0.00000000000E+00 -0.00000000000E+00 -0.35286687513E+02  0.35286687513E+02  0.00000000000E+00 0. -1.
         25    2    1    2    0    0  0.22805978816E+01 -0.31910629024E+02  0.22647396451E+03  0.26069239624E+03  0.12508628817E+03 0.  0.
          5    1    3    3  502    0  0.62616642688E+02 -0.51280600734E+01  0.10971813535E+03  0.12650170973E+03  0.41800000000E+01 0. -1.
         -5    1    3    3    0  502 -0.60336044806E+02 -0.26782568951E+02  0.11675582917E+03  0.13419068651E+03  0.41800000000E+01 0. -1.
        -11    1    1    2    0    0  0.41579922486E+02  0.23196349333E+01  0.80727456447E+02  0.90836076999E+02  0.00000000000E+00 0.  1.
         11    1    1    2    0    0 -0.43860520368E+02  0.29590994091E+02  0.40205684083E+02  0.66452006823E+02  0.00000000000E+00 0. -1.
</event>
<event>
 7    1  0.3151015E-009  0.1587738E+03  0.7561462E-02  0.1190088E+00
          2   -1    0    0  501    0  0.00000000000E+00  0.00000000000E+00  0.39783852454E+03  0.39783852454E+03  0.00000000000E+00 0. -1.
         -2   -1    0    0    0  501 -0.00000000000E+00 -0.00000000000E+00 -0.97103028452E+02  0.97103028452E+02  0.00000000000E+00 0.  1.
         25    2    1    2    0    0 -0.36631145050E+02 -0.11379028115E+03  0.29766929244E+03  0.34430256530E+03  0.12508868828E+03 0.  0.
          5    1    3    3  502    0  0.35895840281E+02 -0.55188659701E+01  0.10897050138E+03  0.11493916566E+03  0.41800000000E+01 0.  1.
         -5    1    3    3    0  502 -0.72526985331E+02 -0.10827141518E+03  0.18869879106E+03  0.22936339964E+03  0.41800000000E+01 0.  1.
        -11    1    1    2    0    0 -0.14873095982E+02  0.94411218919E+02  0.15018819689E+01  0.95587357382E+02  0.00000000000E+00 0.  1.
         11    1    1    2    0    0  0.51504241032E+02  0.19379062236E+02  0.15643216780E+01  0.55051630309E+02  0.00000000000E+00 0. -1.
</event>
<event>
 7    1  0.3151015E-009  0.1152311E+03  0.7561462E-02  0.1251178E+00
          1   -1    0    0  501    0  0.00000000000E+00  0.00000000000E+00  0.94030570950E+02  0.94030570950E+02  0.00000000000E+00 0. -1.
         -1   -1    0    0    0  501 -0.00000000000E+00 -0.00000000000E+00 -0.25219035015E+03  0.25219035015E+03  0.00000000000E+00 0.  1.
         25    2    1    2    0    0 -0.16230697918E+02  0.56060075107E+02  0.19396662009E+02  0.13939958101E+03  0.12509934098E+03 0.  0.
          5    1    3    3  502    0 -0.34834782691E+02 -0.30383257024E+02 -0.72040557193E+01  0.46967810374E+02  0.41800000000E+01 0.  1.
         -5    1    3    3    0  502  0.18604084772E+02  0.86443332131E+02  0.26600717729E+02  0.92431770641E+02  0.41800000000E+01 0.  1.
        -11    1    1    2    0    0  0.59976380082E+01 -0.74338887512E+02 -0.16797167013E+03  0.18378444935E+03  0.00000000000E+00 0.  1.
         11    1    1    2    0    0  0.10233059910E+02  0.18278812404E+02 -0.95847710851E+01  0.23036890736E+02  0.00000000000E+00 0. -1.
</event>
<event>
 7    1  0.3151015E-009  0.9232706E+02  0.7561462E-02  0.1297312E+00
          2   -1    0    0  501    0  0.00000000000E+00  0.00000000000E+00  0.34171630537E+03  0.34171630537E+03  0.00000000000E+00 0. -1.
         -2   -1    0    0    0  501 -0.00000000000E+00 -0.00000000000E+00 -0.42915161466E+02  0.42915161466E+02  0.00000000000E+00 0.  1.
         25    2    1    2    0    0 -0.17650975018E+01 -0.45153255331E+02  0.12755369204E+03  0.18427526580E+03  0.12508196192E+03 0.  0.
          5    1    3    3  502    0 -0.13332710472E+02 -0.63705013989E+02  0.11647627174E+02  0.66251261080E+02  0.41800000000E+01 0.  1.
         -5    1    3    3    0  502  0.11567612970E+02  0.18551758658E+02  0.11590606486E+03  0.11802400472E+03  0.41800000000E+01 0.  1.
        -11    1    1    2    0    0 -0.29605143074E+02  0.56524738384E+02  0.14317617450E+03  0.15675116424E+03  0.00000000000E+00 0. -1.
         11    1    1    2    0    0  0.31370240576E+02 -0.11371483054E+02  0.28071277367E+02  0.43605036792E+02  0.00000000000E+00 0.  1.
</event>
<event>
 7    1  0.3151015E-009  0.9858587E+02  0.7561462E-02  0.1283298E+00
         -2   -1    0    0    0  501 -0.00000000000E+00  0.00000000000E+00  0.19660395694E+03  0.19660395694E+03  0.00000000000E+00 0.  1.
          2   -1    0    0  501    0  0.00000000000E+00 -0.00000000000E+00 -0.65219036021E+02  0.65219036021E+02  0.00000000000E+00 0. -1.
         25    2    1    2    0    0  0.27334549679E+02 -0.15571345556E+02  0.80788878579E+02  0.15219645358E+03  0.12508906096E+03 0.  0.
          5    1    3    3  502    0 -0.13591906794E+02  0.47308762121E+02  0.13209226622E+02  0.51135261530E+02  0.41800000000E+01 0.  1.
         -5    1    3    3    0  502  0.40926456473E+02 -0.62880107677E+02  0.67579651956E+02  0.10106119205E+03  0.41800000000E+01 0.  1.
        -11    1    1    2    0    0 -0.40550781835E+02  0.31920392590E+02 -0.33633864644E+01  0.51716435869E+02  0.00000000000E+00 0. -1.
         11    1    1    2    0    0  0.13216232156E+02 -0.16349047035E+02  0.53959428807E+02  0.57910103509E+02  0.00000000000E+00 0.  1.
</event>
<event>
 7    1  0.3151015E-009  0.1683673E+03  0.7561462E-02  0.1179561E+00
         -4   -1    0    0    0  501 -0.00000000000E+00  0.00000000000E+00  0.10955225917E+03  0.10955225917E+03  0.00000000000E+00 0. -1.
          4   -1    0    0  501    0  0.00000000000E+00 -0.00000000000E+00 -0.37309268047E+03  0.37309268047E+03  0.00000000000E+00 0.  1.
         25    2    1    2    0    0  0.16161065588E+03 -0.81930324469E+01 -0.74031287772E+02  0.21751766494E+03  0.12509265813E+03 0.  0.
          5    1    3    3  502    0  0.89979243406E+02  0.16652925237E+02 -0.10154184003E+03  0.13675453133E+03  0.41800000000E+01 0.  1.
         -5    1    3    3    0  502  0.71631412471E+02 -0.24845957684E+02  0.27510552255E+02  0.80763133614E+02  0.41800000000E+01 0.  1.
        -11    1    1    2    0    0 -0.13999698443E+03 -0.10817247424E+02 -0.10352276346E+03  0.17445094166E+03  0.00000000000E+00 0. -1.
         11    1    1    2    0    0 -0.21613671446E+02  0.19010279871E+02 -0.85986370069E+02  0.90676333030E+02  0.00000000000E+00 0.  1.
</event>
<event>
 7    1  0.3151015E-009  0.1236374E+03  0.7561462E-02  0.1237214E+00
          2   -1    0    0  501    0  0.00000000000E+00  0.00000000000E+00  0.63662369482E+03  0.63662369482E+03  0.00000000000E+00 0. -1.
         -2   -1    0    0    0  501 -0.00000000000E+00 -0.00000000000E+00 -0.33545083864E+02  0.33545083864E+02  0.00000000000E+00 0.  1.
         25    2    1    2    0    0 -0.33352162128E+02 -0.36166352698E+02  0.44987574771E+03  0.46952782762E+03  0.12509124967E+03 0.  0.
          5    1    3    3  502    0  0.70000889182E+01  0.35034867820E+02  0.26334023252E+03  0.26578561600E+03  0.41800000000E+01 0. -1.
         -5    1    3    3    0  502 -0.40352251047E+02 -0.71201220518E+02  0.18653551519E+03  0.20374221162E+03  0.41800000000E+01 0. -1.
        -11    1    1    2    0    0  0.26126852176E+02  0.80398886342E+02  0.94701550420E+02  0.12694477926E+03  0.00000000000E+00 0.  1.
         11    1    1    2    0    0  0.72253099520E+01 -0.44232533644E+02  0.58501312828E+02  0.73696171807E+02  0.00000000000E+00 0. -1.
</event>
<event>
 7    1  0.3151015E-009  0.2145935E+03  0.7561462E-02  0.1137979E+00
          2   -1    0    0  501    0  0.00000000000E+00  0.00000000000E+00  0.11016877320E+04  0.11016877320E+04  0.00000000000E+00 0. -1.
         -2   -1    0    0    0  501 -0.00000000000E+00 -0.00000000000E+00 -0.42487434200E+02  0.42487434200E+02  0.00000000000E+00 0.  1.
         25    2    1    2    0    0 -0.16196924609E+03  0.90693497887E+02  0.61936157618E+03  0.65857061710E+03  0.12508856233E+03 0.  0.
          5    1    3    3  502    0 -0.14888910244E+03  0.12007860159E+03  0.53587626986E+03  0.56900587376E+03  0.41800000000E+01 0. -1.
         -5    1    3    3    0  502 -0.13080143651E+02 -0.29385103699E+02  0.83485306320E+02  0.89564743336E+02  0.41800000000E+01 0. -1.
        -11    1    1    2    0    0  0.12499146665E+03 -0.21293086637E+02  0.28545206432E+03  0.31234459064E+03  0.00000000000E+00 0.  1.
         11    1    1    2    0    0  0.36977779438E+02 -0.69400411250E+02  0.15438665729E+03  0.17325995845E+03  0.00000000000E+00 0. -1.
</event>
<event>
 7    1  0.3151015E-009  0.1205933E+03  0.7561462E-02  0.1242122E+00
          1   -1    0    0  501    0  0.00000000000E+00  0.00000000000E+00  0.21134111637E+03  0.21134111637E+03  0.00000000000E+00 0. -1.
         -1   -1    0    0    0  501 -0.00000000000E+00 -0.00000000000E+00 -0.92148540117E+02  0.92148540117E+02  0.00000000000E+00 0.  1.
         25    2    1    2    0    0 -0.89952863782E+01 -0.78948088119E+02  0.12941304110E+03  0.19674408166E+03  0.12508710032E+03 0.  0.
          5    1    3    3  502    0 -0.26128204224E+02 -0.10961223023E+03  0.10079560999E+03  0.15124401300E+03  0.41800000000E+01 0. -1.
         -5    1    3    3    0  502  0.17132917846E+02  0.30664142115E+02  0.28617431103E+02  0.45500068665E+02  0.41800000000E+01 0. -1.
        -11    1    1    2    0    0  0.19827691358E+02  0.81619798320E+01 -0.25711638667E+02  0.33479002708E+02  0.00000000000E+00 0.  1.
         11    1    1    2    0    0 -0.10832404980E+02  0.70786108287E+02  0.15491173825E+02  0.73266572122E+02  0.00000000000E+00 0. -1.
</event>
<event>
 7    1  0.3151015E-009  0.1029632E+03  0.7561462E-02  0.1274185E+00
          2   -1    0    0  501    0  0.00000000000E+00  0.00000000000E+00  0.29469506564E+03  0.29469506564E+03  0.00000000000E+00 0. -1.
         -2   -1    0    0    0  501 -0.00000000000E+00 -0.00000000000E+00 -0.67237003665E+02  0.67237003665E+02  0.00000000000E+00 0.  1.
         25    2    1    2    0    0 -0.58010247781E+02  0.36531612509E+02  0.13040796009E+03  0.19326044283E+03  0.12507443842E+03 0.  0.
          5    1    3    3  502    0  0.32912497544E+02 -0.93566116788E+01  0.60592232442E+02  0.69711331281E+02  0.41800000000E+01 0.  1.
         -5    1    3    3    0  502 -0.90922745325E+02  0.45888224188E+02  0.69815727652E+02  0.12354911155E+03  0.41800000000E+01 0.  1.
        -11    1    1    2    0    0  0.40316241307E+02 -0.18837185356E+02 -0.20136007779E+02  0.48843604234E+02  0.00000000000E+00 0.  1.
         11    1    1    2    0    0  0.17694006474E+02 -0.17694427153E+02  0.11718610966E+03  0.11982802224E+03  0.00000000000E+00 0. -1.
</event>
<event>
 7    1  0.3151015E-009  0.1096310E+03  0.7561462E-02  0.1261255E+00
          2   -1    0    0  501    0  0.00000000000E+00  0.00000000000E+00  0.15085100806E+04  0.15085100806E+04  0.00000000000E+00 0. -1.
         -2   -1    0    0    0  501 -0.00000000000E+00 -0.00000000000E+00 -0.10905173771E+02  0.10905173771E+02  0.00000000000E+00 0.  1.
         25    2    1    2    0    0 -0.30457079468E+02 -0.18667061040E+02  0.11805997631E+04  0.11877456416E+04  0.12509122889E+03 0.  0.
          5    1    3    3  502    0 -0.46143524691E+02  0.44726703338E+02  0.54849332559E+03  0.55226090164E+03  0.41800000000E+01 0.  1.
         -5    1    3    3    0  502  0.15686445224E+02 -0.63393764378E+02  0.63210643756E+03  0.63548473996E+03  0.41800000000E+01 0.  1.
        -11    1    1    2    0    0 -0.22915121785E+02 -0.13995164456E+02  0.43676053913E+02  0.51269534034E+02  0.00000000000E+00 0.  1.
         11    1    1    2    0    0  0.53372201253E+02  0.32662225495E+02  0.27332908981E+03  0.28040007877E+03  0.00000000000E+00 0. -1.
</event>
<event>
 7    1  0.3151015E-009  0.1216577E+03  0.7561462E-02  0.1240387E+00
         -2   -1    0    0    0  501 -0.00000000000E+00  0.00000000000E+00  0.30253794695E+02  0.30253794695E+02  0.00000000000E+00 0.  1.
          2   -1    0    0  501    0  0.00000000000E+00 -0.00000000000E+00 -0.49886324204E+03  0.49886324204E+03  0.00000000000E+00 0. -1.
         25    2    1    2    0    0  0.26632468481E+02  0.48441905797E+02 -0.27262383803E+03  0.30500353586E+03  0.12508994046E+03 0.  0.
          5    1    3    3  502    0 -0.19179849779E+02  0.79082329646E+02 -0.16110473383E+03  0.18053833156E+03  0.41800000000E+01 0. -1.
         -5    1    3    3    0  502  0.45812318260E+02 -0.30640423849E+02 -0.11151910420E+03  0.12446520429E+03  0.41800000000E+01 0. -1.
        -11    1    1    2    0    0  0.13889022051E+02  0.21577487766E+02 -0.68249304482E+02  0.72914062252E+02  0.00000000000E+00 0. -1.
         11    1    1    2    0    0 -0.40521490533E+02 -0.70019393562E+02 -0.12773630483E+03  0.15119943863E+03  0.00000000000E+00 0.  1.
</event>
<event>
 7    1  0.3151015E-009  0.1461810E+03  0.7561462E-02  0.1205246E+00
         -1   -1    0    0    0  501 -0.00000000000E+00  0.00000000000E+00  0.19815442763E+03  0.19815442763E+03  0.00000000000E+00 0.  1.
          1   -1    0    0  501    0  0.00000000000E+00 -0.00000000000E+00 -0.12837190418E+03  0.12837190418E+03  0.00000000000E+00 0. -1.
         25    2    1    2    0    0 -0.27871948927E+02 -0.98925926393E+02 -0.15344159319E+02  0.16262565358E+03  0.12509386687E+03 0.  0.
          5    1    3    3  502    0  0.30774727548E+01 -0.12078851976E+03  0.15922891327E+01  0.12091048395E+03  0.41800000000E+01 0. -1.
         -5    1    3    3    0  502 -0.30949421681E+02  0.21862593369E+02 -0.16936448452E+02  0.41715169631E+02  0.41800000000E+01 0. -1.
        -11    1    1    2    0    0  0.40815994805E+02  0.81201169029E+01  0.46458203777E+01  0.41874400024E+02  0.00000000000E+00 0.  1.
         11    1    1    2    0    0 -0.12944045878E+02  0.90805809490E+02  0.80480862394E+02  0.12202627821E+03  0.00000000000E+00 0. -1.
</event>
<event>
 7    1  0.3151015E-009  0.2671955E+03  0.7561462E-02  0.1102896E+00
          1   -1    0    0  501    0  0.00000000000E+00  0.00000000000E+00  0.47555110244E+03  0.47555110244E+03  0.00000000000E+00 0. -1.
         -1   -1    0    0    0  501 -0.00000000000E+00 -0.00000000000E+00 -0.16223962166E+03  0.16223962166E+03  0.00000000000E+00 0.  1.
         25    2    1    2    0    0 -0.14873944885E+02  0.25423301588E+03  0.13587347388E+03  0.31458671023E+03  0.12509011453E+03 0.  0.
          5    1    3    3  502    0 -0.57151816766E+02  0.19895178448E+03  0.13033170016E+03  0.24464661692E+03  0.41800000000E+01 0.  1.
         -5    1    3    3    0  502  0.42277871881E+02  0.55281231400E+02  0.55417737173E+01  0.69940093307E+02  0.41800000000E+01 0.  1.
        -11    1    1    2    0    0  0.24430887717E+02 -0.94333176478E+02  0.21787524772E+02  0.99851453143E+02  0.00000000000E+00 0.  1.
         11    1    1    2    0    0 -0.95569428322E+01 -0.15989983940E+03  0.15565048213E+03  0.22335256073E+03  0.00000000000E+00 0. -1.
</event>
<event>
 7    1  0.3151015E-009  0.7970836E+02  0.7561462E-02  0.1329881E+00
         -1   -1    0    0    0  501 -0.00000000000E+00  0.00000000000E+00  0.61601642947E+02  0.61601642947E+02  0.00000000000E+00 0. -1.
          1   -1    0    0  501    0  0.00000000000E+00 -0.00000000000E+00 -0.21313616184E+03  0.21313616184E+03  0.00000000000E+00 0.  1.
         25    2    1    2    0    0 -0.22523694914E+02  0.18589667698E+02 -0.60429443540E+02  0.14195872969E+03  0.12509064998E+03 0.  0.
          5    1    3    3  502    0  0.31024768728E+02 -0.74322837202E+01  0.22877157244E+02  0.39479258345E+02  0.41800000000E+01 0.  1.
         -5    1    3    3    0  502 -0.53548463641E+02  0.26021951418E+02 -0.83306600784E+02  0.10247947135E+03  0.41800000000E+01 0.  1.
        -11    1    1    2    0    0 -0.63047151353E+01 -0.34199130486E+02 -0.93649131853E+02  0.99897396641E+02  0.00000000000E+00 0.  1.
         11    1    1    2    0    0  0.28828410049E+02  0.15609462788E+02  0.25440564979E+01  0.32881678454E+02  0.00000000000E+00 0. -1.
</event>
<event>
 7    1  0.3151015E-009  0.8878334E+02  0.7561462E-02  0.1305825E+00
          4   -1    0    0  501    0  0.00000000000E+00  0.00000000000E+00  0.59589447838E+03  0.59589447838E+03  0.00000000000E+00 0.  1.
         -4   -1    0    0    0  501 -0.00000000000E+00 -0.00000000000E+00 -0.26840935459E+02  0.26840935459E+02  0.00000000000E+00 0. -1.
         25    2    1    2    0    0 -0.10360692393E+02 -0.85714536088E+01  0.48282938316E+03  0.49895069953E+03  0.12508706391E+03 0.  0.
          5    1    3    3  502    0 -0.33467446359E+02  0.37379780779E+02  0.93293603868E+02  0.10601173001E+03  0.41800000000E+01 0. -1.
         -5    1    3    3    0  502  0.23106753966E+02 -0.45951234388E+02  0.38953577929E+03  0.39293896952E+03  0.41800000000E+01 0. -1.
        -11    1    1    2    0    0  0.39498404660E+02  0.20054316821E+02  0.80591476860E+02  0.91963502197E+02  0.00000000000E+00 0.  1.
         11    1    1    2    0    0 -0.29137712267E+02 -0.11482863212E+02  0.56326829038E+01  0.31821212114E+02  0.00000000000E+00 0. -1.
</event>
<event>
 7    1  0.3151015E-009  0.1278232E+03  0.7561462E-02  0.1230722E+00
         -1   -1    0    0    0  501 -0.00000000000E+00  0.00000000000E+00  0.65818391303E+02  0.65818391303E+02  0.00000000000E+00 0.  1.
          1   -1    0    0  501    0  0.00000000000E+00 -0.00000000000E+00 -0.31006194826E+03  0.31006194826E+03  0.00000000000E+00 0. -1.
         25    2    1    2    0    0  0.25490214408E+02  0.72380825347E+02 -0.69291841044E+02  0.16228971308E+03  0.12509139390E+03 0.  0.
          5    1    3    3  502    0  0.29922324268E+02  0.10477376946E+03 -0.69536711318E+02  0.12932793541E+03  0.41800000000E+01 0. -1.
         -5    1    3    3    0  502 -0.44321098594E+01 -0.32392944108E+02  0.24487027347E+00  0.32961777671E+02  0.41800000000E+01 0. -1.
        -11    1    1    2    0    0 -0.10822128925E+02 -0.90038955227E+02 -0.99054878109E+02  0.13429817873E+03  0.00000000000E+00 0.  1.
         11    1    1    2    0    0 -0.14668085483E+02  0.17658129880E+02 -0.75896837803E+02  0.79292447755E+02  0.00000000000E+00 0. -1.
</event>
<event>
 7    1  0.3151015E-009  0.1232569E+03  0.7561462E-02  0.1237819E+00
         -2   -1    0    0    0  501 -0.00000000000E+00  0.00000000000E+00  0.16624211859E+02  0.16624211859E+02  0.00000000000E+00 0. -1.
          2   -1    0    0  501    0  0.00000000000E+00 -0.00000000000E+00 -0.10942336649E+04  0.10942336649E+04  0.00000000000E+00 0.  1.
         25    2    1    2    0    0  0.33051559050E+02 -0.62698990179E+02 -0.74681994590E+03  0.76053284902E+03  0.12508642579E+03 0.  0.
          5    1    3    3  502    0  0.62833335789E+01 -0.92482558060E+02 -0.63378110346E+03  0.64053763615E+03  0.41800000000E+01 0.  1.
         -5    1    3    3    0  502  0.26768225471E+02  0.29783567880E+02 -0.11303884244E+03  0.11999521287E+03  0.41800000000E+01 0.  1.
        -11    1    1    2    0    0  0.30104627158E+02  0.29336531603E+02 -0.93406348933E+02  0.10242883717E+03  0.00000000000E+00 0. -1.
         11    1    1    2    0    0 -0.63156186208E+02  0.33362458576E+02 -0.23738315818E+03  0.24789619055E+03  0.00000000000E+00 0.  1.
</event>
<event>
 7    1  0.3151015E-009  0.1233371E+03  0.7561462E-02  0.1237691E+00
         -3   -1    0    0    0  501 -0.00000000000E+00  0.00000000000E+00  0.29602764995E+02  0.29602764995E+02  0.00000000000E+00 0. -1.
          3   -1    0    0  501    0  0.00000000000E+00 -0.00000000000E+00 -0.52614027225E+03  0.52614027225E+03  0.00000000000E+00 0.  1.
         25    2    1    2    0    0 -0.62319018302E+02 -0.84386820364E+01 -0.28529214008E+03  0.31779538529E+03  0.12508968913E+03 0.  0.
          5    1    3    3  502    0  0.35468754375E+02 -0.15708610463E+02 -0.54736244850E+02  0.67218463831E+02  0.41800000000E+01 0.  1.
         -5    1    3    3    0  502 -0.97787772676E+02  0.72699284264E+01 -0.23055589523E+03  0.25057692146E+03  0.41800000000E+01 0.  1.
        -11    1    1    2    0    0  0.84442148825E+02 -0.32211848589E+01 -0.16420789630E+03  0.18467562302E+03  0.00000000000E+00 0. -1.
         11    1    1    2    0    0 -0.22123130523E+02  0.11659866895E+02 -0.47037470878E+02  0.53272028934E+02  0.00000000000E+00 0.  1.
</event>
<event>
 7    1  0.3151015E-009  0.1079807E+03  0.7561462E-02  0.1264356E+00
         -2   -1    0    0    0  501 -0.00000000000E+00  0.00000000000E+00  0.55155039994E+02  0.55155039994E+02  0.00000000000E+00 0.  1.
          2   -1    0    0  501    0  0.00000000000E+00 -0.00000000000E+00 -0.29079818847E+03  0.29079818847E+03  0.00000000000E+00 0. -1.
         25    2    1    2    0    0 -0.63890766813E+02  0.48065790064E+02 -0.14136839476E+03  0.20500290725E+03  0.12509523847E+03 0.  0.
          5    1    3    3  502    0 -0.51267708554E+01  0.64449584226E+02 -0.12641904051E+03  0.14205378872E+03  0.41800000000E+01 0.  1.
         -5    1    3    3    0  502 -0.58763995958E+02 -0.16383794163E+02 -0.14949354251E+02  0.62949118537E+02  0.41800000000E+01 0.  1.
        -11    1    1    2    0    0  0.46695477812E+01 -0.26641494029E+02  0.62532583396E+00  0.27054850082E+02  0.00000000000E+00 0.  1.
         11    1    1    2    0    0  0.59221219032E+02 -0.21424296035E+02 -0.94900079550E+02  0.11389547113E+03  0.00000000000E+00 0. -1.
</event>
<event>
 7    1  0.3151015E-009  0.9958774E+02  0.7561462E-02  0.1281165E+00
          1   -1    0    0  501    0  0.00000000000E+00  0.00000000000E+00  0.29951273872E+03  0.29951273872E+03  0.00000000000E+00 0. -1.
         -1   -1    0    0    0  501 -0.00000000000E+00 -0.00000000000E+00 -0.83369564843E+02  0.83369564843E+02  0.00000000000E+00 0.  1.
         25    2    1    2    0    0  0.32638965571E+02  0.72083729761E+02  0.16181884046E+02  0.14889924735E+03  0.12509103213E+03 0.  0.
          5    1    3    3  502    0  0.61062369798E+02  0.63613218680E+02  0.51807335553E+02  0.10235588412E+03  0.41800000000E+01 0. -1.
         -5    1    3    3    0  502 -0.28423404228E+02  0.84705110804E+01 -0.35625451508E+02  0.46543363232E+02  0.41800000000E+01 0. -1.
        -11    1    1    2    0    0 -0.26424495468E+02 -0.37895139569E+02  0.19396569583E+02  0.50105114263E+02  0.00000000000E+00 0.  1.
         11    1    1    2    0    0 -0.62144701024E+01 -0.34188590192E+02  0.18056472025E+03  0.18387794195E+03  0.00000000000E+00 0. -1.
</event>
<event>
 7    1  0.3151015E-009  0.7659858E+02  0.7561462E-02  0.1338991E+00
         -1   -1    0    0    0  501 -0.00000000000E+00  0.00000000000E+00  0.23654203647E+03  0.23654203647E+03  0.00000000000E+00 0.  1.
          1   -1    0    0  501    0  0.00000000000E+00 -0.00000000000E+00 -0.49480497253E+02  0.49480497253E+02  0.00000000000E+00 0. -1.
         25    2    1    2    0    0 -0.12461597023E+02 -0.12434565613E+02  0.10421295746E+03  0.16376188144E+03  0.12509078100E+03 0.  0.
          5    1    3    3  502    0  0.35076024385E+02  0.36789333837E+02  0.71426848886E+02  0.87767019504E+02  0.41800000000E+01 0. -1.
         -5    1    3    3    0  502 -0.47537621408E+02 -0.49223899450E+02  0.32786108570E+02  0.75994861940E+02  0.41800000000E+01 0. -1.
        -11    1    1    2    0    0  0.15583152511E+02 -0.46550867025E+01  0.97920217087E+02  0.99261641074E+02  0.00000000000E+00 0.  1.
         11    1    1    2    0    0 -0.31215554878E+01  0.17089652315E+02 -0.15071635327E+02  0.22999011204E+02  0.00000000000E+00 0. -1.
</event>
<event>
 7    1  0.3151015E-009  0.1171066E+03  0.7561462E-02  0.1247948E+00
          1   -1    0    0  501    0  0.00000000000E+00  0.00000000000E+00  0.18026180010E+03  0.18026180010E+03  0.00000000000E+00 0. -1.
         -1   -1    0    0    0  501 -0.00000000000E+00 -0.00000000000E+00 -0.10936417072E+03  0.10936417072E+03  0.00000000000E+00 0.  1.
         25    2    1    2    0    0  0.87496688756E+02  0.23384933765E+02  0.42801298401E+02  0.16025510491E+03  0.12508885575E+03 0.  0.
          5    1    3    3  502    0  0.11307135225E+03  0.26342464133E+02  0.75714279467E+01  0.11642102489E+03  0.41800000000E+01 0.  1.
         -5    1    3    3    0  502 -0.25574663493E+02 -0.29575303680E+01  0.35229870454E+02  0.43834080016E+02  0.41800000000E+01 0.  1.
        -11    1    1    2    0    0 -0.15135045260E+02 -0.10590738482E+02 -0.30315011224E+02  0.35499763973E+02  0.00000000000E+00 0.  1.
         11    1    1    2    0    0 -0.72361643496E+02 -0.12794195283E+02  0.58411342196E+02  0.93871101940E+02  0.00000000000E+00 0. -1.
</event>
<event>
 7    1  0.3151015E-009  0.1236855E+03  0.7561462E-02  0.1237138E+00
         -2   -1    0    0    0  501 -0.00000000000E+00  0.00000000000E+00  0.32816939618E+03  0.32816939618E+03  0.00000000000E+00 0.  1.
          2   -1    0    0  501    0  0.00000000000E+00 -0.00000000000E+00 -0.69321507052E+02  0.69321507052E+02  0.00000000000E+00 0. -1.
         25    2    1    2    0    0 -0.68929853187E+02  0.21774650397E+01  0.24326992054E+03  0.28210587057E+03  0.12508957573E+03 0.  0.
          5    1    3    3  502    0 -0.61908959395E+02 -0.50508191242E+02  0.93116452445E+02  0.12276784087E+03  0.41800000000E+01 0.  1.
         -5    1    3    3    0  502 -0.70208937921E+01  0.52685656281E+02  0.15015346809E+03  0.15933802970E+03  0.41800000000E+01 0.  1.
        -11    1    1    2    0    0  0.90336762891E+02  0.73107769897E+01  0.15627519367E+02  0.91969546869E+02  0.00000000000E+00 0.  1.
         11    1    1    2    0    0 -0.21406909703E+02 -0.94882420294E+01 -0.49550775500E-01  0.23415485797E+02  0.00000000000E+00 0. -1.
</event>
<event>
 7    1  0.3151015E-009  0.1171743E+03  0.7561462E-02  0.1247833E+00
         -3   -1    0    0    0  501 -0.00000000000E+00  0.00000000000E+00  0.20430046135E+02  0.20430046135E+02  0.00000000000E+00 0.  1.
          3   -1    0    0  501    0  0.00000000000E+00 -0.00000000000E+00 -0.89182290362E+03  0.89182290362E+03  0.00000000000E+00 0. -1.
         25    2    1    2    0    0  0.39628967051E+02 -0.64867170852E+02 -0.39509052691E+03  0.42133384751E+03  0.12508989453E+03 0.  0.
          5    1    3    3  502    0  0.50544602618E+02 -0.86718089667E+02 -0.19159620114E+03  0.21633622124E+03  0.41800000000E+01 0.  1.
         -5    1    3    3    0  502 -0.10915635567E+02  0.21850918815E+02 -0.20349432577E+03  0.20499762627E+03  0.41800000000E+01 0.  1.
        -11    1    1    2    0    0  0.91923493550E+01  0.59256224994E+02 -0.35519253488E+03  0.36021873400E+03  0.00000000000E+00 0. -1.
         11    1    1    2    0    0 -0.48821316406E+02  0.56109458573E+01 -0.12110979570E+03  0.13070036826E+03  0.00000000000E+00 0.  1.
</event>
<event>
 7    1  0.3151015E-009  0.1683107E+03  0.7561462E-02  0.1179621E+00
         -1   -1    0    0    0  501 -0.00000000000E+00  0.00000000000E+00  0.48991442849E+03  0.48991442849E+03  0.00000000000E+00 0.  1.
          1   -1    0    0  501    0  0.00000000000E+00 -0.00000000000E+00 -0.95968614545E+02  0.95968614545E+02  0.00000000000E+00 0. -1.
         25    2    1    2    0    0  0.13647375275E+03 -0.36900766295E+02  0.37696848049E+03  0.42158932793E+03  0.12508227054E+03 0.  0.
          5    1    3    3  502    0  0.29995849077E+01  0.27922542295E+02  0.19274075756E+02  0.34316588905E+02  0.41800000000E+01 0.  1.
         -5    1    3    3    0  502  0.13347416784E+03 -0.64823308589E+02  0.35769440473E+03  0.38727273903E+03  0.41800000000E+01 0.  1.
        -11    1    1    2    0    0 -0.90898742615E+00  0.23549073487E+02  0.15234313021E+02  0.28061885422E+02  0.00000000000E+00 0.  1.
         11    1    1    2    0    0 -0.13556476532E+03  0.13351692808E+02  0.17430204308E+01  0.13623182968E+03  0.00000000000E+00 0. -1.
</event>
<event>
 7    1  0.3151015E-009  0.9912422E+02  0.7561462E-02  0.1282148E+00
         -1   -1    0    0    0  501 -0.00000000000E+00  0.00000000000E+00  0.34081523710E+03  0.34081523710E+03  0.00000000000E+00 0.  1.
          1   -1    0    0  501    0  0.00000000000E+00 -0.00000000000E+00 -0.12902637006E+03  0.12902637006E+03  0.00000000000E+00 0. -1.
         25    2    1    2    0    0  0.14695840611E+02  0.51806921433E+02 -0.80427146393E+02  0.15816383263E+03  0.12508935700E+03 0.  0.
          5    1    3    3  502    0  0.21113710211E+02 -0.16006423111E+02  0.22267554763E+02  0.34861307130E+02  0.41800000000E+01 0. -1.
         -5    1    3    3    0  502 -0.64178696001E+01  0.67813344544E+02 -0.10269470116E+03  0.12330252550E+03  0.41800000000E+01 0. -1.
        -11    1    1    2    0    0  0.26338449883E+02 -0.56048072086E+02  0.21956780189E+03  0.22813399561E+03  0.00000000000E+00 0.  1.
         11    1    1    2    0    0 -0.41034290493E+02  0.42411506525E+01  0.72648211549E+02  0.83543778921E+02  0.00000000000E+00 0. -1.
</event>
<event>
 7    1  0.3151015E-009  0.1378573E+03  0.7561462E-02  0.1216242E+00
         -2   -1    0    0    0  501 -0.00000000000E+00  0.00000000000E+00  0.92758245355E+03  0.92758245355E+03  0.00000000000E+00 0.  1.
          2   -1    0    0  501    0  0.00000000000E+00 -0.00000000000E+00 -0.29947313638E+02  0.29947313638E+02  0.00000000000E+00 0. -1.
         25    2    1    2    0    0  0.35273071347E+02  0.79351879134E+02  0.74202512350E+03  0.75748882148E+03  0.12508845063E+03 0.  0.
          5    1    3    3  502    0  0.12806856144E+02  0.11053361583E+03  0.60268634304E+03  0.61288660965E+03  0.41800000000E+01 0. -1.
         -5    1    3    3    0  502  0.22466215203E+02 -0.31181736694E+02  0.13933878046E+03  0.14460221184E+03  0.41800000000E+01 0. -1.
        -11    1    1    2    0    0 -0.43646198575E+01 -0.92148250531E+02  0.11377839766E+03  0.14647823646E+03  0.00000000000E+00 0.  1.
         11    1    1    2    0    0 -0.30908451489E+02  0.12796371397E+02  0.41831618755E+02  0.53562709249E+02  0.00000000000E+00 0. -1.
</event>
<event>
 7    1  0.3151015E-009  0.1182349E+03  0.7561462E-02  0.1246038E+00
         -1   -1    0    0    0  501 -0.00000000000E+00  0.00000000000E+00  0.11182639298E+03  0.11182639298E+03  0.00000000000E+00 0.  1.
          1   -1    0    0  501    0  0.00000000000E+00 -0.00000000000E+00 -0.15318768805E+03  0.15318768805E+03  0.00000000000E+00 0. -1.
         25    2    1    2    0    0  0.34374286652E+01  0.72275287437E+02 -0.40681669675E+01  0.14456868426E+03  0.12509205169E+03 0.  0.
          5    1    3    3  502    0 -0.58150047644E+02  0.55334285864E+02 -0.52004102341E+01  0.80547053948E+02  0.41800000000E+01 0. -1.
         -5    1    3    3    0  502  0.61587476309E+02  0.16941001572E+02  0.11322432666E+01  0.64021630307E+02  0.41800000000E+01 0. -1.
        -11    1    1    2    0    0 -0.19365932252E+02 -0.13782657637E+01  0.20027983232E+02  0.27893710059E+02  0.00000000000E+00 0.  1.
         11    1    1    2    0    0  0.15928503587E+02 -0.70897021673E+02 -0.57321111340E+02  0.92551686715E+02  0.00000000000E+00 0. -1.
</event>
<event>
 7    1  0.3151015E-009  0.1156406E+03  0.7561462E-02  0.1250467E+00
         -1   -1    0    0    0  501 -0.00000000000E+00  0.00000000000E+00  0.21083579672E+02  0.21083579672E+02  0.00000000000E+00 0.  1.
          1   -1    0    0  501    0  0.00000000000E+00 -0.00000000000E+00 -0.72486240966E+03  0.72486240966E+03  0.00000000000E+00 0. -1.
         25    2    1    2    0    0  0.22939795866E+02 -0.68140979409E+02 -0.42335585402E+03  0.44726247122E+03  0.12507642351E+03 0.  0.
          5    1    3    3  502    0 -0.34732290670E+02 -0.61083404033E+02 -0.12669598591E+03  0.14493743309E+03  0.41800000000E+01 0. -1.
         -5    1    3    3    0  502  0.57672086536E+02 -0.70575753761E+01 -0.29665986811E+03  0.30232503813E+03  0.41800000000E+01 0. -1.
        -11    1    1    2    0    0 -0.49844280705E+02  0.43682781584E+02 -0.17208914157E+03  0.18441071111E+03  0.00000000000E+00 0.  1.
         11    1    1    2    0    0  0.26904484839E+02  0.24458197825E+02 -0.10833383440E+03  0.11427280700E+03  0.00000000000E+00 0. -1.
</event>
<event>
 7    1  0.3151015E-009  0.1497063E+03  0.7561462E-02  0.1200834E+00
          2   -1    0    0  501    0  0.00000000000E+00  0.00000000000E+00  0.52767454779E+03  0.52767454779E+03  0.00000000000E+00 0.  1.
         -2   -1    0    0    0  501 -0.00000000000E+00 -0.00000000000E+00 -0.63436086041E+02  0.63436086041E+02  0.00000000000E+00 0. -1.
         25    2    1    2    0    0  0.63772976447E+02 -0.95601923054E+02  0.38381320082E+03  0.41972263118E+03  0.12509114190E+03 0.  0.
          5    1    3    3  502    0  0.88405387373E+02 -0.78784028350E+02  0.36606575384E+03  0.38476492066E+03  0.41800000000E+01 0. -1.
         -5    1    3    3    0  502 -0.24632410926E+02 -0.16817894703E+02  0.17747446989E+02  0.34957710522E+02  0.41800000000E+01 0. -1.
        -11    1    1    2    0    0 -0.67762052784E+02  0.14110084111E+02  0.29721064115E+02  0.75326834018E+02  0.00000000000E+00 0. -1.
         11    1    1    2    0    0  0.39890763370E+01  0.81491838943E+02  0.50704196809E+02  0.96061168629E+02  0.00000000000E+00 0.  1.
</event>
<event>
 7    1  0.3151015E-009  0.1097062E+03  0.7561462E-02  0.1261115E+00
         -1   -1    0    0    0  501 -0.00000000000E+00  0.00000000000E+00  0.88160136071E+02  0.88160136071E+02  0.00000000000E+00 0.  1.
          1   -1    0    0  501    0  0.00000000000E+00 -0.00000000000E+00 -0.17720981002E+03  0.17720981002E+03  0.00000000000E+00 0. -1.
         25    2    1    2    0    0  0.29555400026E+02  0.10618099079E+02 -0.10938659395E+03  0.16911271623E+03  0.12508964048E+03 0.  0.
          5    1    3    3  502    0  0.66583130572E+01 -0.55142850298E+02 -0.29410832797E+02  0.62988384306E+02  0.41800000000E+01 0. -1.
         -5    1    3    3    0  502  0.22897086969E+02  0.65760949377E+02 -0.79975761149E+02  0.10612433192E+03  0.41800000000E+01 0. -1.
        -11    1    1    2    0    0 -0.61047789745E+02 -0.11129732387E+01  0.15629042870E+02  0.63026489060E+02  0.00000000000E+00 0. -1.
         11    1    1    2    0    0  0.31492389719E+02 -0.95051258403E+01  0.47078771235E+01  0.33230740806E+02  0.00000000000E+00 0.  1.
</event>
<event>
 7    1  0.3151015E-009  0.1353515E+03  0.7561462E-02  0.1219724E+00
          1   -1    0    0  501    0  0.00000000000E+00  0.00000000000E+00  0.51257516702E+02  0.51257516702E+02  0.00000000000E+00 0. -1.
         -1   -1    0    0    0  501 -0.00000000000E+00 -0.00000000000E+00 -0.56494349170E+03  0.56494349170E+03  0.00000000000E+00 0.  1.
         25    2    1    2    0    0  0.88742712232E+02  0.77316118645E+02 -0.17322894043E+03  0.24394572581E+03  0.12509276624E+03 0.  0.
          5    1    3    3  502    0  0.12531599037E+02  0.15364875643E+01 -0.12562404311E+03  0.12632606373E+03  0.41800000000E+01 0. -1.
         -5    1    3    3    0  502  0.76211113195E+02  0.75779631081E+02 -0.47604897314E+02  0.11761966209E+03  0.41800000000E+01 0. -1.
        -11    1    1    2    0    0 -0.13339329102E+02  0.21650112548E+02 -0.45359930684E+02  0.52001811371E+02  0.00000000000E+00 0. -1.
         11    1    1    2    0    0 -0.75403383130E+02 -0.98966231193E+02 -0.29509710389E+03  0.32025347122E+03  0.00000000000E+00 0.  1.
</event>
<event>
 7    1  0.3151015E-009  0.1640897E+03  0.7561462E-02  0.1184155E+00
         -1   -1    0    0    0  501 -0.00000000000E+00  0.00000000000E+00  0.54164564995E+03  0.54164564995E+03  0.00000000000E+00 0.  1.
          1   -1    0    0  501    0  0.00000000000E+00 -0.00000000000E+00 -0.66829577203E+02  0.66829577203E+02  0.00000000000E+00 0. -1.
         25    2    1    2    0    0 -0.10472287700E+03 -0.66748309550E+02  0.39907279676E+03  0.43626459007E+03  0.12508188377E+03 0.  0.
          5    1    3    3  502    0 -0.59863033937E+02  0.29783501200E+02  0.19280336657E+03  0.20411087756E+03  0.41800000000E+01 0.  1.
         -5    1    3    3    0  502 -0.44859843062E+02 -0.96531810750E+02  0.20626943018E+03  0.23215371252E+03  0.41800000000E+01 0.  1.
        -11    1    1    2    0    0  0.97690963143E+02  0.10819139781E+02  0.48493783206E+02  0.10960029687E+03  0.00000000000E+00 0. -1.
         11    1    1    2    0    0  0.70319138557E+01  0.55929169769E+02  0.27249492785E+02  0.62610340205E+02  0.00000000000E+00 0.  1.
</event>
<event>
 7    1  0.3151015E-009  0.1253697E+03  0.7561462E-02  0.1234493E+00
         -1   -1    0    0    0  501 -0.00000000000E+00  0.00000000000E+00  0.47455495264E+02  0.47455495264E+02  0.00000000000E+00 0.  1.
          1   -1    0    0  501    0  0.00000000000E+00 -0.00000000000E+00 -0.46167904602E+03  0.46167904602E+03  0.00000000000E+00 0. -1.
         25    2    1    2    0    0 -0.75701397860E+01 -0.99943741886E+02 -0.20062231934E+03  0.25679578502E+03  0.12509477058E+03 0.  0.
          5    1    3    3  502    0  0.26562595065E+02 -0.71819264342E+02 -0.33175699002E+02  0.83556433573E+02  0.41800000000E+01 0. -1.
         -5    1    3    3    0  502 -0.34132734851E+02 -0.28124477543E+02 -0.16744662034E+03  0.17323935144E+03  0.41800000000E+01 0. -1.
        -11    1    1    2    0    0 -0.34895573835E+02  0.68197823093E+02 -0.15752905275E+03  0.17516862335E+03  0.00000000000E+00 0. -1.
         11    1    1    2    0    0  0.42465713621E+02  0.31745918792E+02 -0.56072178662E+02  0.77170132909E+02  0.00000000000E+00 0.  1.
</event>
<event>
 7    1  0.3151015E-009  0.1078830E+03  0.7561462E-02  0.1264541E+00
          1   -1    0    0  501    0  0.00000000000E+00  0.00000000000E+00  0.22564508846E+03  0.22564508846E+03  0.00000000000E+00 0. -1.
         -1   -1    0    0    0  501 -0.00000000000E+00 -0.00000000000E+00 -0.80408294642E+02  0.80408294642E+02  0.00000000000E+00 0.  1.
         25    2    1    2    0    0  0.22392277079E+02  0.22794747302E+02 -0.32438102777E+01  0.12916895082E+03  0.12511227348E+03 0.  0.
          5    1    3    3  502    0  0.31223305911E+02  0.67514705987E+02  0.20952472835E+02  0.77392563431E+02  0.41800000000E+01 0. -1.
         -5    1    3    3    0  502 -0.88310288329E+01 -0.44719958685E+02 -0.24196283113E+02  0.51776387393E+02  0.41800000000E+01 0. -1.
        -11    1    1    2    0    0  0.24286231109E+02 -0.39113408396E+02  0.81843378419E+02  0.93904304101E+02  0.00000000000E+00 0.  1.
         11    1    1    2    0    0 -0.46678508187E+02  0.16318661094E+02  0.66637225678E+02  0.82980128179E+02  0.00000000000E+00 0. -1.
</event>
<event>
 7    1  0.3151015E-009  0.3809365E+03  0.7561462E-02  0.1050588E+00
         -2   -1    0    0    0  501 -0.00000000000E+00  0.00000000000E+00  0.12099413297E+03  0.12099413297E+03  0.00000000000E+00 0.  1.
          2   -1    0    0  501    0  0.00000000000E+00 -0.00000000000E+00 -0.17521893434E+04  0.17521893434E+04  0.00000000000E+00 0. -1.
         25    2    1    2    0    0  0.36895903115E+03  0.80148514205E+02 -0.33534372069E+03  0.52024746246E+03  0.12508980852E+03 0.  0.
          5    1    3    3  502    0  0.29972229987E+03  0.49434861333E+02 -0.32294430545E+03  0.44338218207E+03  0.41800000000E+01 0.  1.
         -5    1    3    3    0  502  0.69236731279E+02  0.30713652872E+02 -0.12399415235E+02  0.76865280388E+02  0.41800000000E+01 0.  1.
        -11    1    1    2    0    0 -0.13841449793E+03 -0.59777987351E+02 -0.39406181337E+03  0.42192024574E+03  0.00000000000E+00 0. -1.
         11    1    1    2    0    0 -0.23054453322E+03 -0.20370526853E+02 -0.90178967633E+03  0.93101576812E+03  0.00000000000E+00 0.  1.
</event>
<event>
 7    1  0.3151015E-009  0.1064021E+03  0.7561462E-02  0.1267382E+00
          4   -1    0    0  501    0  0.00000000000E+00  0.00000000000E+00  0.31159103584E+02  0.31159103584E+02  0.00000000000E+00 0. -1.
         -4   -1    0    0    0  501 -0.00000000000E+00 -0.00000000000E+00 -0.41826783796E+03  0.41826783796E+03  0.00000000000E+00 0.  1.
         25    2    1    2    0    0  0.29404831227E+01 -0.31504822115E+02 -0.19223639533E+03  0.23152457655E+03  0.12509035774E+03 0.  0.
          5    1    3    3  502    0 -0.55222582322E+02 -0.32050216833E+02 -0.63263466289E+02  0.89980489910E+02  0.41800000000E+01 0.  1.
         -5    1    3    3    0  502  0.58163065445E+02  0.54539471791E+00 -0.12897292905E+03  0.14154408664E+03  0.41800000000E+01 0.  1.
        -11    1    1    2    0    0  0.38144770125E+02 -0.93171455932E+00 -0.12437178228E+03  0.13009316587E+03  0.00000000000E+00 0.  1.
         11    1    1    2    0    0 -0.41085253248E+02  0.32436536674E+02 -0.70500556766E+02  0.87809199120E+02  0.00000000000E+00 0. -1.
</event>
<event>
 7    1  0.3151015E-009  0.1610778E+03  0.7561462E-02  0.1187485E+00
          2   -1    0    0  501    0  0.00000000000E+00  0.00000000000E+00  0.75148182265E+03  0.75148182265E+03  0.00000000000E+00 0. -1.
         -2   -1    0    0    0  501 -0.00000000000E+00 -0.00000000000E+00 -0.39433767761E+02  0.39433767761E+02  0.00000000000E+00 0.  1.
         25    2    1    2    0    0 -0.64193502228E+01 -0.13220589082E+03  0.33531665918E+03  0.38158297388E+03  0.12509475772E+03 0.  0.
          5    1    3    3  502    0  0.58817630874E+02 -0.54831913018E+02  0.13752584835E+03  0.15936399766E+03  0.41800000000E+01 0.  1.
         -5    1    3    3    0  502 -0.65236981097E+02 -0.77373977802E+02  0.19779081083E+03  0.22221897622E+03  0.41800000000E+01 0.  1.
        -11    1    1    2    0    0 -0.20140281951E+02  0.48193985663E+02  0.24730726369E+03  0.25276307856E+03  0.00000000000E+00 0. -1.
         11    1    1    2    0    0  0.26559632174E+02  0.84011905157E+02  0.12942413202E+03  0.15656953796E+03  0.00000000000E+00 0.  1.
</event>
<event>
 7    1  0.3151015E-009  0.5969764E+02  0.7561462E-02  0.1399105E+00
          3   -1    0    0  501    0  0.00000000000E+00  0.00000000000E+00  0.15252214122E+03  0.15252214122E+03  0.00000000000E+00 0. -1.
         -3   -1    0    0    0  501 -0.00000000000E+00 -0.00000000000E+00 -0.10726774104E+03  0.10726774104E+03  0.00000000000E+00 0.  1.
         25    2    1    2    0    0  0.40725841805E+02  0.16561879881E+02  0.66735145890E+02  0.14843721580E+03  0.12508851779E+03 0.  0.
          5    1    3    3  502    0  0.37743973290E+02  0.30598209430E+02 -0.25476858358E+02  0.55021819780E+02  0.41800000000E+01 0.  1.
         -5    1    3    3    0  502  0.29818685144E+01 -0.14036329549E+02  0.92212004248E+02  0.93415396025E+02  0.41800000000E+01 0.  1.
        -11    1    1    2    0    0 -0.18212749998E+02 -0.25603376403E+02 -0.58900118862E+02  0.66756731104E+02  0.00000000000E+00 0.  1.
         11    1    1    2    0    0 -0.22513091806E+02  0.90414965226E+01  0.37419373156E+02  0.44595935347E+02  0.00000000000E+00 0. -1.
</event>
<event>
 7    1  0.3151015E-009  0.1204460E+03  0.7561462E-02  0.1242363E+00
          2   -1    0    0  501    0  0.00000000000E+00  0.00000000000E+00  0.62276352232E+03  0.62276352232E+03  0.00000000000E+00 0.  1.
         -2   -1    0    0    0  501 -0.00000000000E+00 -0.00000000000E+00 -0.38177653059E+02  0.38177653059E+02  0.00000000000E+00 0. -1.
         25    2    1    2    0    0  0.68485235062E+02  0.50174369002E+02  0.45848769556E+03  0.48276877027E+03  0.12508806433E+03 0.  0.
          5    1    3    3  502    0  0.93163546258E+02  0.33895637904E+02  0.20742489657E+03  0.22993677552E+03  0.41800000000E+01 0. -1.
         -5    1    3    3    0  502 -0.24678311196E+02  0.16278731098E+02  0.25106279900E+03  0.25283199475E+03  0.41800000000E+01 0. -1.
        -11    1    1    2    0    0 -0.77317019839E+02 -0.60533693945E+02  0.70371948987E+02  0.12080753645E+03  0.00000000000E+00 0. -1.
         11    1    1    2    0    0  0.88317847769E+01  0.10359324943E+02  0.55726224713E+02  0.57364868660E+02  0.00000000000E+00 0.  1.
</event>
<event>
 7    1  0.3151015E-009  0.1545280E+03  0.7561462E-02  0.1195017E+00
         -2   -1    0    0    0  501 -0.00000000000E+00  0.00000000000E+00  0.89361194708E+02  0.89361194708E+02  0.00000000000E+00 0.  1.
          2   -1    0    0  501    0  0.00000000000E+00 -0.00000000000E+00 -0.35574968652E+03  0.35574968652E+03  0.00000000000E+00 0. -1.
         25    2    1    2    0    0  0.13381388808E+03 -0.20536267016E+02 -0.91149096218E+02  0.20563008021E+03  0.12509067607E+03 0.  0.
          5    1    3    3  502    0  0.65129185104E+02 -0.37258522654E+02 -0.10919185222E+03  0.13255316388E+03  0.41800000000E+01 0. -1.
         -5    1    3    3    0  502  0.68684702973E+02  0.16722255639E+02  0.18042756001E+02  0.73076916330E+02  0.41800000000E+01 0. -1.
        -11    1    1    2    0    0 -0.83738519327E+02  0.56869448857E+02 -0.11341192977E+03  0.15201493232E+03  0.00000000000E+00 0.  1.
         11    1    1    2    0    0 -0.50075368750E+02 -0.36333181841E+02 -0.61827465818E+02  0.87465868701E+02  0.00000000000E+00 0. -1.
</event>
<event>
 7    1  0.3151015E-009  0.1027184E+03  0.7561462E-02  0.1274681E+00
         -1   -1    0    0    0  501 -0.00000000000E+00  0.00000000000E+00  0.15513015345E+03  0.15513015345E+03  0.00000000000E+00 0.  1.
          1   -1    0    0  501    0  0.00000000000E+00 -0.00000000000E+00 -0.14530808595E+03  0.14530808595E+03  0.00000000000E+00 0. -1.
         25    2    1    2    0    0  0.20046623290E+02  0.59114871903E+02 -0.71629322532E+02  0.15708425447E+03  0.12509303726E+03 0.  0.
          5    1    3    3  502    0  0.43439425373E+02  0.44179347301E+02  0.16780501171E+02  0.64326169047E+02  0.41800000000E+01 0. -1.
         -5    1    3    3    0  502 -0.23392802083E+02  0.14935524602E+02 -0.88409823703E+02  0.92758085425E+02  0.41800000000E+01 0. -1.
        -11    1    1    2    0    0  0.92938633402E+01 -0.79181197636E+02  0.69755149678E+02  0.10593308672E+03  0.00000000000E+00 0. -1.
         11    1    1    2    0    0 -0.29340486630E+02  0.20066325733E+02  0.11696240350E+02  0.37420898205E+02  0.00000000000E+00 0.  1.
</event>
<event>
 7    1  0.3151015E-009  0.1064359E+03  0.7561462E-02  0.1267316E+00
          4   -1    0    0  501    0  0.00000000000E+00  0.00000000000E+00  0.34842928160E+03  0.34842928160E+03  0.00000000000E+00 0. -1.
         -4   -1    0    0    0  501 -0.00000000000E+00 -0.00000000000E+00 -0.35214749501E+02  0.35214749501E+02  0.00000000000E+00 0.  1.
         25    2    1    2    0    0 -0.12741494976E+02  0.60893424691E+01  0.14723411978E+03  0.19370923227E+03  0.12508379134E+03 0.  0.
          5    1    3    3  502    0  0.20752093291E+02 -0.51685315893E+02  0.45981673146E+02  0.72345061478E+02  0.41800000000E+01 0.  1.
         -5    1    3    3    0  502 -0.33493588266E+02  0.57774658362E+02  0.10125244663E+03  0.12136417080E+03  0.41800000000E+01 0.  1.
        -11    1    1    2    0    0 -0.28385793155E+02  0.25571187089E+02  0.91480457225E+02  0.99137848052E+02  0.00000000000E+00 0. -1.
         11    1    1    2    0    0  0.41127288131E+02 -0.31660529558E+02  0.74499955095E+02  0.90796950775E+02  0.00000000000E+00 0.  1.
</event>
<event>
 7    1  0.3151015E-009  0.7347709E+02  0.7561462E-02  0.1348653E+00
          2   -1    0    0  501    0  0.00000000000E+00  0.00000000000E+00  0.23524122223E+03  0.23524122223E+03  0.00000000000E+00 0. -1.
         -2   -1    0    0    0  501 -0.00000000000E+00 -0.00000000000E+00 -0.55040785024E+02  0.55040785024E+02  0.00000000000E+00 0.  1.
         25    2    1    2    0    0  0.85526095907E+01  0.32014928033E+02  0.11156657451E+03  0.17085933791E+03  0.12509080724E+03 0.  0.
          5    1    3    3  502    0  0.25367697466E+02 -0.24469760391E+02 -0.89808643855E+01  0.36611713609E+02  0.41800000000E+01 0. -1.
         -5    1    3    3    0  502 -0.16815087875E+02  0.56484688424E+02  0.12054743889E+03  0.13424762430E+03  0.41800000000E+01 0. -1.
        -11    1    1    2    0    0  0.13272943309E+02  0.42521653844E+00 -0.19162240407E+02  0.23314014897E+02  0.00000000000E+00 0.  1.
         11    1    1    2    0    0 -0.21825552900E+02 -0.32440144571E+02  0.87796103109E+02  0.96108654451E+02  0.00000000000E+00 0. -1.
</event>
<event>
 7    1  0.3151015E-009  0.6677062E+02  0.7561462E-02  0.1371432E+00
          4   -1    0    0  501    0  0.00000000000E+00  0.00000000000E+00  0.51711021165E+02  0.51711021165E+02  0.00000000000E+00 0. -1.
         -4   -1    0    0    0  501 -0.00000000000E+00 -0.00000000000E+00 -0.43761965787E+03  0.43761965787E+03  0.00000000000E+00 0.  1.
         25    2    1    2    0    0 -0.31697139759E+02 -0.11432285325E+02 -0.37846085352E+03  0.40002359409E+03  0.12510336670E+03 0.  0.
          5    1    3    3  502    0 -0.19309806992E+02 -0.52805773076E+02 -0.33079954015E+03  0.33556985336E+03  0.41800000000E+01 0.  1.
         -5    1    3    3    0  502 -0.12387332768E+02  0.41373487751E+02 -0.47661313371E+02  0.64453740730E+02  0.41800000000E+01 0.  1.
        -11    1    1    2    0    0  0.11099776733E+02  0.51508906236E+01  0.37511464753E+02  0.39456896807E+02  0.00000000000E+00 0. -1.
         11    1    1    2    0    0  0.20597363026E+02  0.62813947016E+01 -0.44959247934E+02  0.49850188142E+02  0.00000000000E+00 0.  1.
</event>
<event>
 7    1  0.3151015E-009  0.1102504E+03  0.7561462E-02  0.1260107E+00
         -2   -1    0    0    0  501 -0.00000000000E+00  0.00000000000E+00  0.82288865834E+02  0.82288865834E+02  0.00000000000E+00 0.  1.
          2   -1    0    0  501    0  0.00000000000E+00 -0.00000000000E+00 -0.20491263157E+03  0.20491263157E+03  0.00000000000E+00 0. -1.
         25    2    1    2    0    0  0.71300059543E+02  0.15137370534E+02 -0.82198147075E+02  0.16648527732E+03  0.12509186107E+03 0.  0.
          5    1    3    3  502    0  0.10351510289E+03  0.33144666752E+01 -0.38056629217E+02  0.11041803134E+03  0.41800000000E+01 0. -1.
         -5    1    3    3    0  502 -0.32215043352E+02  0.11822903859E+02 -0.44141517857E+02  0.56067245987E+02  0.41800000000E+01 0. -1.
        -11    1    1    2    0    0 -0.35329230937E+02  0.11900024133E+02  0.22359300834E+02  0.43470719649E+02  0.00000000000E+00 0.  1.
         11    1    1    2    0    0 -0.35970828605E+02 -0.27037394667E+02 -0.62784919494E+02  0.77245500430E+02  0.00000000000E+00 0. -1.
</event>
<event>
 7    1  0.3151015E-009  0.1082508E+03  0.7561462E-02  0.1263844E+00
          2   -1    0    0  501    0  0.00000000000E+00  0.00000000000E+00  0.12366807636E+04  0.12366807636E+04  0.00000000000E+00 0. -1.
         -2   -1    0    0    0  501 -0.00000000000E+00 -0.00000000000E+00 -0.11744386306E+02  0.11744386306E+02  0.00000000000E+00 0.  1.
         25    2    1    2    0    0  0.43930999112E+02 -0.25757978982E+02  0.76006042714E+03  0.77196670947E+03  0.12508933391E+03 0.  0.
          5    1    3    3  502    0  0.41453072808E+02 -0.62456047423E+02  0.67548755808E+03  0.67964698825E+03  0.41800000000E+01 0. -1.
         -5    1    3    3    0  502  0.24779263046E+01  0.36698068442E+02  0.84572869056E+02  0.92319721222E+02  0.41800000000E+01 0. -1.
        -11    1    1    2    0    0  0.16565145581E+02  0.39092726073E+02  0.19252675954E+03  0.19715272866E+03  0.00000000000E+00 0. -1.
         11    1    1    2    0    0 -0.60496144693E+02 -0.13334747091E+02  0.27234919063E+03  0.27930571179E+03  0.00000000000E+00 0.  1.
</event>
<event>
 7    1  0.3151015E-009  0.1336603E+03  0.7561462E-02  0.1222123E+00
          3   -1    0    0  501    0  0.00000000000E+00  0.00000000000E+00  0.50101279339E+02  0.50101279339E+02  0.00000000000E+00 0. -1.
         -3   -1    0    0    0  501 -0.00000000000E+00 -0.00000000000E+00 -0.42329866433E+03  0.42329866433E+03  0.00000000000E+00 0.  1.
         25    2    1    2    0    0  0.20632779258E+02  0.88231541225E+02 -0.14786567508E+03  0.21382380956E+03  0.12508336109E+03 0.  0.
          5    1    3    3  502    0 -0.15465806056E+02 -0.19224516885E+02  0.28539889315E+01  0.25187116930E+02  0.41800000000E+01 0.  1.
         -5    1    3    3    0  502  0.36098585314E+02  0.10745605811E+03 -0.15071966401E+03  0.18863669263E+03  0.41800000000E+01 0.  1.
        -11    1    1    2    0    0 -0.54911108761E+02 -0.33628555204E+02 -0.11304280779E+03  0.13009529578E+03  0.00000000000E+00 0.  1.
         11    1    1    2    0    0  0.34278329503E+02 -0.54602986021E+02 -0.11228890212E+03  0.12948083833E+03  0.00000000000E+00 0. -1.
</event>
<event>
 7    1  0.3151015E-009  0.2759253E+03  0.7561462E-02  0.1097935E+00
          1   -1    0    0  501    0  0.00000000000E+00  0.00000000000E+00  0.77351889285E+03  0.77351889285E+03  0.00000000000E+00 0. -1.
         -1   -1    0    0    0  501 -0.00000000000E+00 -0.00000000000E+00 -0.13298203853E+03  0.13298203853E+03  0.00000000000E+00 0.  1.
         25    2    1    2    0    0  0.13400989222E+03 -0.23747662026E+03  0.14236580735E+03  0.33206922628E+03  0.12509257194E+03 0.  0.
          5    1    3    3  502    0  0.57396035494E+02 -0.14100892977E+03  0.14284733848E+03  0.20880770502E+03  0.41800000000E+01 0.  1.
         -5    1    3    3    0  502  0.76613856722E+02 -0.96467690490E+02 -0.48153112975E+00  0.12326152126E+03  0.41800000000E+01 0.  1.
        -11    1    1    2    0    0 -0.32505135651E+02  0.10168298519E+03  0.26866386346E+03  0.28909563271E+03  0.00000000000E+00 0. -1.
         11    1    1    2    0    0 -0.10150475657E+03  0.13579363507E+03  0.22950718351E+03  0.28533607240E+03  0.00000000000E+00 0.  1.
</event>
<event>
 7    1  0.3151015E-009  0.1615689E+03  0.7561462E-02  0.1186937E+00
          2   -1    0    0  501    0  0.00000000000E+00  0.00000000000E+00  0.24169275129E+03  0.24169275129E+03  0.00000000000E+00 0. -1.
         -2   -1    0    0    0  501 -0.00000000000E+00 -0.00000000000E+00 -0.13969424003E+03  0.13969424003E+03  0.00000000000E+00 0.  1.
         25    2    1    2    0    0  0.13353426291E+03  0.18712354046E+02 -0.63691137563E+01  0.18403393597E+03  0.12508546044E+03 0.  0.
          5    1    3    3  502    0  0.10555629240E+03 -0.44360136472E+02 -0.83589341802E+01  0.11487948796E+03  0.41800000000E+01 0.  1.
         -5    1    3    3    0  502  0.27977970510E+02  0.63072490517E+02  0.19898204240E+01  0.69154448008E+02  0.41800000000E+01 0.  1.
        -11    1    1    2    0    0 -0.10006459490E+03 -0.29413781515E+02  0.12124163943E+03  0.15993007481E+03  0.00000000000E+00 0. -1.
         11    1    1    2    0    0 -0.33469668007E+02  0.10701427469E+02 -0.12874014416E+02  0.37422980554E+02  0.00000000000E+00 0.  1.
</event>
<event>
 7    1  0.3248937E-009  0.1557582E+03  0.7561462E-02  0.1193571E+00
          2   -1    0    0  501    0  0.00000000000E+00  0.00000000000E+00  0.92298894622E+03  0.92298894622E+03  0.00000000000E+00 0. -1.
         -2   -1    0    0    0  501 -0.00000000000E+00 -0.00000000000E+00 -0.35188312925E+02  0.35188312925E+02  0.00000000000E+00 0.  1.
         25    2    1    2    0    0  0.11489737736E+03 -0.69673780502E+02  0.60057805798E+03  0.62801061309E+03  0.12508990133E+03 0.  0.
          5    1    3    3  502    0  0.11373718984E+03 -0.89778432789E+02  0.38387588426E+03  0.41033459793E+03  0.41800000000E+01 0. -1.
         -5    1    3    3    0  502  0.11601875189E+01  0.20104652287E+02  0.21670217372E+03  0.21767601515E+03  0.41800000000E+01 0. -1.
        -11    1    1    2    0    0 -0.63438650662E+02  0.70078350042E+02  0.24817806464E+03  0.26557068609E+03  0.00000000000E+00 0. -1.
         11    1    1    2    0    0 -0.51458726698E+02 -0.40456954022E+00  0.39044510678E+02  0.64595959966E+02  0.00000000000E+00 0.  1.
</event>
<event>
 7    1  0.3151015E-009  0.6503991E+02  0.7561462E-02  0.1377821E+00
         -1   -1    0    0    0  501 -0.00000000000E+00  0.00000000000E+00  0.28587972983E+03  0.28587972983E+03  0.00000000000E+00 0.  1.
          1   -1    0    0  501    0  0.00000000000E+00 -0.00000000000E+00 -0.54412296880E+02  0.54412296880E+02  0.00000000000E+00 0. -1.
         25    2    1    2    0    0  0.32111326912E+02  0.49189464309E+02  0.15299251940E+03  0.20616601313E+03  0.12508786217E+03 0.  0.
          5    1    3    3  502    0  0.40912167930E+02  0.34569984432E+02  0.15908459070E+01  0.53748418572E+02  0.41800000000E+01 0. -1.
         -5    1    3    3    0  502 -0.88008410176E+01  0.14619479878E+02  0.15140167350E+03  0.15241759456E+03  0.41800000000E+01 0. -1.
        -11    1    1    2    0    0 -0.23435618504E+02 -0.34013227668E+02  0.98937216278E+02  0.10721334169E+03  0.00000000000E+00 0.  1.
         11    1    1    2    0    0 -0.86757084080E+01 -0.15176236641E+02 -0.20462302732E+02  0.26912671886E+02  0.00000000000E+00 0. -1.
</event>
<event>
 7    1  0.3151015E-009  0.2207034E+03  0.7561462E-02  0.1133360E+00
          1   -1    0    0  501    0  0.00000000000E+00  0.00000000000E+00  0.11630019683E+04  0.11630019683E+04  0.00000000000E+00 0. -1.
         -1   -1    0    0    0  501 -0.00000000000E+00 -0.00000000000E+00 -0.47088828726E+02  0.47088828726E+02  0.00000000000E+00 0.  1.
         25    2    1    2    0    0 -0.77917378549E+02 -0.18673101439E+03  0.46051949357E+03  0.51832887609E+03  0.12508808984E+03 0.  0.
          5    1    3    3  502    0  0.24507276174E+02 -0.40947640729E+02  0.43030624515E+02  0.64392724068E+02  0.41800000000E+01 0.  1.
         -5    1    3    3    0  502 -0.10242465472E+03 -0.14578337366E+03  0.41748886906E+03  0.45393615203E+03  0.41800000000E+01 0.  1.
        -11    1    1    2    0    0 -0.12650473811E+02  0.47771671807E+02  0.91663669701E+02  0.10413642714E+03  0.00000000000E+00 0. -1.
         11    1    1    2    0    0  0.90567852359E+02  0.13895934258E+03  0.56372997627E+03  0.58762549376E+03  0.00000000000E+00 0.  1.
</event>
<event>
 7    1  0.3151015E-009  0.1193017E+03  0.7561462E-02  0.1244253E+00
         -2   -1    0    0    0  501 -0.00000000000E+00  0.00000000000E+00  0.18686438659E+03  0.18686438659E+03  0.00000000000E+00 0. -1.
          2   -1    0    0  501    0  0.00000000000E+00 -0.00000000000E+00 -0.89495438568E+02  0.89495438568E+02  0.00000000000E+00 0.  1.
         25    2    1    2    0    0 -0.51127530199E+02  0.21845906018E+02  0.98206098723E+02  0.16847353689E+03  0.12509047467E+03 0.  0.
          5    1    3    3  502    0  0.39166188364E+02  0.39160882214E+01  0.98119002219E+01  0.40780777872E+02  0.41800000000E+01 0.  1.
         -5    1    3    3    0  502 -0.90293718563E+02  0.17929817796E+02  0.88394198501E+02  0.12769275902E+03  0.41800000000E+01 0.  1.
        -11    1    1    2    0    0 -0.26401401301E+02 -0.10934111670E+02 -0.67757141313E+01  0.29368334829E+02  0.00000000000E+00 0.  1.
         11    1    1    2    0    0  0.77528931500E+02 -0.10911794348E+02  0.59385634267E+01  0.78517953431E+02  0.00000000000E+00 0. -1.
</event>
<event>
 7    1  0.3151015E-009  0.9777765E+02  0.7561462E-02  0.1285040E+00
         -2   -1    0    0    0  501 -0.00000000000E+00  0.00000000000E+00  0.10645343271E+03  0.10645343271E+03  0.00000000000E+00 0.  1.
          2   -1    0    0  501    0  0.00000000000E+00 -0.00000000000E+00 -0.15472060309E+03  0.15472060309E+03  0.00000000000E+00 0. -1.
         25    2    1    2    0    0  0.35068981634E+02 -0.59912920879E+02 -0.33290666552E+02  0.14688566804E+03  0.12509092467E+03 0.  0.
          5    1    3    3  502    0  0.47508290332E+02 -0.57304538328E+02 -0.73388525462E+02  0.10461451062E+03  0.41800000000E+01 0. -1.
         -5    1    3    3    0  502 -0.12439308698E+02 -0.26083825507E+01  0.40097858910E+02  0.42271157419E+02  0.41800000000E+01 0. -1.
        -11    1    1    2    0    0  0.22493030613E+02 -0.26010175520E+01 -0.18495703438E+02  0.29236839161E+02  0.00000000000E+00 0. -1.
         11    1    1    2    0    0 -0.57562012247E+02  0.62513938431E+02  0.35191996107E+01  0.85051528605E+02  0.00000000000E+00 0.  1.
</event>
<event>
 7    1  0.3151015E-009  0.1092078E+03  0.7561462E-02  0.1262044E+00
         -2   -1    0    0    0  501 -0.00000000000E+00  0.00000000000E+00  0.12596404720E+03  0.12596404720E+03  0.00000000000E+00 0. -1.
          2   -1    0    0  501    0  0.00000000000E+00 -0.00000000000E+00 -0.19927237894E+03  0.19927237894E+03  0.00000000000E+00 0.  1.
         25    2    1    2    0    0  0.20672865407E+02  0.90565521585E+02  0.30896760066E+02  0.15885486894E+03  0.12510307166E+03 0.  0.
          5    1    3    3  502    0  0.25419462482E+02  0.22384306431E+02 -0.45102144715E+02  0.56558660744E+02  0.41800000000E+01 0.  1.
         -5    1    3    3    0  502 -0.47465970750E+01  0.68181215154E+02  0.75998904780E+02  0.10229620820E+03  0.41800000000E+01 0.  1.
        -11    1    1    2    0    0  0.24113931399E+00 -0.94527872962E+02 -0.47455972079E+02  0.10577167012E+03  0.00000000000E+00 0. -1.
         11    1    1    2    0    0 -0.20914004721E+02  0.39623513767E+01 -0.56749119729E+02  0.60609887081E+02  0.00000000000E+00 0.  1.
</event>
<event>
 7    1  0.3151015E-009  0.9428136E+02  0.7561462E-02  0.1292803E+00
         -2   -1    0    0    0  501 -0.00000000000E+00  0.00000000000E+00  0.47179646945E+02  0.47179646945E+02  0.00000000000E+00 0. -1.
          2   -1    0    0  501    0  0.00000000000E+00 -0.00000000000E+00 -0.46216668263E+03  0.46216668263E+03  0.00000000000E+00 0.  1.
         25    2    1    2    0    0  0.16143629562E+02 -0.55891172073E+02 -0.36389836573E+03  0.38917804936E+03  0.12511232406E+03 0.  0.
          5    1    3    3  502    0 -0.47691782850E+02 -0.39474149434E+02 -0.24934240129E+03  0.25694711539E+03  0.41800000000E+01 0. -1.
         -5    1    3    3    0  502  0.63835412412E+02 -0.16417022638E+02 -0.11455596444E+03  0.13223093397E+03  0.41800000000E+01 0. -1.
        -11    1    1    2    0    0 -0.93117146751E+01  0.85673994854E+01  0.26308251091E+02  0.29193020391E+02  0.00000000000E+00 0. -1.
         11    1    1    2    0    0 -0.68319148869E+01  0.47323772587E+02 -0.77396921051E+02  0.90975259829E+02  0.00000000000E+00 0.  1.
</event>
<event>
 7    1  0.3415227E-009  0.1101105E+03  0.7561462E-02  0.1260365E+00
          2   -1    0    0  501    0  0.00000000000E+00  0.00000000000E+00  0.23725588062E+03  0.23725588062E+03  0.00000000000E+00 0. -1.
         -2   -1    0    0    0  501 -0.00000000000E+00 -0.00000000000E+00 -0.87720987055E+02  0.87720987055E+02  0.00000000000E+00 0.  1.
         25    2    1    2    0    0 -0.22927590396E+02  0.41698843892E+02 -0.10978929464E+02  0.13428351277E+03  0.12508819659E+03 0.  0.
          5    1    3    3  502    0  0.50053464395E+02  0.23379262485E+02 -0.18829168493E+02  0.58514521261E+02  0.41800000000E+01 0. -1.
         -5    1    3    3    0  502 -0.72981054791E+02  0.18319581406E+02  0.78502390290E+01  0.75768991508E+02  0.41800000000E+01 0. -1.
        -11    1    1    2    0    0  0.21972289942E+02 -0.63727046382E+02  0.15334710115E+03  0.16750895916E+03  0.00000000000E+00 0. -1.
         11    1    1    2    0    0  0.95530045435E+00  0.22028202490E+02  0.71667218809E+01  0.23184395753E+02  0.00000000000E+00 0.  1.
</event>
<event>
 7    1  0.3151015E-009  0.1178557E+03  0.7561462E-02  0.1246677E+00
          1   -1    0    0  501    0  0.00000000000E+00  0.00000000000E+00  0.56996404964E+03  0.56996404964E+03  0.00000000000E+00 0. -1.
         -1   -1    0    0    0  501 -0.00000000000E+00 -0.00000000000E+00 -0.27075871529E+02  0.27075871529E+02  0.00000000000E+00 0.  1.
         25    2    1    2    0    0  0.18405034356E+02  0.52432985374E+02  0.26387361662E+03  0.29726209160E+03  0.12508997685E+03 0.  0.
          5    1    3    3  502    0  0.67130693518E+02  0.29511369499E+02  0.95756928512E+02  0.12068269429E+03  0.41800000000E+01 0. -1.
         -5    1    3    3    0  502 -0.48725659162E+02  0.22921615875E+02  0.16811668811E+03  0.17657939732E+03  0.41800000000E+01 0. -1.
        -11    1    1    2    0    0  0.28576927675E+02 -0.54161028185E+02  0.13392934370E+03  0.14726549791E+03  0.00000000000E+00 0.  1.
         11    1    1    2    0    0 -0.46981962030E+02  0.17280428114E+01  0.14508521778E+03  0.15251233166E+03  0.00000000000E+00 0. -1.
</event>
<event>
 7    1  0.3151015E-009  0.1894737E+03  0.7561462E-02  0.1158937E+00
         -2   -1    0    0    0  501 -0.00000000000E+00  0.00000000000E+00  0.16507927343E+03  0.16507927343E+03  0.00000000000E+00 0.  1.
          2   -1    0    0  501    0  0.00000000000E+00 -0.00000000000E+00 -0.41063296939E+03  0.41063296939E+03  0.00000000000E+00 0. -1.
         25    2    1    2    0    0 -0.16850331948E+03  0.70732714075E+02 -0.29133166483E+03  0.36594923351E+03  0.12509283374E+03 0.  0.
          5    1    3    3  502    0 -0.98578092805E+02  0.53307584639E+02 -0.67793096161E+02  0.13104470706E+03  0.41800000000E+01 0. -1.
         -5    1    3    3    0  502 -0.69925226676E+02  0.17425129436E+02 -0.22353856867E+03  0.23490452645E+03  0.41800000000E+01 0. -1.
        -11    1    1    2    0    0  0.51359235144E+02 -0.56911431998E+02 -0.13355217399E+02  0.77814162968E+02  0.00000000000E+00 0. -1.
         11    1    1    2    0    0  0.11714408434E+03 -0.13821282077E+02  0.59133186278E+02  0.13194884635E+03  0.00000000000E+00 0.  1.
</event>
<event>
 7    1  0.3151015E-009  0.6669179E+02  0.7561462E-02  0.1371718E+00
          2   -1    0    0  501    0  0.00000000000E+00  0.00000000000E+00  0.32426353624E+03  0.32426353624E+03  0.00000000000E+00 0. -1.
         -2   -1    0    0    0  501 -0.00000000000E+00 -0.00000000000E+00 -0.38488814127E+02  0.38488814127E+02  0.00000000000E+00 0.  1.
         25    2    1    2    0    0 -0.73595174856E+01  0.26929318241E+02  0.15692903228E+03  0.20258615420E+03  0.12504030559E+03 0.  0.
          5    1    3    3  502    0 -0.29483539279E+02 -0.49348798232E+01 -0.95006010115E+01  0.31644366748E+02  0.41800000000E+01 0.  1.
         -5    1    3    3    0  502  0.22124021793E+02  0.31864198065E+02  0.16642963329E+03  0.17094178745E+03  0.41800000000E+01 0.  1.
        -11    1    1    2    0    0 -0.15009956706E+02  0.12044898909E+02 -0.42328718184E+01  0.19705217428E+02  0.00000000000E+00 0.  1.
         11    1    1    2    0    0  0.22369474192E+02 -0.38974217150E+02  0.13307856165E+03  0.14046097874E+03  0.00000000000E+00 0. -1.
</event>
<event>
 7    1  0.3151015E-009  0.9491576E+02  0.7561462E-02  0.1291366E+00
          1   -1    0    0  501    0  0.00000000000E+00  0.00000000000E+00  0.99062793248E+02  0.99062793248E+02  0.00000000000E+00 0. -1.
         -1   -1    0    0    0  501 -0.00000000000E+00 -0.00000000000E+00 -0.13718807901E+03  0.13718807901E+03  0.00000000000E+00 0.  1.
         25    2    1    2    0    0  0.94525442858E+00  0.36414572166E+02 -0.21218654410E+02  0.13200073017E+03  0.12508815651E+03 0.  0.
          5    1    3    3  502    0 -0.38023704632E+02  0.26504820232E+02  0.38149227260E+02  0.60175938297E+02  0.41800000000E+01 0.  1.
         -5    1    3    3    0  502  0.38968959060E+02  0.99097519344E+01 -0.59367881670E+02  0.71824791873E+02  0.41800000000E+01 0.  1.
        -11    1    1    2    0    0  0.28831654842E+02 -0.58884450839E+02 -0.11121440017E+02  0.66500596235E+02  0.00000000000E+00 0.  1.
         11    1    1    2    0    0 -0.29776909271E+02  0.22469878673E+02 -0.57851913357E+01  0.37749545853E+02  0.00000000000E+00 0. -1.
</event>
<event>
 7    1  0.3151015E-009  0.1000230E+03  0.7561462E-02  0.1280248E+00
          2   -1    0    0  501    0  0.00000000000E+00  0.00000000000E+00  0.52193936286E+03  0.52193936286E+03  0.00000000000E+00 0. -1.
         -2   -1    0    0    0  501 -0.00000000000E+00 -0.00000000000E+00 -0.23477707339E+02  0.23477707339E+02  0.00000000000E+00 0.  1.
         25    2    1    2    0    0 -0.90867180628E+01 -0.92048872882E+01  0.23087280102E+03  0.26290273148E+03  0.12509315559E+03 0.  0.
          5    1    3    3  502    0 -0.10748511783E+02  0.57340646565E+02  0.95420436064E+02  0.11191966884E+03  0.41800000000E+01 0.  1.
         -5    1    3    3    0  502  0.16617937205E+01 -0.66545533853E+02  0.13545236495E+03  0.15098306265E+03  0.41800000000E+01 0.  1.
        -11    1    1    2    0    0 -0.26867399714E+02  0.23956614261E+02  0.50747885130E+02  0.62218360469E+02  0.00000000000E+00 0.  1.
         11    1    1    2    0    0  0.35954117776E+02 -0.14751726973E+02  0.21684096937E+03  0.22029597824E+03  0.00000000000E+00 0. -1.
</event>
<event>
 7    1  0.3151015E-009  0.7532931E+02  0.7561462E-02  0.1342854E+00
          1   -1    0    0  501    0  0.00000000000E+00  0.00000000000E+00  0.36188154189E+02  0.36188154189E+02  0.00000000000E+00 0. -1.
         -1   -1    0    0    0  501 -0.00000000000E+00 -0.00000000000E+00 -0.46499960382E+03  0.46499960382E+03  0.00000000000E+00 0.  1.
         25    2    1    2    0    0 -0.48528523939E+02 -0.37482505949E+02 -0.31617291157E+03  0.34550383096E+03  0.12509049250E+03 0.  0.
          5    1    3    3  502    0 -0.37670762428E+02 -0.51649957105E+02 -0.57204413788E+02  0.85887261964E+02  0.41800000000E+01 0. -1.
         -5    1    3    3    0  502 -0.10857761511E+02  0.14167451156E+02 -0.25896849778E+03  0.25961656900E+03  0.41800000000E+01 0. -1.
        -11    1    1    2    0    0  0.25291983310E+02  0.37248584883E+02 -0.12244600649E+03  0.13046135826E+03  0.00000000000E+00 0.  1.
         11    1    1    2    0    0  0.23236540629E+02  0.23392106600E+00  0.98074684170E+01  0.25222568787E+02  0.00000000000E+00 0. -1.
</event>
<event>
 6    1  0.3151015E-009  0.1278440E+03  0.7561462E-02  0.1230690E+00
          1   -1    0    0  501    0  0.00000000000E+00  0.00000000000E+00  0.37802233309E+03  0.37802233309E+03  0.00000000000E+00 0. -1.
         -1   -1    0    0    0  501 -0.00000000000E+00 -0.00000000000E+00 -0.45611774473E+02  0.45611774473E+02  0.00000000000E+00 0.  1.
          5    1    1    2  502    0 -0.14638847912E+02 -0.30263522219E+02  0.83796202930E+02  0.90385024594E+02  0.41800000000E+01 0. -1.
         -5    1    1    2    0  502  0.68839273284E+02  0.78754103310E+02  0.11576854766E+03  0.15607973399E+03  0.41800000000E+01 0. -1.
        -11    1    1    2    0    0 -0.73588064205E+02 -0.10309688839E+02  0.80835562232E+02  0.10979927595E+03  0.00000000000E+00 0.  1.
         11    1    1    2    0    0  0.19387638834E+02 -0.38180892252E+02  0.52010245788E+02  0.67370073027E+02  0.00000000000E+00 0. -1.
</event>
<event>
 7    1  0.3151015E-009  0.1953289E+03  0.7561462E-02  0.1153741E+00
          4   -1    0    0  501    0  0.00000000000E+00  0.00000000000E+00  0.64793611385E+02  0.64793611385E+02  0.00000000000E+00 0.  1.
         -4   -1    0    0    0  501 -0.00000000000E+00 -0.00000000000E+00 -0.75615092009E+03  0.75615092009E+03  0.00000000000E+00 0. -1.
         25    2    1    2    0    0 -0.18853114644E+03 -0.32324578974E+02 -0.34517565287E+03  0.41398631212E+03  0.12509821623E+03 0.  0.
          5    1    3    3  502    0 -0.59391700243E+02 -0.31700942083E+02 -0.30913233343E+02  0.74198545689E+02  0.41800000000E+01 0. -1.
         -5    1    3    3    0  502 -0.12913944619E+03 -0.62363689041E+00 -0.31426241953E+03  0.33978776643E+03  0.41800000000E+01 0. -1.
        -11    1    1    2    0    0  0.14132390692E+03  0.97221854283E+01 -0.16065038012E+03  0.21418569558E+03  0.00000000000E+00 0.  1.
         11    1    1    2    0    0  0.47207239514E+02  0.22602393545E+02 -0.18553127571E+03  0.19277252378E+03  0.00000000000E+00 0. -1.
</event>
<event>
 7    1  0.3151015E-009  0.1106256E+03  0.7561462E-02  0.1259416E+00
         -2   -1    0    0    0  501 -0.00000000000E+00  0.00000000000E+00  0.36054000044E+02  0.36054000044E+02  0.00000000000E+00 0.  1.
          2   -1    0    0  501    0  0.00000000000E+00 -0.00000000000E+00 -0.48214091330E+03  0.48214091330E+03  0.00000000000E+00 0. -1.
         25    2    1    2    0    0  0.42767611948E+01  0.51218540914E+02 -0.35303592892E+03  0.37805246046E+03  0.12509063167E+03 0.  0.
          5    1    3    3  502    0  0.55423083022E+02  0.26367400106E+02 -0.90717151954E+02  0.10960853972E+03  0.41800000000E+01 0.  1.
         -5    1    3    3    0  502 -0.51146321827E+02  0.24851140808E+02 -0.26231877696E+03  0.26844392074E+03  0.41800000000E+01 0.  1.
        -11    1    1    2    0    0 -0.12183998951E+02  0.24088648538E+02 -0.13032522342E+02  0.29975981342E+02  0.00000000000E+00 0.  1.
         11    1    1    2    0    0  0.79072377560E+01 -0.75307189452E+02 -0.80018462000E+02  0.11016647155E+03  0.00000000000E+00 0. -1.
</event>
<event>
 7    1  0.3151015E-009  0.1217481E+03  0.7561462E-02  0.1240241E+00
         -2   -1    0    0    0  501 -0.00000000000E+00  0.00000000000E+00  0.21827849656E+03  0.21827849656E+03  0.00000000000E+00 0. -1.
          2   -1    0    0  501    0  0.00000000000E+00 -0.00000000000E+00 -0.71004933566E+02  0.71004933566E+02  0.00000000000E+00 0.  1.
         25    2    1    2    0    0  0.58183951905E+02 -0.37198805413E+01  0.56300320159E+02  0.14905082837E+03  0.12508882291E+03 0.  0.
          5    1    3    3  502    0  0.91985171523E+02  0.21438880661E+02  0.47491984228E+02  0.10580103189E+03  0.41800000000E+01 0.  1.
         -5    1    3    3    0  502 -0.33801219618E+02 -0.25158761202E+02  0.88083359311E+01  0.43249796471E+02  0.41800000000E+01 0.  1.
        -11    1    1    2    0    0  0.24139653723E+02 -0.90355874436E+00  0.18003410884E+02  0.30127431085E+02  0.00000000000E+00 0.  1.
         11    1    1    2    0    0 -0.82323605628E+02  0.46234392857E+01  0.72969831949E+02  0.11010517067E+03  0.00000000000E+00 0. -1.
</event>
<event>
 7    1  0.3151015E-009  0.2151790E+03  0.7561462E-02  0.1137529E+00
         -2   -1    0    0    0  501 -0.00000000000E+00  0.00000000000E+00  0.17701295805E+03  0.17701295805E+03  0.00000000000E+00 0.  1.
          2   -1    0    0  501    0  0.00000000000E+00 -0.00000000000E+00 -0.40502613460E+03  0.40502613460E+03  0.00000000000E+00 0. -1.
         25    2    1    2    0    0  0.16293890565E+03  0.12943733838E+03  0.24093528205E+02  0.24398890433E+03  0.12508787229E+03 0.  0.
          5    1    3    3  502    0  0.71073200807E+02  0.49621455782E+02  0.72372304661E+02  0.11299960898E+03  0.41800000000E+01 0. -1.
         -5    1    3    3    0  502  0.91865704839E+02  0.79815882600E+02 -0.48278776456E+02  0.13098929535E+03  0.41800000000E+01 0. -1.
        -11    1    1    2    0    0 -0.15230983284E+03 -0.81574611514E+02 -0.21872911499E+03  0.27873845836E+03  0.00000000000E+00 0.  1.
         11    1    1    2    0    0 -0.10629072804E+02 -0.47862726868E+02 -0.33377589769E+02  0.59311729958E+02  0.00000000000E+00 0. -1.
</event>
<event>
 7    1  0.3151015E-009  0.7816934E+02  0.7561462E-02  0.1334328E+00
          2   -1    0    0  501    0  0.00000000000E+00  0.00000000000E+00  0.11281024766E+03  0.11281024766E+03  0.00000000000E+00 0.  1.
         -2   -1    0    0    0  501 -0.00000000000E+00 -0.00000000000E+00 -0.11710925866E+03  0.11710925866E+03  0.00000000000E+00 0. -1.
         25    2    1    2    0    0 -0.50381512116E+01 -0.24125467452E+02  0.78679292269E+01  0.12773905327E+03  0.12509172744E+03 0.  0.
          5    1    3    3  502    0  0.22251271199E+02  0.37488346449E+00  0.59846952055E+02  0.63987418122E+02  0.41800000000E+01 0.  1.
         -5    1    3    3    0  502 -0.27289422410E+02 -0.24500350917E+02 -0.51979022828E+02  0.63751635153E+02  0.41800000000E+01 0.  1.
        -11    1    1    2    0    0 -0.37814532254E+02  0.36110279514E+02  0.87476206891E+01  0.53013319118E+02  0.00000000000E+00 0.  1.
         11    1    1    2    0    0  0.42852683466E+02 -0.11984812062E+02 -0.20914560915E+02  0.49167133928E+02  0.00000000000E+00 0. -1.
</event>
<event>
 7    1  0.3151015E-009  0.1095862E+03  0.7561462E-02  0.1261338E+00
         -2   -1    0    0    0  501 -0.00000000000E+00  0.00000000000E+00  0.70562262152E+02  0.70562262152E+02  0.00000000000E+00 0.  1.
          2   -1    0    0  501    0  0.00000000000E+00 -0.00000000000E+00 -0.32067617760E+03  0.32067617760E+03  0.00000000000E+00 0. -1.
         25    2    1    2    0    0 -0.57162672249E+02  0.35438464988E+02 -0.23515979694E+03  0.27472134307E+03  0.12509288686E+03 0.  0.
          5    1    3    3  502    0 -0.91047737451E+02 -0.14544183627E+01 -0.16341464346E+03  0.18711927727E+03  0.41800000000E+01 0. -1.
         -5    1    3    3    0  502  0.33885065202E+02  0.36892883350E+02 -0.71745153482E+02  0.87602065807E+02  0.41800000000E+01 0. -1.
        -11    1    1    2    0    0  0.39105591637E+02 -0.12962588762E+01  0.35599008821E+02  0.52898175899E+02  0.00000000000E+00 0.  1.
         11    1    1    2    0    0  0.18057080612E+02 -0.34142206111E+02 -0.50553127328E+02  0.63618920778E+02  0.00000000000E+00 0. -1.
</event>
<event>
 7    1  0.3151015E-009  0.8117642E+02  0.7561462E-02  0.1325746E+00
          1   -1    0    0  501    0  0.00000000000E+00  0.00000000000E+00  0.23543913215E+02  0.23543913215E+02  0.00000000000E+00 0. -1.
         -1   -1    0    0    0  501 -0.00000000000E+00 -0.00000000000E+00 -0.62238555461E+03  0.62238555461E+03  0.00000000000E+00 0.  1.
         25    2    1    2    0    0  0.25865189526E+02 -0.19460093059E+02 -0.44649681011E+03  0.46481730095E+03  0.12509204041E+03 0.  0.
          5    1    3    3  502    0  0.90174746632E+01  0.21758799076E+02 -0.98240245576E+01  0.25860085944E+02  0.41800000000E+01 0.  1.
         -5    1    3    3    0  502  0.16847714863E+02 -0.41218892134E+02 -0.43667278555E+03  0.43895721500E+03  0.41800000000E+01 0.  1.
        -11    1    1    2    0    0 -0.15005574026E+02 -0.35049080775E+02 -0.89105700190E+02  0.96919714823E+02  0.00000000000E+00 0.  1.
         11    1    1    2    0    0 -0.10859615500E+02  0.54509173833E+02 -0.63239131100E+02  0.84192452055E+02  0.00000000000E+00 0. -1.
</event>
<event>
 7    1  0.3151015E-009  0.1165567E+03  0.7561462E-02  0.1248888E+00
         -1   -1    0    0    0  501 -0.00000000000E+00  0.00000000000E+00  0.22686996959E+03  0.22686996959E+03  0.00000000000E+00 0.  1.
          1   -1    0    0  501    0  0.00000000000E+00 -0.00000000000E+00 -0.11681084759E+03  0.11681084759E+03  0.00000000000E+00 0. -1.
         25    2    1    2    0    0  0.52776659201E+02  0.45553993091E+02 -0.47022779795E+02  0.15073042799E+03  0.12509187847E+03 0.  0.
          5    1    3    3  502    0  0.33743800910E+02  0.77245549934E+02 -0.67674512032E+02  0.10817962407E+03  0.41800000000E+01 0.  1.
         -5    1    3    3    0  502  0.19032858291E+02 -0.31691556843E+02  0.20651732237E+02  0.42550803920E+02  0.41800000000E+01 0.  1.
        -11    1    1    2    0    0 -0.63470984060E+02 -0.64034364337E+02  0.11909401543E+03  0.14937319085E+03  0.00000000000E+00 0.  1.
         11    1    1    2    0    0  0.10694324859E+02  0.18480371246E+02  0.37987886362E+02  0.43577198348E+02  0.00000000000E+00 0. -1.
</event>
<event>
 7    1  0.3151015E-009  0.1917181E+03  0.7561462E-02  0.1156921E+00
         -1   -1    0    0    0  501 -0.00000000000E+00  0.00000000000E+00  0.47843993246E+02  0.47843993246E+02  0.00000000000E+00 0.  1.
          1   -1    0    0  501    0  0.00000000000E+00 -0.00000000000E+00 -0.98390842385E+03  0.98390842385E+03  0.00000000000E+00 0. -1.
         25    2    1    2    0    0 -0.17424506615E+03 -0.61106371278E+02 -0.55702033265E+03  0.60001199546E+03  0.12508961597E+03 0.  0.
          5    1    3    3  502    0 -0.95029301466E+02 -0.49381428476E+02 -0.46836873341E+03  0.48047459501E+03  0.41800000000E+01 0. -1.
         -5    1    3    3    0  502 -0.79215764682E+02 -0.11724942802E+02 -0.88651599234E+02  0.11953740044E+03  0.41800000000E+01 0. -1.
        -11    1    1    2    0    0  0.77959336642E+01 -0.11973287601E+02 -0.38031616742E+01  0.14785135657E+02  0.00000000000E+00 0.  1.
         11    1    1    2    0    0  0.16644913248E+03  0.73079658879E+02 -0.37524093629E+03  0.41695528599E+03  0.00000000000E+00 0. -1.
</event>
<event>
 7    1  0.3151015E-009  0.1220736E+03  0.7561462E-02  0.1239715E+00
          2   -1    0    0  501    0  0.00000000000E+00  0.00000000000E+00  0.10530822482E+03  0.10530822482E+03  0.00000000000E+00 0. -1.
         -2   -1    0    0    0  501 -0.00000000000E+00 -0.00000000000E+00 -0.15153085415E+03  0.15153085415E+03  0.00000000000E+00 0.  1.
         25    2    1    2    0    0  0.45105669341E+02 -0.42088555180E+02 -0.46419184047E+02  0.14699930742E+03  0.12509231731E+03 0.  0.
          5    1    3    3  502    0 -0.15183185912E+02 -0.67110648267E+02 -0.43528628494E+02  0.81526573237E+02  0.41800000000E+01 0.  1.
         -5    1    3    3    0  502  0.60288855253E+02  0.25022093086E+02 -0.28905555532E+01  0.65472734184E+02  0.41800000000E+01 0.  1.
        -11    1    1    2    0    0 -0.38909495956E+02  0.70608465356E+02  0.13667589667E+01  0.80631087587E+02  0.00000000000E+00 0.  1.
         11    1    1    2    0    0 -0.61961733852E+01 -0.28519910176E+02 -0.11702042515E+01  0.29208683966E+02  0.00000000000E+00 0. -1.
</event>
<event>
 7    1  0.3151015E-009  0.1159839E+03  0.7561462E-02  0.1249873E+00
         -1   -1    0    0    0  501 -0.00000000000E+00  0.00000000000E+00  0.13786900840E+03  0.13786900840E+03  0.00000000000E+00 0.  1.
          1   -1    0    0  501    0  0.00000000000E+00 -0.00000000000E+00 -0.17038446270E+03  0.17038446270E+03  0.00000000000E+00 0. -1.
         25    2    1    2    0    0  0.50788813011E+02  0.46730154352E+02  0.65434555724E+02  0.15713771080E+03  0.12508944088E+03 0.  0.
          5    1    3    3  502    0  0.23592746759E+02 -0.40029217517E+02  0.42883996724E+02  0.63367700997E+02  0.41800000000E+01 0. -1.
         -5    1    3    3    0  502  0.27196066252E+02  0.86759371869E+02  0.22550559000E+02  0.93770009801E+02  0.41800000000E+01 0. -1.
        -11    1    1    2    0    0 -0.44682003732E+02  0.24410084252E+01 -0.40335086773E+01  0.44930047540E+02  0.00000000000E+00 0.  1.
         11    1    1    2    0    0 -0.61068092788E+01 -0.49171162778E+02 -0.93916501352E+02  0.10618571276E+03  0.00000000000E+00 0. -1.
</event>
<event>
 7    1  0.3151015E-009  0.1175848E+03  0.7561462E-02  0.1247135E+00
         -2   -1    0    0    0  501 -0.00000000000E+00  0.00000000000E+00  0.26627980431E+02  0.26627980431E+02  0.00000000000E+00 0.  1.
          2   -1    0    0  501    0  0.00000000000E+00 -0.00000000000E+00 -0.75440928320E+03  0.75440928320E+03  0.00000000000E+00 0. -1.
         25    2    1    2    0    0  0.48178023151E+02  0.86046351096E+01 -0.60962775824E+03  0.62424946733E+03  0.12508489993E+03 0.  0.
          5    1    3    3  502    0  0.65575827469E+02 -0.43475362934E+02 -0.33303282767E+03  0.34222599702E+03  0.41800000000E+01 0.  1.
         -5    1    3    3    0  502 -0.17397804318E+02  0.52079998044E+02 -0.27659493057E+03  0.28202347031E+03  0.41800000000E+01 0.  1.
        -11    1    1    2    0    0 -0.21320315577E+02 -0.48637220601E+02 -0.76211652580E+02  0.92888917924E+02  0.00000000000E+00 0. -1.
         11    1    1    2    0    0 -0.26857707574E+02  0.40032585491E+02 -0.41941891954E+02  0.63898878377E+02  0.00000000000E+00 0.  1.
</event>
<event>
 7    1  0.3151015E-009  0.9927517E+02  0.7561462E-02  0.1281828E+00
         -2   -1    0    0    0  501 -0.00000000000E+00  0.00000000000E+00  0.41049020801E+02  0.41049020801E+02  0.00000000000E+00 0.  1.
          2   -1    0    0  501    0  0.00000000000E+00 -0.00000000000E+00 -0.30241706406E+03  0.30241706406E+03  0.00000000000E+00 0. -1.
         25    2    1    2    0    0 -0.87396983792E+01 -0.24204233959E+02 -0.18079197277E+03  0.22134864517E+03  0.12508900044E+03 0.  0.
          5    1    3    3  502    0  0.31415120276E+02 -0.49954881402E+02 -0.36962482878E+02  0.69757418949E+02  0.41800000000E+01 0.  1.
         -5    1    3    3    0  502 -0.40154818655E+02  0.25750647443E+02 -0.14382948989E+03  0.15159122622E+03  0.41800000000E+01 0.  1.
        -11    1    1    2    0    0  0.86791177879E+01  0.57529373585E+02 -0.46783870198E+02  0.74657125724E+02  0.00000000000E+00 0.  1.
         11    1    1    2    0    0  0.60580591236E-01 -0.33325139626E+02 -0.33792200285E+02  0.47460313961E+02  0.00000000000E+00 0. -1.
</event>
<event>
 7    1  0.3151015E-009  0.1235029E+03  0.7561462E-02  0.1237428E+00
         -1   -1    0    0    0  501 -0.00000000000E+00  0.00000000000E+00  0.68822569806E+02  0.68822569806E+02  0.00000000000E+00 0.  1.
          1   -1    0    0  501    0  0.00000000000E+00 -0.00000000000E+00 -0.23222790305E+03  0.23222790305E+03  0.00000000000E+00 0. -1.
         25    2    1    2    0    0 -0.29302623193E+01 -0.59868074084E+02 -0.10803843344E+03  0.17581919259E+03  0.12508921876E+03 0.  0.
          5    1    3    3  502    0  0.26881154942E+02 -0.91249903516E+02 -0.73538841026E+02  0.12031032758E+03  0.41800000000E+01 0. -1.
         -5    1    3    3    0  502 -0.29811417262E+02  0.31381829432E+02 -0.34499592418E+02  0.55508865010E+02  0.41800000000E+01 0. -1.
        -11    1    1    2    0    0 -0.43207427602E+02  0.21328944743E+02 -0.83290076854E+01  0.48899673342E+02  0.00000000000E+00 0. -1.
         11    1    1    2    0    0  0.46137689922E+02  0.38539129340E+02 -0.47037892118E+02  0.76331606930E+02  0.00000000000E+00 0.  1.
</event>
<event>
 7    1  0.3151015E-009  0.1587826E+03  0.7561462E-02  0.1190078E+00
         -2   -1    0    0    0  501 -0.00000000000E+00  0.00000000000E+00  0.25046449864E+03  0.25046449864E+03  0.00000000000E+00 0.  1.
          2   -1    0    0  501    0  0.00000000000E+00 -0.00000000000E+00 -0.17375968534E+03  0.17375968534E+03  0.00000000000E+00 0. -1.
         25    2    1    2    0    0  0.12390642846E+03 -0.98604479336E+01 -0.90176805241E+02  0.19805659981E+03  0.12507809192E+03 0.  0.
          5    1    3    3  502    0 -0.20433379614E+02 -0.44592503473E+01  0.86260004439E+01  0.23006264359E+02  0.41800000000E+01 0.  1.
         -5    1    3    3    0  502  0.14433980808E+03 -0.54011975862E+01 -0.98802805685E+02  0.17505033545E+03  0.41800000000E+01 0.  1.
        -11    1    1    2    0    0 -0.90374921457E+02  0.46861228527E+02  0.99994937800E+02  0.14269754291E+03  0.00000000000E+00 0.  1.
         11    1    1    2    0    0 -0.33531507004E+02 -0.37000780593E+02  0.66886680744E+02  0.83470041257E+02  0.00000000000E+00 0. -1.
</event>
<event>
 7    1  0.3151015E-009  0.2513918E+03  0.7561462E-02  0.1112428E+00
         -1   -1    0    0    0  501 -0.00000000000E+00  0.00000000000E+00  0.68956789634E+02  0.68956789634E+02  0.00000000000E+00 0.  1.
          1   -1    0    0  501    0  0.00000000000E+00 -0.00000000000E+00 -0.22778004473E+04  0.22778004473E+04  0.00000000000E+00 0. -1.
         25    2    1    2    0    0  0.10011464909E+03 -0.22159494748E+03 -0.19872386316E+04  0.20059640286E+04  0.12508813412E+03 0.  0.
          5    1    3    3  502    0  0.61618828162E+02 -0.11078154046E+03 -0.57336402170E+03  0.58722500242E+03  0.41800000000E+01 0.  1.
         -5    1    3    3    0  502  0.38495820929E+02 -0.11081340703E+03 -0.14138746099E+04  0.14187390262E+04  0.41800000000E+01 0.  1.
        -11    1    1    2    0    0 -0.38760959054E+02  0.18074988748E+03 -0.16617748457E+03  0.24857170021E+03  0.00000000000E+00 0. -1.
         11    1    1    2    0    0 -0.61353690037E+02  0.40845060004E+02 -0.55427541497E+02  0.92221508144E+02  0.00000000000E+00 0.  1.
</event>
<event>
 7    1  0.3151015E-009  0.7963067E+02  0.7561462E-02  0.1330103E+00
          1   -1    0    0  501    0  0.00000000000E+00  0.00000000000E+00  0.18323267029E+04  0.18323267029E+04  0.00000000000E+00 0. -1.
         -1   -1    0    0    0  501 -0.00000000000E+00 -0.00000000000E+00 -0.86458052458E+01  0.86458052458E+01  0.00000000000E+00 0.  1.
         25    2    1    2    0    0 -0.15601199944E+02  0.86515713332E+01  0.14664711574E+04  0.14719045968E+04  0.12508892551E+03 0.  0.
          5    1    3    3  502    0  0.22878811450E+02 -0.14685700607E+02  0.78174352890E+02  0.82872261134E+02  0.41800000000E+01 0. -1.
         -5    1    3    3    0  502 -0.38480011395E+02  0.23337271940E+02  0.13882968046E+04  0.13890323356E+04  0.41800000000E+01 0. -1.
        -11    1    1    2    0    0  0.30340238112E+02  0.31530824274E+02  0.24686814779E+03  0.25071618480E+03  0.00000000000E+00 0.  1.
         11    1    1    2    0    0 -0.14739038167E+02 -0.40182395607E+02  0.11034159243E+03  0.11835172657E+03  0.00000000000E+00 0. -1.
</event>
<event>
 7    1  0.3151015E-009  0.1130833E+03  0.7561462E-02  0.1254964E+00
          2   -1    0    0  501    0  0.00000000000E+00  0.00000000000E+00  0.10577267709E+04  0.10577267709E+04  0.00000000000E+00 0. -1.
         -2   -1    0    0    0  501 -0.00000000000E+00 -0.00000000000E+00 -0.20496099978E+02  0.20496099978E+02  0.00000000000E+00 0.  1.
         25    2    1    2    0    0  0.37720801243E+02 -0.78233484498E+02  0.63554793666E+03  0.65353831445E+03  0.12509121361E+03 0.  0.
          5    1    3    3  502    0 -0.21312914995E+02 -0.13284432854E+01  0.37294328593E+03  0.37357753148E+03  0.41800000000E+01 0.  1.
         -5    1    3    3    0  502  0.59033716239E+02 -0.76905041212E+02  0.26260465072E+03  0.27996078297E+03  0.41800000000E+01 0.  1.
        -11    1    1    2    0    0  0.38548609032E+01  0.62954465067E+02  0.35411075937E+03  0.35968396479E+03  0.00000000000E+00 0.  1.
         11    1    1    2    0    0 -0.41575662147E+02  0.15279019430E+02  0.47571974880E+02  0.65000591626E+02  0.00000000000E+00 0. -1.
</event>
<event>
 7    1  0.3151015E-009  0.1802597E+03  0.7561462E-02  0.1167552E+00
          1   -1    0    0  501    0  0.00000000000E+00  0.00000000000E+00  0.16126364689E+03  0.16126364689E+03  0.00000000000E+00 0. -1.
         -1   -1    0    0    0  501 -0.00000000000E+00 -0.00000000000E+00 -0.22644775338E+03  0.22644775338E+03  0.00000000000E+00 0.  1.
         25    2    1    2    0    0 -0.14533013247E+03  0.56090332535E+02 -0.41487671074E+02  0.20404704124E+03  0.12508795057E+03 0.  0.
          5    1    3    3  502    0 -0.15827560963E+03  0.75414353918E+02 -0.42292402151E+02  0.18040125571E+03  0.41800000000E+01 0.  1.
         -5    1    3    3    0  502  0.12945477157E+02 -0.19324021383E+02  0.80473107713E+00  0.23645785530E+02  0.41800000000E+01 0.  1.
        -11    1    1    2    0    0  0.10489390305E+03 -0.18915539434E+02  0.25868089714E+02  0.10967992794E+03  0.00000000000E+00 0. -1.
         11    1    1    2    0    0  0.40436229428E+02 -0.37174793101E+02 -0.49564525128E+02  0.73984431090E+02  0.00000000000E+00 0.  1.
</event>
<event>
 7    1  0.3151015E-009  0.1043519E+03  0.7561462E-02  0.1271402E+00
          1   -1    0    0  501    0  0.00000000000E+00  0.00000000000E+00  0.68190193097E+03  0.68190193097E+03  0.00000000000E+00 0. -1.
         -1   -1    0    0    0  501 -0.00000000000E+00 -0.00000000000E+00 -0.18035027461E+02  0.18035027461E+02  0.00000000000E+00 0.  1.
         25    2    1    2    0    0 -0.16151054761E+02 -0.16568533884E+02  0.40778290934E+03  0.42716411749E+03  0.12508760624E+03 0.  0.
          5    1    3    3  502    0 -0.21429760399E+01  0.50861111005E+02  0.24660880331E+03  0.25184284629E+03  0.41800000000E+01 0. -1.
         -5    1    3    3    0  502 -0.14008078721E+02 -0.67429644889E+02  0.16117410603E+03  0.17532127119E+03  0.41800000000E+01 0. -1.
        -11    1    1    2    0    0  0.41974383591E+02  0.36802716764E+02  0.20148913561E+03  0.20907931655E+03  0.00000000000E+00 0. -1.
         11    1    1    2    0    0 -0.25823328830E+02 -0.20234182880E+02  0.54594858561E+02  0.63693524395E+02  0.00000000000E+00 0.  1.
</event>
<event>
 6    1  0.3151015E-009  0.1959428E+03  0.7561462E-02  0.1153208E+00
         -2   -1    0    0    0  501 -0.00000000000E+00  0.00000000000E+00  0.52063254096E+02  0.52063254096E+02  0.00000000000E+00 0.  1.
          2   -1    0    0  501    0  0.00000000000E+00 -0.00000000000E+00 -0.86139842055E+03  0.86139842055E+03  0.00000000000E+00 0. -1.
          5    1    1    2  502    0 -0.55263667920E+02 -0.39358804755E+02 -0.46340247101E+02  0.82268337805E+02  0.41800000000E+01 0. -1.
         -5    1    1    2    0  502 -0.12128338059E+03 -0.35101228298E+01 -0.36279725255E+03  0.38257195170E+03  0.41800000000E+01 0. -1.
        -11    1    1    2    0    0  0.13765351482E+03  0.70632943961E+02 -0.29634779156E+03  0.33430452656E+03  0.00000000000E+00 0. -1.
         11    1    1    2    0    0  0.38893533686E+02 -0.27764016376E+02 -0.10384987523E+03  0.11431685857E+03  0.00000000000E+00 0.  1.
</event>
<event>
 7    1  0.3151015E-009  0.9999982E+02  0.7561462E-02  0.1280296E+00
         -2   -1    0    0    0  501 -0.00000000000E+00  0.00000000000E+00  0.24290990533E+02  0.24290990533E+02  0.00000000000E+00 0.  1.
          2   -1    0    0  501    0  0.00000000000E+00 -0.00000000000E+00 -0.51136487847E+03  0.51136487847E+03  0.00000000000E+00 0. -1.
         25    2    1    2    0    0 -0.18590362922E+02  0.14958148694E+02 -0.31603893027E+03  0.34072950453E+03  0.12508653808E+03 0.  0.
          5    1    3    3  502    0  0.18872266657E+02 -0.47744638115E+02 -0.97505511237E+02  0.11027470263E+03  0.41800000000E+01 0. -1.
         -5    1    3    3    0  502 -0.37462629579E+02  0.62702786809E+02 -0.21853341903E+03  0.23045480191E+03  0.41800000000E+01 0. -1.
        -11    1    1    2    0    0 -0.17323156434E+02  0.19134168311E+02 -0.12390497489E+03  0.12656480928E+03  0.00000000000E+00 0. -1.
         11    1    1    2    0    0  0.35913519356E+02 -0.34092317005E+02 -0.47129982778E+02  0.68361555190E+02  0.00000000000E+00 0.  1.
</event>
<event>
 7    1  0.3151015E-009  0.9943669E+02  0.7561462E-02  0.1281485E+00
         -2   -1    0    0    0  501 -0.00000000000E+00  0.00000000000E+00  0.20110567323E+03  0.20110567323E+03  0.00000000000E+00 0.  1.
          2   -1    0    0  501    0  0.00000000000E+00 -0.00000000000E+00 -0.72465799834E+02  0.72465799834E+02  0.00000000000E+00 0. -1.
         25    2    1    2    0    0  0.17655452027E+01 -0.21001837663E+02  0.12585223319E+03  0.17869530897E+03  0.12509610111E+03 0.  0.
          5    1    3    3  502    0 -0.16677365183E+02 -0.66945748257E+02  0.40989505451E+02  0.80358444959E+02  0.41800000000E+01 0. -1.
         -5    1    3    3    0  502  0.18442910386E+02  0.45943910595E+02  0.84862727738E+02  0.98336864010E+02  0.41800000000E+01 0. -1.
        -11    1    1    2    0    0 -0.39222655455E+02  0.15669136395E+02  0.26840039642E+02  0.50043243942E+02  0.00000000000E+00 0.  1.
         11    1    1    2    0    0  0.37457110253E+02  0.53327012679E+01 -0.24052399431E+02  0.44832920155E+02  0.00000000000E+00 0. -1.
</event>
<event>
 7    1  0.3151015E-009  0.1188397E+03  0.7561462E-02  0.1245024E+00
          1   -1    0    0  501    0  0.00000000000E+00  0.00000000000E+00  0.43393579868E+02  0.43393579868E+02  0.00000000000E+00 0. -1.
         -1   -1    0    0    0  501 -0.00000000000E+00 -0.00000000000E+00 -0.38434965917E+03  0.38434965917E+03  0.00000000000E+00 0.  1.
         25    2    1    2    0    0 -0.42446655523E+02  0.55719061639E+02 -0.20313858628E+03  0.24866267559E+03  0.12514594920E+03 0.  0.
          5    1    3    3  502    0 -0.22803551180E+02 -0.28830531673E+02 -0.12329353205E+02  0.38995985094E+02  0.41800000000E+01 0. -1.
         -5    1    3    3    0  502 -0.19643104343E+02  0.84549593311E+02 -0.19080923308E+03  0.20966669050E+03  0.41800000000E+01 0. -1.
        -11    1    1    2    0    0 -0.19442446542E+02 -0.47530632805E+02 -0.71149957985E+02  0.87746716768E+02  0.00000000000E+00 0.  1.
         11    1    1    2    0    0  0.61889102065E+02 -0.81884288338E+01 -0.66667535034E+02  0.91333846676E+02  0.00000000000E+00 0. -1.
</event>
<event>
 7    1  0.3151015E-009  0.3806869E+03  0.7561462E-02  0.1050680E+00
          2   -1    0    0  501    0  0.00000000000E+00  0.00000000000E+00  0.15582523038E+04  0.15582523038E+04  0.00000000000E+00 0. -1.
         -2   -1    0    0    0  501 -0.00000000000E+00 -0.00000000000E+00 -0.11316369512E+03  0.11316369512E+03  0.00000000000E+00 0.  1.
         25    2    1    2    0    0  0.34776177469E+03  0.12335444944E+03  0.10631371298E+04  0.11322819121E+04  0.12508876681E+03 0.  0.
          5    1    3    3  502    0  0.24428599778E+03  0.13082808486E+03  0.65657360663E+03  0.71266963582E+03  0.41800000000E+01 0.  1.
         -5    1    3    3    0  502  0.10347577690E+03 -0.74736354203E+01  0.40656352314E+03  0.41961227625E+03  0.41800000000E+01 0.  1.
        -11    1    1    2    0    0 -0.31337676274E+03 -0.13875741039E+03  0.34770185135E+03  0.48821633708E+03  0.00000000000E+00 0.  1.
         11    1    1    2    0    0 -0.34385011947E+02  0.15402960953E+02  0.34249627581E+02  0.50917749775E+02  0.00000000000E+00 0. -1.
</event>
<event>
 7    1  0.3151015E-009  0.9557275E+02  0.7561462E-02  0.1289891E+00
         -1   -1    0    0    0  501 -0.00000000000E+00  0.00000000000E+00  0.95121220155E+02  0.95121220155E+02  0.00000000000E+00 0.  1.
          1   -1    0    0  501    0  0.00000000000E+00 -0.00000000000E+00 -0.16836209111E+03  0.16836209111E+03  0.00000000000E+00 0. -1.
         25    2    1    2    0    0 -0.59893974931E+02 -0.79319649358E+00 -0.15245284211E+02  0.13953036087E+03  0.12509350710E+03 0.  0.
          5    1    3    3  502    0 -0.48868238310E+02  0.26381089449E+02 -0.62528896825E+02  0.83734114518E+02  0.41800000000E+01 0.  1.
         -5    1    3    3    0  502 -0.11025736621E+02 -0.27174285943E+02  0.47283612614E+02  0.55796246347E+02  0.41800000000E+01 0.  1.
        -11    1    1    2    0    0  0.71685446842E+02 -0.26241417428E+02 -0.55446102035E+02  0.94348744074E+02  0.00000000000E+00 0.  1.
         11    1    1    2    0    0 -0.11791471911E+02  0.27034613921E+02 -0.25494847064E+01  0.29604206322E+02  0.00000000000E+00 0. -1.
</event>
<event>
 7    1  0.3151015E-009  0.1093220E+03  0.7561462E-02  0.1261831E+00
          2   -1    0    0  501    0  0.00000000000E+00  0.00000000000E+00  0.14573259173E+04  0.14573259173E+04  0.00000000000E+00 0. -1.
         -2   -1    0    0    0  501 -0.00000000000E+00 -0.00000000000E+00 -0.14887790988E+02  0.14887790988E+02  0.00000000000E+00 0.  1.
         25    2    1    2    0    0 -0.68030534645E+01  0.67591926375E+02  0.11452160411E+04  0.11540288274E+04  0.12509118136E+03 0.  0.
          5    1    3    3  502    0 -0.48985710363E+02  0.61063884923E+02  0.98681586792E+03  0.98992496051E+03  0.41800000000E+01 0.  1.
         -5    1    3    3    0  502  0.42182656899E+02  0.65280414522E+01  0.15840017316E+03  0.16410386688E+03  0.41800000000E+01 0.  1.
        -11    1    1    2    0    0 -0.75470016400E+01  0.13252795872E+02  0.73908235268E+01  0.16947510277E+02  0.00000000000E+00 0.  1.
         11    1    1    2    0    0  0.14350055105E+02 -0.80844722247E+02  0.28983126171E+03  0.30123737062E+03  0.00000000000E+00 0. -1.
</event>
<event>
 7    1  0.3151015E-009  0.1068247E+03  0.7561462E-02  0.1266566E+00
         -2   -1    0    0    0  501 -0.00000000000E+00  0.00000000000E+00  0.36601522242E+02  0.36601522242E+02  0.00000000000E+00 0.  1.
          2   -1    0    0  501    0  0.00000000000E+00 -0.00000000000E+00 -0.34455658874E+03  0.34455658874E+03  0.00000000000E+00 0. -1.
         25    2    1    2    0    0  0.12619473980E+01  0.12654053285E+02 -0.13065344797E+03  0.18131313931E+03  0.12506963438E+03 0.  0.
          5    1    3    3  502    0 -0.58752191507E+02 -0.52084711595E+01 -0.85693987252E+02  0.10411474454E+03  0.41800000000E+01 0.  1.
         -5    1    3    3    0  502  0.60014138905E+02  0.17862524444E+02 -0.44959460722E+02  0.77198394779E+02  0.41800000000E+01 0.  1.
        -11    1    1    2    0    0 -0.28382506415E+01 -0.52154499715E+02 -0.91106317578E+02  0.10501670634E+03  0.00000000000E+00 0.  1.
         11    1    1    2    0    0  0.15763032436E+01  0.39500446431E+02 -0.86195300944E+02  0.94828265327E+02  0.00000000000E+00 0. -1.
</event>
<event>
 7    1  0.3151015E-009  0.8697083E+02  0.7561462E-02  0.1310358E+00
         -2   -1    0    0    0  501 -0.00000000000E+00  0.00000000000E+00  0.42910459248E+02  0.42910459248E+02  0.00000000000E+00 0.  1.
          2   -1    0    0  501    0  0.00000000000E+00 -0.00000000000E+00 -0.29906238852E+03  0.29906238852E+03  0.00000000000E+00 0. -1.
         25    2    1    2    0    0 -0.33241572470E+02 -0.15635233869E+02 -0.19136949842E+03  0.23155296524E+03  0.12508008676E+03 0.  0.
          5    1    3    3  502    0  0.30223298987E+02  0.31135224448E+02 -0.33270390434E+02  0.54838319474E+02  0.41800000000E+01 0. -1.
         -5    1    3    3    0  502 -0.63464871458E+02 -0.46770458317E+02 -0.15809910799E+03  0.17671464576E+03  0.41800000000E+01 0. -1.
        -11    1    1    2    0    0 -0.11086527577E+01  0.16988285664E+02  0.15539851733E+02  0.23050335196E+02  0.00000000000E+00 0.  1.
         11    1    1    2    0    0  0.34350225228E+02 -0.13530517945E+01 -0.80322282587E+02  0.87369547340E+02  0.00000000000E+00 0. -1.
</event>
<event>
 7    1  0.3151015E-009  0.1590483E+03  0.7561462E-02  0.1189775E+00
          1   -1    0    0  501    0  0.00000000000E+00  0.00000000000E+00  0.79245144180E+03  0.79245144180E+03  0.00000000000E+00 0. -1.
         -1   -1    0    0    0  501 -0.00000000000E+00 -0.00000000000E+00 -0.36776211318E+02  0.36776211318E+02  0.00000000000E+00 0.  1.
         25    2    1    2    0    0 -0.13045148870E+03  0.18541640788E+02  0.39569827891E+03  0.43541460899E+03  0.12508944979E+03 0.  0.
          5    1    3    3  502    0  0.13261123423E+02  0.31825587497E+02  0.10920000494E+03  0.11458987256E+03  0.41800000000E+01 0.  1.
         -5    1    3    3    0  502 -0.14371261213E+03 -0.13283946708E+02  0.28649827397E+03  0.32082473644E+03  0.41800000000E+01 0.  1.
        -11    1    1    2    0    0  0.82068778051E+02 -0.33043305456E+02  0.31144233580E+03  0.32376453310E+03  0.00000000000E+00 0. -1.
         11    1    1    2    0    0  0.48382710651E+02  0.14501664668E+02  0.48534615781E+02  0.70048511027E+02  0.00000000000E+00 0.  1.
</event>
<event>
 7    1  0.3151015E-009  0.1728876E+03  0.7561462E-02  0.1174870E+00
          2   -1    0    0  501    0  0.00000000000E+00  0.00000000000E+00  0.10994787914E+04  0.10994787914E+04  0.00000000000E+00 0. -1.
         -2   -1    0    0    0  501 -0.00000000000E+00 -0.00000000000E+00 -0.34888714901E+02  0.34888714901E+02  0.00000000000E+00 0.  1.
         25    2    1    2    0    0  0.11668111492E+03 -0.11236692667E+03  0.50651354920E+03  0.54629965252E+03  0.12508607451E+03 0.  0.
          5    1    3    3  502    0  0.52619147604E+02 -0.10603527517E+03  0.19482602002E+03  0.22800636998E+03  0.41800000000E+01 0. -1.
         -5    1    3    3    0  502  0.64061967314E+02 -0.63316515063E+01  0.31168752917E+03  0.31829328254E+03  0.41800000000E+01 0. -1.
        -11    1    1    2    0    0 -0.25353131963E+02  0.34420079323E+02  0.49016478964E+02  0.65039513920E+02  0.00000000000E+00 0.  1.
         11    1    1    2    0    0 -0.91327982955E+02  0.77946847350E+02  0.50906004832E+03  0.52302833984E+03  0.00000000000E+00 0. -1.
</event>
<event>
 7    1  0.3151015E-009  0.1080544E+03  0.7561462E-02  0.1264216E+00
         -2   -1    0    0    0  501 -0.00000000000E+00  0.00000000000E+00  0.11945298540E+03  0.11945298540E+03  0.00000000000E+00 0.  1.
          2   -1    0    0  501    0  0.00000000000E+00 -0.00000000000E+00 -0.14828199278E+03  0.14828199278E+03  0.00000000000E+00 0. -1.
         25    2    1    2    0    0  0.68681989340E+02  0.53142420916E+01 -0.50287047899E+02  0.15141116256E+03  0.12510434098E+03 0.  0.
          5    1    3    3  502    0  0.17603147183E+02 -0.55429806485E+02 -0.18472018476E+01  0.58337113336E+02  0.41800000000E+01 0.  1.
         -5    1    3    3    0  502  0.51078842157E+02  0.60744048577E+02 -0.48439846052E+02  0.93074049225E+02  0.41800000000E+01 0.  1.
        -11    1    1    2    0    0 -0.23802693205E+02 -0.20015474397E+02  0.51636780141E+02  0.60278889194E+02  0.00000000000E+00 0.  1.
         11    1    1    2    0    0 -0.44879296134E+02  0.14701232305E+02 -0.30178739623E+02  0.56044926426E+02  0.00000000000E+00 0. -1.
</event>
<event>
 6    1  0.3151015E-009  0.1180841E+03  0.7561462E-02  0.1246292E+00
         -1   -1    0    0    0  501 -0.00000000000E+00  0.00000000000E+00  0.49445027444E+02  0.49445027444E+02  0.00000000000E+00 0.  1.
          1   -1    0    0  501    0  0.00000000000E+00 -0.00000000000E+00 -0.43446142061E+03  0.43446142061E+03  0.00000000000E+00 0. -1.
          5    1    1    2  502    0 -0.20257676679E+02  0.63166195519E+01 -0.77932714832E+02  0.80878016717E+02  0.41800000000E+01 0.  1.
         -5    1    1    2    0  502  0.96819301599E+02  0.14282700326E+02 -0.30953617002E+02  0.10273057722E+03  0.41800000000E+01 0.  1.
        -11    1    1    2    0    0  0.10528559992E+01  0.26022508486E+02 -0.83161733385E+02  0.87144439600E+02  0.00000000000E+00 0. -1.
         11    1    1    2    0    0 -0.77614480919E+02 -0.46621828364E+02 -0.19296832794E+03  0.21315341451E+03  0.00000000000E+00 0.  1.
</event>
<event>
 7    1  0.3151015E-009  0.8550766E+02  0.7561462E-02  0.1314110E+00
         -2   -1    0    0    0  501 -0.00000000000E+00  0.00000000000E+00  0.38956852988E+03  0.38956852988E+03  0.00000000000E+00 0.  1.
          2   -1    0    0  501    0  0.00000000000E+00 -0.00000000000E+00 -0.41744346469E+02  0.41744346469E+02  0.00000000000E+00 0. -1.
         25    2    1    2    0    0 -0.28836771729E+02  0.48194981189E+02  0.26690936658E+03  0.30007813762E+03  0.12510780590E+03 0.  0.
          5    1    3    3  502    0  0.18673489241E+01  0.33560095881E+02  0.30558877398E+01  0.34008497136E+02  0.41800000000E+01 0. -1.
         -5    1    3    3    0  502 -0.30704120653E+02  0.14634885307E+02  0.26385347884E+03  0.26606964049E+03  0.41800000000E+01 0. -1.
        -11    1    1    2    0    0  0.96877289957E+01 -0.71816346837E+02  0.51288305685E+02  0.88780234659E+02  0.00000000000E+00 0. -1.
         11    1    1    2    0    0  0.19149042734E+02  0.23621365648E+02  0.29626511142E+02  0.42454504062E+02  0.00000000000E+00 0.  1.
</event>
<event>
 7    1  0.3151015E-009  0.1107140E+03  0.7561462E-02  0.1259253E+00
          2   -1    0    0  501    0  0.00000000000E+00  0.00000000000E+00  0.38837701650E+03  0.38837701650E+03  0.00000000000E+00 0. -1.
         -2   -1    0    0    0  501 -0.00000000000E+00 -0.00000000000E+00 -0.43668994182E+02  0.43668994182E+02  0.00000000000E+00 0.  1.
         25    2    1    2    0    0 -0.27630759003E+02  0.66758310126E+02  0.18489030350E+03  0.23462766520E+03  0.12508231744E+03 0.  0.
          5    1    3    3  502    0 -0.65766079569E+02  0.24053426559E+00  0.10377989433E+03  0.12293483617E+03  0.41800000000E+01 0.  1.
         -5    1    3    3    0  502  0.38135320566E+02  0.66517775860E+02  0.81110409172E+02  0.11169282903E+03  0.41800000000E+01 0.  1.
        -11    1    1    2    0    0  0.17277617064E+02 -0.79336330726E+01 -0.69769154323E+01  0.20251813106E+02  0.00000000000E+00 0.  1.
         11    1    1    2    0    0  0.10353141939E+02 -0.58824677053E+02  0.16679463425E+03  0.17716653238E+03  0.00000000000E+00 0. -1.
</event>
<event>
 7    1  0.3151015E-009  0.2093994E+03  0.7561462E-02  0.1142042E+00
         -2   -1    0    0    0  501 -0.00000000000E+00  0.00000000000E+00  0.13542876489E+03  0.13542876489E+03  0.00000000000E+00 0.  1.
          2   -1    0    0  501    0  0.00000000000E+00 -0.00000000000E+00 -0.43872030173E+03  0.43872030173E+03  0.00000000000E+00 0. -1.
         25    2    1    2    0    0  0.62578400714E+01  0.18472225923E+03 -0.20174373629E+02  0.22408800037E+03  0.12508778094E+03 0.  0.
          5    1    3    3  502    0 -0.48936549020E+02  0.48527007018E+02  0.19630570777E+02  0.71780832742E+02  0.41800000000E+01 0.  1.
         -5    1    3    3    0  502  0.55194389091E+02  0.13619525221E+03 -0.39804944405E+02  0.15230716763E+03  0.41800000000E+01 0.  1.
        -11    1    1    2    0    0  0.33712297248E+02 -0.13392772207E+03 -0.16285044092E+03  0.21352615725E+03  0.00000000000E+00 0.  1.
         11    1    1    2    0    0 -0.39970137319E+02 -0.50794537158E+02 -0.12026672229E+03  0.13653490899E+03  0.00000000000E+00 0. -1.
</event>
<event>
 7    1  0.3151015E-009  0.1193947E+03  0.7561462E-02  0.1244099E+00
         -3   -1    0    0    0  501 -0.00000000000E+00  0.00000000000E+00  0.92802893948E+03  0.92802893948E+03  0.00000000000E+00 0.  1.
          3   -1    0    0  501    0  0.00000000000E+00 -0.00000000000E+00 -0.18646652273E+02  0.18646652273E+02  0.00000000000E+00 0. -1.
         25    2    1    2    0    0 -0.69969272186E+02 -0.30331173665E+02  0.39855483719E+03  0.42462775845E+03  0.12508835217E+03 0.  0.
          5    1    3    3  502    0 -0.84949916205E+02  0.12726188055E+02  0.33768387109E+03  0.34846278613E+03  0.41800000000E+01 0. -1.
         -5    1    3    3    0  502  0.14980644019E+02 -0.43057361720E+02  0.60870966101E+02  0.76164972314E+02  0.41800000000E+01 0. -1.
        -11    1    1    2    0    0  0.93357058416E+01 -0.23902058162E+02  0.99686088000E+02  0.10293580489E+03  0.00000000000E+00 0.  1.
         11    1    1    2    0    0  0.60633566344E+02  0.54233231827E+02  0.41114136202E+03  0.41911202842E+03  0.00000000000E+00 0. -1.
</event>
<event>
 7    1  0.3151015E-009  0.1022641E+03  0.7561462E-02  0.1275606E+00
          2   -1    0    0  501    0  0.00000000000E+00  0.00000000000E+00  0.40843191476E+03  0.40843191476E+03  0.00000000000E+00 0. -1.
         -2   -1    0    0    0  501 -0.00000000000E+00 -0.00000000000E+00 -0.39220097200E+02  0.39220097200E+02  0.00000000000E+00 0.  1.
         25    2    1    2    0    0 -0.31887910451E+02  0.47720848586E+02  0.22326379453E+03  0.26227480028E+03  0.12508889116E+03 0.  0.
          5    1    3    3  502    0 -0.34146688655E+02  0.75357752977E+02  0.76180415428E+02  0.11254206047E+03  0.41800000000E+01 0. -1.
         -5    1    3    3    0  502  0.22587782037E+01 -0.27636904390E+02  0.14708337910E+03  0.14973273981E+03  0.41800000000E+01 0. -1.
        -11    1    1    2    0    0  0.38467661331E+02  0.65133496050E+01  0.11744712451E+03  0.12375787550E+03  0.00000000000E+00 0. -1.
         11    1    1    2    0    0 -0.65797508804E+01 -0.54234198191E+02  0.28500898512E+02  0.61619336179E+02  0.00000000000E+00 0.  1.
</event>
<event>
 7    1  0.3151015E-009  0.1394816E+03  0.7561462E-02  0.1214028E+00
          3   -1    0    0  501    0  0.00000000000E+00  0.00000000000E+00  0.13059068485E+04  0.13059068485E+04  0.00000000000E+00 0. -1.
         -3   -1    0    0    0  501 -0.00000000000E+00 -0.00000000000E+00 -0.19706732748E+02  0.19706732748E+02  0.00000000000E+00 0.  1.
         25    2    1    2    0    0 -0.10762588716E+03  0.20087322125E+02  0.88509263733E+03  0.90057157912E+03  0.12511339007E+03 0.  0.
          5    1    3    3  502    0 -0.10501117181E+03  0.44018983793E+02  0.43051378152E+03  0.44533650829E+03  0.41800000000E+01 0. -1.
         -5    1    3    3    0  502 -0.26147153496E+01 -0.23931661668E+02  0.45457885581E+03  0.45523507083E+03  0.41800000000E+01 0. -1.
        -11    1    1    2    0    0  0.47604805479E+02 -0.53726884582E+02  0.20919725734E+03  0.22117026950E+03  0.00000000000E+00 0.  1.
         11    1    1    2    0    0  0.60021081677E+02  0.33639562457E+02  0.19191022108E+03  0.20387173262E+03  0.00000000000E+00 0. -1.
</event>
<event>
 7    1  0.3151015E-009  0.1517017E+03  0.7561462E-02  0.1198397E+00
          2   -1    0    0  501    0  0.00000000000E+00  0.00000000000E+00  0.16052347343E+04  0.16052347343E+04  0.00000000000E+00 0. -1.
         -2   -1    0    0    0  501 -0.00000000000E+00 -0.00000000000E+00 -0.26212493575E+02  0.26212493575E+02  0.00000000000E+00 0.  1.
         25    2    1    2    0    0  0.89200179895E+02 -0.10268238172E+03  0.11361689008E+04  0.11510986184E+04  0.12509162396E+03 0.  0.
          5    1    3    3  502    0  0.36030901460E+02 -0.10767842456E+03  0.96696995196E+03  0.97362273462E+03  0.41800000000E+01 0.  1.
         -5    1    3    3    0  502  0.53169278435E+02  0.49960428376E+01  0.16919894887E+03  0.17747588375E+03  0.41800000000E+01 0.  1.
        -11    1    1    2    0    0 -0.36960978772E+02  0.37116614040E+02  0.32776128356E+02  0.61790222362E+02  0.00000000000E+00 0.  1.
         11    1    1    2    0    0 -0.52239201123E+02  0.65565767680E+02  0.41007721157E+03  0.41855838717E+03  0.00000000000E+00 0. -1.
</event>
<event>
 7    1  0.3151015E-009  0.1255517E+03  0.7561462E-02  0.1234210E+00
          2   -1    0    0  501    0  0.00000000000E+00  0.00000000000E+00  0.11219301364E+03  0.11219301364E+03  0.00000000000E+00 0. -1.
         -2   -1    0    0    0  501 -0.00000000000E+00 -0.00000000000E+00 -0.15032457419E+03  0.15032457419E+03  0.00000000000E+00 0.  1.
         25    2    1    2    0    0 -0.12599340456E+02  0.66685191486E+02 -0.12263169949E+02  0.14284193725E+03  0.12509106905E+03 0.  0.
          5    1    3    3  502    0 -0.66481607359E+02  0.35208862343E+02 -0.24269397921E+02  0.79157717122E+02  0.41800000000E+01 0. -1.
         -5    1    3    3    0  502  0.53882266902E+02  0.31476329143E+02  0.12006227973E+02  0.63684220125E+02  0.41800000000E+01 0. -1.
        -11    1    1    2    0    0 -0.26182761403E+02 -0.69562653675E+02 -0.26315868562E+01  0.74373550610E+02  0.00000000000E+00 0.  1.
         11    1    1    2    0    0  0.38782101859E+02  0.28774621888E+01 -0.23236803748E+02  0.45302099970E+02  0.00000000000E+00 0. -1.
</event>
<event>
 7    1  0.3151015E-009  0.1841506E+03  0.7561462E-02  0.1163845E+00
          3   -1    0    0  501    0  0.00000000000E+00  0.00000000000E+00  0.94273941003E+03  0.94273941003E+03  0.00000000000E+00 0. -1.
         -3   -1    0    0    0  501 -0.00000000000E+00 -0.00000000000E+00 -0.41907880049E+02  0.41907880049E+02  0.00000000000E+00 0.  1.
         25    2    1    2    0    0  0.58249465429E+02 -0.15607281772E+03  0.47271394915E+03  0.51658219582E+03  0.12508781979E+03 0.  0.
          5    1    3    3  502    0  0.27777119695E+02 -0.41304912439E+01  0.12614653360E+02  0.31068170462E+02  0.41800000000E+01 0. -1.
         -5    1    3    3    0  502  0.30472345734E+02 -0.15194232648E+03  0.46009929579E+03  0.48551402536E+03  0.41800000000E+01 0. -1.
        -11    1    1    2    0    0 -0.51653991802E+02  0.32267498573E+02  0.19123304389E+03  0.20069729297E+03  0.00000000000E+00 0. -1.
         11    1    1    2    0    0 -0.65954736272E+01  0.12380531915E+03  0.23688453695E+03  0.26736780129E+03  0.00000000000E+00 0.  1.
</event>
<event>
 7    1  0.3151015E-009  0.9301870E+02  0.7561462E-02  0.1295702E+00
          2   -1    0    0  501    0  0.00000000000E+00  0.00000000000E+00  0.15486042088E+03  0.15486042088E+03  0.00000000000E+00 0. -1.
         -2   -1    0    0    0  501 -0.00000000000E+00 -0.00000000000E+00 -0.77193172197E+02  0.77193172197E+02  0.00000000000E+00 0.  1.
         25    2    1    2    0    0  0.12474005635E+02  0.91485002066E+01  0.33972472477E+02  0.13053618887E+03  0.12508505845E+03 0.  0.
          5    1    3    3  502    0 -0.26572975612E+02 -0.48532048270E+02  0.22229441708E+02  0.59775439947E+02  0.41800000000E+01 0.  1.
         -5    1    3    3    0  502  0.39046981246E+02  0.57680548477E+02  0.11743030769E+02  0.70760748927E+02  0.41800000000E+01 0.  1.
        -11    1    1    2    0    0  0.23800487201E+02 -0.38656227262E+01 -0.17769061619E+02  0.29952391906E+02  0.00000000000E+00 0.  1.
         11    1    1    2    0    0 -0.36274492836E+02 -0.52828774804E+01  0.61463837824E+02  0.71565012296E+02  0.00000000000E+00 0. -1.
</event>
<event>
 7    1  0.3151015E-009  0.2211810E+03  0.7561462E-02  0.1133006E+00
          2   -1    0    0  501    0  0.00000000000E+00  0.00000000000E+00  0.82143844920E+03  0.82143844920E+03  0.00000000000E+00 0. -1.
         -2   -1    0    0    0  501 -0.00000000000E+00 -0.00000000000E+00 -0.87592941675E+02  0.87592941675E+02  0.00000000000E+00 0.  1.
         25    2    1    2    0    0 -0.15704790543E+03  0.11654708420E+03  0.62487712722E+03  0.66660822230E+03  0.12509128862E+03 0.  0.
          5    1    3    3  502    0 -0.12597165393E+03  0.22288677810E+02  0.28316276402E+03  0.31074791404E+03  0.41800000000E+01 0.  1.
         -5    1    3    3    0  502 -0.31076251493E+02  0.94258406391E+02  0.34171436320E+03  0.35586030826E+03  0.41800000000E+01 0.  1.
        -11    1    1    2    0    0  0.15448958246E+01 -0.42968804190E+02  0.33775468925E+02  0.54676202664E+02  0.00000000000E+00 0. -1.
         11    1    1    2    0    0  0.15550300960E+03 -0.73578280011E+02  0.75192911379E+02  0.18774696590E+03  0.00000000000E+00 0.  1.
</event>
<event>
 7    1  0.3151015E-009  0.1085539E+03  0.7561462E-02  0.1263271E+00
          3   -1    0    0  501    0  0.00000000000E+00  0.00000000000E+00  0.58805413787E+03  0.58805413787E+03  0.00000000000E+00 0. -1.
         -3   -1    0    0    0  501 -0.00000000000E+00 -0.00000000000E+00 -0.20443194789E+02  0.20443194789E+02  0.00000000000E+00 0.  1.
         25    2    1    2    0    0 -0.16148725727E+02 -0.11443390207E+02  0.33092300573E+03  0.35433062296E+03  0.12509365340E+03 0.  0.
          5    1    3    3  502    0  0.53768985434E+02 -0.77279895503E+01  0.17665605909E+03  0.18486660388E+03  0.41800000000E+01 0.  1.
         -5    1    3    3    0  502 -0.69917711161E+02 -0.37154006563E+01  0.15426694665E+03  0.16946401908E+03  0.41800000000E+01 0.  1.
        -11    1    1    2    0    0  0.31885538126E+02  0.45156694085E+02  0.14827767656E+03  0.15824690812E+03  0.00000000000E+00 0.  1.
         11    1    1    2    0    0 -0.15736812399E+02 -0.33713303878E+02  0.88410260787E+02  0.95919801581E+02  0.00000000000E+00 0. -1.
</event>
<event>
 7    1  0.3151015E-009  0.1220696E+03  0.7561462E-02  0.1239721E+00
         -2   -1    0    0    0  501 -0.00000000000E+00  0.00000000000E+00  0.94725189927E+02  0.94725189927E+02  0.00000000000E+00 0.  1.
          2   -1    0    0  501    0  0.00000000000E+00 -0.00000000000E+00 -0.20111149010E+03  0.20111149010E+03  0.00000000000E+00 0. -1.
         25    2    1    2    0    0  0.66528894230E+02 -0.81001324519E+01  0.20166990139E+01  0.14193914097E+03  0.12510374395E+03 0.  0.
          5    1    3    3  502    0  0.37811157888E+02 -0.63348260943E+02 -0.18631716776E+02  0.76205636900E+02  0.41800000000E+01 0. -1.
         -5    1    3    3    0  502  0.28717736342E+02  0.55248128491E+02  0.20648415790E+02  0.65733504068E+02  0.41800000000E+01 0. -1.
        -11    1    1    2    0    0 -0.77662724431E+02  0.30013416771E+02 -0.93299758682E+02  0.12504858625E+03  0.00000000000E+00 0. -1.
         11    1    1    2    0    0  0.11133830201E+02 -0.21913284320E+02 -0.15103240504E+02  0.28848952812E+02  0.00000000000E+00 0.  1.
</event>
<event>
 7    1  0.3151015E-009  0.9137310E+02  0.7561462E-02  0.1299560E+00
          2   -1    0    0  501    0  0.00000000000E+00  0.00000000000E+00  0.33941427962E+02  0.33941427962E+02  0.00000000000E+00 0. -1.
         -2   -1    0    0    0  501 -0.00000000000E+00 -0.00000000000E+00 -0.42056003079E+03  0.42056003079E+03  0.00000000000E+00 0.  1.
         25    2    1    2    0    0 -0.30331803648E+02  0.42200446618E+02 -0.22318816379E+03  0.26107481007E+03  0.12508478720E+03 0.  0.
          5    1    3    3  502    0  0.15408325616E+02 -0.33163376779E+02 -0.26079588725E+02  0.45109238585E+02  0.41800000000E+01 0. -1.
         -5    1    3    3    0  502 -0.45740129264E+02  0.75363823397E+02 -0.19710857507E+03  0.21596557149E+03  0.41800000000E+01 0. -1.
        -11    1    1    2    0    0 -0.81941576712E+00 -0.18556946111E+02  0.60166480442E+01  0.19525156717E+02  0.00000000000E+00 0. -1.
         11    1    1    2    0    0  0.31151219415E+02 -0.23643500507E+02 -0.16944708708E+03  0.17390149196E+03  0.00000000000E+00 0.  1.
</event>
<event>
 7    1  0.3151015E-009  0.1065117E+03  0.7561462E-02  0.1267170E+00
         -1   -1    0    0    0  501 -0.00000000000E+00  0.00000000000E+00  0.35892065473E+03  0.35892065473E+03  0.00000000000E+00 0.  1.
          1   -1    0    0  501    0  0.00000000000E+00 -0.00000000000E+00 -0.44514882809E+02  0.44514882809E+02  0.00000000000E+00 0. -1.
         25    2    1    2    0    0 -0.40146291009E+01  0.62133612355E+02  0.20558933701E+03  0.24858144787E+03  0.12509619379E+03 0.  0.
          5    1    3    3  502    0  0.39013595737E+00 -0.38573182512E+02  0.54341946050E+02  0.66772465251E+02  0.41800000000E+01 0. -1.
         -5    1    3    3    0  502 -0.44047650583E+01  0.10070679487E+03  0.15124739096E+03  0.18180898262E+03  0.41800000000E+01 0. -1.
        -11    1    1    2    0    0  0.21478354146E+02 -0.34999936140E+02 -0.30066278188E+00  0.41065869340E+02  0.00000000000E+00 0. -1.
         11    1    1    2    0    0 -0.17463725045E+02 -0.27133676215E+02  0.10911709769E+03  0.11378822033E+03  0.00000000000E+00 0.  1.
</event>
<event>
 7    1  0.3151015E-009  0.2873693E+03  0.7561462E-02  0.1091731E+00
         -2   -1    0    0    0  501 -0.00000000000E+00  0.00000000000E+00  0.82030629336E+02  0.82030629336E+02  0.00000000000E+00 0.  1.
          2   -1    0    0  501    0  0.00000000000E+00 -0.00000000000E+00 -0.10593166046E+04  0.10593166046E+04  0.00000000000E+00 0. -1.
         25    2    1    2    0    0  0.25395036350E+03  0.10258836324E+03 -0.50258897188E+03  0.58588344254E+03  0.12509426124E+03 0.  0.
          5    1    3    3  502    0  0.22303297151E+03  0.12929452810E+03 -0.45542613227E+03  0.52334617198E+03  0.41800000000E+01 0.  1.
         -5    1    3    3    0  502  0.30917391988E+02 -0.26706164857E+02 -0.47162839613E+02  0.62537270560E+02  0.41800000000E+01 0.  1.
        -11    1    1    2    0    0 -0.10953192393E+03 -0.26900727910E+02 -0.11781428675E+03  0.16309842944E+03  0.00000000000E+00 0.  1.
         11    1    1    2    0    0 -0.14441843957E+03 -0.75687635334E+02 -0.35688271661E+03  0.39236536193E+03  0.00000000000E+00 0. -1.
</event>
<event>
 7    1  0.3151015E-009  0.8116112E+02  0.7561462E-02  0.1325788E+00
         -1   -1    0    0    0  501 -0.00000000000E+00  0.00000000000E+00  0.49990286831E+03  0.49990286831E+03  0.00000000000E+00 0.  1.
          1   -1    0    0  501    0  0.00000000000E+00 -0.00000000000E+00 -0.26261263385E+02  0.26261263385E+02  0.00000000000E+00 0. -1.
         25    2    1    2    0    0 -0.17271197261E+02 -0.12816456791E+01  0.19501423536E+03  0.23233136740E+03  0.12508946964E+03 0.  0.
          5    1    3    3  502    0  0.24130056909E+02  0.24255224777E+02  0.17694699408E+03  0.18027281184E+03  0.41800000000E+01 0. -1.
         -5    1    3    3    0  502 -0.41401254170E+02 -0.25536870456E+02  0.18067241282E+02  0.52058555561E+02  0.41800000000E+01 0. -1.
        -11    1    1    2    0    0 -0.51800055600E+01  0.36717944635E+02  0.21112885770E+03  0.21436052451E+03  0.00000000000E+00 0.  1.
         11    1    1    2    0    0  0.22451202821E+02 -0.35436298955E+02  0.67498511868E+02  0.79472239783E+02  0.00000000000E+00 0. -1.
</event>
<event>
 7    1  0.3151015E-009  0.1094645E+03  0.7561462E-02  0.1261565E+00
          3   -1    0    0  501    0  0.00000000000E+00  0.00000000000E+00  0.20496397970E+03  0.20496397970E+03  0.00000000000E+00 0. -1.
         -3   -1    0    0    0  501 -0.00000000000E+00 -0.00000000000E+00 -0.87270083493E+02  0.87270083493E+02  0.00000000000E+00 0.  1.
         25    2    1    2    0    0  0.76137654494E+02 -0.22426026777E+02  0.81700030895E+02  0.16918097888E+03  0.12508972562E+03 0.  0.
          5    1    3    3  502    0  0.39309612419E+02 -0.47415292653E+02  0.10267390271E+03  0.11980341524E+03  0.41800000000E+01 0. -1.
         -5    1    3    3    0  502  0.36828042075E+02  0.24989265876E+02 -0.20973871810E+02  0.49377563638E+02  0.41800000000E+01 0. -1.
        -11    1    1    2    0    0 -0.91601304644E+02  0.28421774234E+02  0.42926037772E+02  0.10507730955E+03  0.00000000000E+00 0. -1.
         11    1    1    2    0    0  0.15463650150E+02 -0.59957474570E+01 -0.69321724604E+01  0.17975774769E+02  0.00000000000E+00 0.  1.
</event>
<event>
 7    1  0.3151015E-009  0.1597535E+03  0.7561462E-02  0.1188975E+00
          2   -1    0    0  501    0  0.00000000000E+00  0.00000000000E+00  0.76477893144E+03  0.76477893144E+03  0.00000000000E+00 0. -1.
         -2   -1    0    0    0  501 -0.00000000000E+00 -0.00000000000E+00 -0.43414319267E+02  0.43414319267E+02  0.00000000000E+00 0.  1.
         25    2    1    2    0    0 -0.58729508726E+02 -0.13493418205E+03  0.33772454790E+03  0.38905485120E+03  0.12509763512E+03 0.  0.
          5    1    3    3  502    0  0.83180472985E+01 -0.73509667825E+02  0.55680643266E+02  0.92685854418E+02  0.41800000000E+01 0. -1.
         -5    1    3    3    0  502 -0.67047556024E+02 -0.61424514224E+02  0.28204390463E+03  0.29636899679E+03  0.41800000000E+01 0. -1.
        -11    1    1    2    0    0  0.58138772057E+02  0.77184216220E+02  0.31471498898E+03  0.32921580208E+03  0.00000000000E+00 0. -1.
         11    1    1    2    0    0  0.59073666871E+00  0.57749965829E+02  0.68925075296E+02  0.89922597424E+02  0.00000000000E+00 0.  1.
</event>
<event>
 7    1  0.3151015E-009  0.1363971E+03  0.7561462E-02  0.1218261E+00
         -3   -1    0    0    0  501 -0.00000000000E+00  0.00000000000E+00  0.17280644582E+02  0.17280644582E+02  0.00000000000E+00 0.  1.
          3   -1    0    0  501    0  0.00000000000E+00 -0.00000000000E+00 -0.11332004118E+04  0.11332004118E+04  0.00000000000E+00 0. -1.
         25    2    1    2    0    0  0.53388193200E+02 -0.69613242416E+02 -0.58505537455E+03  0.60467643845E+03  0.12508997259E+03 0.  0.
          5    1    3    3  502    0 -0.35856083506E+02 -0.35565157823E+02 -0.29355246911E+03  0.29789438346E+03  0.41800000000E+01 0. -1.
         -5    1    3    3    0  502  0.89244276706E+02 -0.34048084593E+02 -0.29150290544E+03  0.30678205500E+03  0.41800000000E+01 0. -1.
        -11    1    1    2    0    0  0.18184983580E+02  0.48636057155E+02 -0.19904292408E+03  0.20570426663E+03  0.00000000000E+00 0.  1.
         11    1    1    2    0    0 -0.71573176779E+02  0.20977185261E+02 -0.33182146861E+03  0.34010035132E+03  0.00000000000E+00 0. -1.
</event>
<event>
 7    1  0.3151015E-009  0.8226508E+02  0.7561462E-02  0.1322744E+00
          1   -1    0    0  501    0  0.00000000000E+00  0.00000000000E+00  0.73319067937E+03  0.73319067937E+03  0.00000000000E+00 0. -1.
         -1   -1    0    0    0  501 -0.00000000000E+00 -0.00000000000E+00 -0.21683103332E+02  0.21683103332E+02  0.00000000000E+00 0.  1.
         25    2    1    2    0    0 -0.46990516734E+02 -0.11715415207E+02  0.26654498639E+03  0.29839229402E+03  0.12508545776E+03 0.  0.
          5    1    3    3  502    0 -0.91622759003E+01 -0.28044162126E+02  0.11860225404E+01  0.29821156559E+02  0.41800000000E+01 0.  1.
         -5    1    3    3    0  502 -0.37828240834E+02  0.16328746919E+02  0.26535896385E+03  0.26857113746E+03  0.41800000000E+01 0.  1.
        -11    1    1    2    0    0 -0.21290351980E+02  0.13148482048E+02  0.52960899241E+02  0.58574896637E+02  0.00000000000E+00 0. -1.
         11    1    1    2    0    0  0.68280868715E+02 -0.14330668407E+01  0.39200169040E+03  0.39790659204E+03  0.00000000000E+00 0.  1.
</event>
<event>
 7    1  0.3151015E-009  0.1069494E+03  0.7561462E-02  0.1266326E+00
         -2   -1    0    0    0  501 -0.00000000000E+00  0.00000000000E+00  0.35696013419E+03  0.35696013419E+03  0.00000000000E+00 0.  1.
          2   -1    0    0  501    0  0.00000000000E+00 -0.00000000000E+00 -0.39060704757E+02  0.39060704757E+02  0.00000000000E+00 0. -1.
         25    2    1    2    0    0 -0.16648926210E+02 -0.13025644829E+02  0.11280658568E+03  0.16976821231E+03  0.12509622684E+03 0.  0.
          5    1    3    3  502    0  0.51381404706E+02 -0.14546987311E+02  0.26435757992E+02  0.59732614960E+02  0.41800000000E+01 0.  1.
         -5    1    3    3    0  502 -0.68030330916E+02  0.15213424828E+01  0.86370827692E+02  0.11003559735E+03  0.41800000000E+01 0.  1.
        -11    1    1    2    0    0  0.26177611225E+02  0.48669752868E+02  0.92307356362E+02  0.10758559482E+03  0.00000000000E+00 0.  1.
         11    1    1    2    0    0 -0.95286850146E+01 -0.35644108040E+02  0.11278548738E+03  0.11866703182E+03  0.00000000000E+00 0. -1.
</event>
<event>
 7    1  0.3151015E-009  0.1030556E+03  0.7561462E-02  0.1273999E+00
          1   -1    0    0  501    0  0.00000000000E+00  0.00000000000E+00  0.18045248187E+03  0.18045248187E+03  0.00000000000E+00 0. -1.
         -1   -1    0    0    0  501 -0.00000000000E+00 -0.00000000000E+00 -0.17448961737E+03  0.17448961737E+03  0.00000000000E+00 0.  1.
         25    2    1    2    0    0  0.17083736580E+02 -0.77083103168E+02  0.11952731584E+03  0.19017986822E+03  0.12509174311E+03 0.  0.
          5    1    3    3  502    0  0.34709420407E+02 -0.58182627846E+02  0.60356088208E-01  0.67878112017E+02  0.41800000000E+01 0. -1.
         -5    1    3    3    0  502 -0.17625683827E+02 -0.18900475321E+02  0.11946695975E+03  0.12230175620E+03  0.41800000000E+01 0. -1.
        -11    1    1    2    0    0 -0.45177330879E+02  0.22064761211E+02 -0.79917601053E+02  0.94417518876E+02  0.00000000000E+00 0.  1.
         11    1    1    2    0    0  0.28093594300E+02  0.55018341956E+02 -0.33646850287E+02  0.70344712143E+02  0.00000000000E+00 0. -1.
</event>
<event>
 7    1  0.3151015E-009  0.1115621E+03  0.7561462E-02  0.1257704E+00
          4   -1    0    0  501    0  0.00000000000E+00  0.00000000000E+00  0.39859525731E+02  0.39859525731E+02  0.00000000000E+00 0. -1.
         -4   -1    0    0    0  501 -0.00000000000E+00 -0.00000000000E+00 -0.32279309720E+03  0.32279309720E+03  0.00000000000E+00 0.  1.
         25    2    1    2    0    0 -0.10634413947E+02  0.29304486664E+02 -0.14236657048E+03  0.19205790711E+03  0.12508459376E+03 0.  0.
          5    1    3    3  502    0 -0.23036985043E+02 -0.45620249848E+02 -0.72347774642E+02  0.88676844620E+02  0.41800000000E+01 0. -1.
         -5    1    3    3    0  502  0.12402571097E+02  0.74924736512E+02 -0.70018795835E+02  0.10338106249E+03  0.41800000000E+01 0. -1.
        -11    1    1    2    0    0  0.45977843075E+02 -0.37702896059E+02 -0.75837372134E+02  0.96367927431E+02  0.00000000000E+00 0.  1.
         11    1    1    2    0    0 -0.35343429129E+02  0.83984093950E+01 -0.64729628859E+02  0.74226788393E+02  0.00000000000E+00 0. -1.
</event>
<event>
 7    1  0.3151015E-009  0.1430356E+03  0.7561462E-02  0.1209302E+00
          2   -1    0    0  501    0  0.00000000000E+00  0.00000000000E+00  0.37915653320E+03  0.37915653320E+03  0.00000000000E+00 0. -1.
         -2   -1    0    0    0  501 -0.00000000000E+00 -0.00000000000E+00 -0.69581704071E+02  0.69581704071E+02  0.00000000000E+00 0.  1.
         25    2    1    2    0    0 -0.10792677920E+03  0.36507595571E+02  0.10754905991E+03  0.20048728728E+03  0.12508939951E+03 0.  0.
          5    1    3    3  502    0  0.77193979686E+01  0.45371772577E+02  0.58338558786E+02  0.74424772038E+02  0.41800000000E+01 0. -1.
         -5    1    3    3    0  502 -0.11564617717E+03 -0.88641770050E+01  0.49210501129E+02  0.12606251524E+03  0.41800000000E+01 0. -1.
        -11    1    1    2    0    0 -0.16576787801E+01 -0.11208449647E+02 -0.52047752177E+01  0.12468637757E+02  0.00000000000E+00 0.  1.
         11    1    1    2    0    0  0.10958445798E+03 -0.25299145924E+02  0.20723054443E+03  0.23578231223E+03  0.00000000000E+00 0. -1.
</event>
<event>
 7    1  0.3151015E-009  0.1185289E+03  0.7561462E-02  0.1245544E+00
         -2   -1    0    0    0  501 -0.00000000000E+00  0.00000000000E+00  0.61857833017E+02  0.61857833017E+02  0.00000000000E+00 0.  1.
          2   -1    0    0  501    0  0.00000000000E+00 -0.00000000000E+00 -0.32745367523E+03  0.32745367523E+03  0.00000000000E+00 0. -1.
         25    2    1    2    0    0  0.31523993450E+02 -0.72864604070E+02 -0.20859172475E+03  0.25585233455E+03  0.12508755642E+03 0.  0.
          5    1    3    3  502    0 -0.84285504069E+01  0.16306644738E+02  0.62177765553E+01  0.19826252038E+02  0.41800000000E+01 0.  1.
         -5    1    3    3    0  502  0.39952543857E+02 -0.89171248808E+02 -0.21480950130E+03  0.23602608251E+03  0.41800000000E+01 0.  1.
        -11    1    1    2    0    0 -0.41672228303E+02  0.90753086273E+02 -0.50381931302E+02  0.11185274374E+03  0.00000000000E+00 0. -1.
         11    1    1    2    0    0  0.10148234853E+02 -0.17888482203E+02 -0.66221861628E+01  0.21606429963E+02  0.00000000000E+00 0.  1.
</event>
<event>
 7    1  0.3151015E-009  0.1086497E+03  0.7561462E-02  0.1263091E+00
          1   -1    0    0  501    0  0.00000000000E+00  0.00000000000E+00  0.88141001726E+02  0.88141001726E+02  0.00000000000E+00 0. -1.
         -1   -1    0    0    0  501 -0.00000000000E+00 -0.00000000000E+00 -0.20172322905E+03  0.20172322905E+03  0.00000000000E+00 0.  1.
         25    2    1    2    0    0  0.16180018742E+02 -0.57317171324E+02 -0.89001777249E+01  0.13883240972E+03  0.12509266041E+03 0.  0.
          5    1    3    3  502    0 -0.29627454266E+02 -0.55415668070E+02  0.37640834743E+02  0.73368843211E+02  0.41800000000E+01 0.  1.
         -5    1    3    3    0  502  0.45807473009E+02 -0.19015032535E+01 -0.46541012467E+02  0.65463566505E+02  0.41800000000E+01 0.  1.
        -11    1    1    2    0    0 -0.49499432533E+02  0.56277987383E+02 -0.79453950412E+02  0.10922607711E+03  0.00000000000E+00 0.  1.
         11    1    1    2    0    0  0.33319413791E+02  0.10391839412E+01 -0.25228099189E+02  0.41805743952E+02  0.00000000000E+00 0. -1.
</event>
<event>
 7    1  0.3151015E-009  0.1452726E+03  0.7561462E-02  0.1206405E+00
         -1   -1    0    0    0  501 -0.00000000000E+00  0.00000000000E+00  0.22410203571E+02  0.22410203571E+02  0.00000000000E+00 0.  1.
          1   -1    0    0  501    0  0.00000000000E+00 -0.00000000000E+00 -0.95927298334E+03  0.95927298334E+03  0.00000000000E+00 0. -1.
         25    2    1    2    0    0  0.84486329118E+02  0.49355257185E+02 -0.49509557806E+03  0.51994445642E+03  0.12509486451E+03 0.  0.
          5    1    3    3  502    0  0.71299532607E+02  0.89254385258E+02 -0.39735809017E+03  0.41347417436E+03  0.41800000000E+01 0. -1.
         -5    1    3    3    0  502  0.13186796512E+02 -0.39899128072E+02 -0.97737487894E+02  0.10647028207E+03  0.41800000000E+01 0. -1.
        -11    1    1    2    0    0 -0.94902619125E+02 -0.12521764527E+02 -0.32965387904E+03  0.34327100325E+03  0.00000000000E+00 0. -1.
         11    1    1    2    0    0  0.10416290007E+02 -0.36833492658E+02 -0.11211332267E+03  0.11846772724E+03  0.00000000000E+00 0.  1.
</event>
<event>
 7    1  0.3151015E-009  0.1512386E+03  0.7561462E-02  0.1198959E+00
          2   -1    0    0  501    0  0.00000000000E+00  0.00000000000E+00  0.13941322009E+04  0.13941322009E+04  0.00000000000E+00 0. -1.
         -2   -1    0    0    0  501 -0.00000000000E+00 -0.00000000000E+00 -0.26602974212E+02  0.26602974212E+02  0.00000000000E+00 0.  1.
         25    2    1    2    0    0 -0.44417825924E+01 -0.14514939352E+03  0.95109077469E+03  0.97021111143E+03  0.12509141925E+03 0.  0.
          5    1    3    3  502    0 -0.17334378502E+02 -0.11520866450E+03  0.36426334925E+03  0.38246408598E+03  0.41800000000E+01 0. -1.
         -5    1    3    3    0  502  0.12892595910E+02 -0.29940729023E+02  0.58682742544E+03  0.58774702546E+03  0.41800000000E+01 0. -1.
        -11    1    1    2    0    0  0.25476335354E+02  0.10044546752E+03  0.16930575983E+03  0.19850132473E+03  0.00000000000E+00 0.  1.
         11    1    1    2    0    0 -0.21034552761E+02  0.44703925999E+02  0.24713269221E+03  0.25202273900E+03  0.00000000000E+00 0. -1.
</event>
<event>
 7    1  0.3151015E-009  0.1810572E+03  0.7561462E-02  0.1166784E+00
         -2   -1    0    0    0  501 -0.00000000000E+00  0.00000000000E+00  0.48980336084E+02  0.48980336084E+02  0.00000000000E+00 0.  1.
          2   -1    0    0  501    0  0.00000000000E+00 -0.00000000000E+00 -0.87800792040E+03  0.87800792040E+03  0.00000000000E+00 0. -1.
         25    2    1    2    0    0 -0.12820758077E+01  0.16531193033E+03 -0.29432343900E+03  0.36001386760E+03  0.12511602654E+03 0.  0.
          5    1    3    3  502    0  0.19330272605E+02  0.17226016840E+03 -0.20749640553E+03  0.27040609417E+03  0.41800000000E+01 0.  1.
         -5    1    3    3    0  502 -0.20612348412E+02 -0.69482380683E+01 -0.86827033468E+02  0.89607773437E+02  0.41800000000E+01 0.  1.
        -11    1    1    2    0    0 -0.93246557464E+01 -0.58895686763E+02 -0.79505837204E+02  0.99382238220E+02  0.00000000000E+00 0.  1.
         11    1    1    2    0    0  0.10606731554E+02 -0.10641624357E+03 -0.45519830812E+03  0.46759215066E+03  0.00000000000E+00 0. -1.
</event>
<event>
 7    1  0.3151015E-009  0.9350112E+02  0.7561462E-02  0.1294588E+00
          2   -1    0    0  501    0  0.00000000000E+00  0.00000000000E+00  0.53545779951E+03  0.53545779951E+03  0.00000000000E+00 0. -1.
         -2   -1    0    0    0  501 -0.00000000000E+00 -0.00000000000E+00 -0.28294089267E+02  0.28294089267E+02  0.00000000000E+00 0.  1.
         25    2    1    2    0    0 -0.14897788887E+02 -0.31105063445E+01  0.41308116317E+03  0.43187311015E+03  0.12508683599E+03 0.  0.
          5    1    3    3  502    0 -0.55356719675E+02 -0.19910634230E+00  0.86673030596E+02  0.10292760897E+03  0.41800000000E+01 0. -1.
         -5    1    3    3    0  502  0.40458930788E+02 -0.29114000022E+01  0.32640813258E+03  0.32894550117E+03  0.41800000000E+01 0. -1.
        -11    1    1    2    0    0 -0.20665661739E+02 -0.33696029294E+02  0.28710264745E+02  0.48854593101E+02  0.00000000000E+00 0. -1.
         11    1    1    2    0    0  0.35563450626E+02  0.36806535639E+02  0.65372282325E+02  0.83024185528E+02  0.00000000000E+00 0.  1.
</event>
<event>
 7    1  0.3151015E-009  0.1686902E+03  0.7561462E-02  0.1179221E+00
          2   -1    0    0  501    0  0.00000000000E+00  0.00000000000E+00  0.13863451641E+03  0.13863451641E+03  0.00000000000E+00 0. -1.
         -2   -1    0    0    0  501 -0.00000000000E+00 -0.00000000000E+00 -0.26742401937E+03  0.26742401937E+03  0.00000000000E+00 0.  1.
         25    2    1    2    0    0  0.91140851007E+02 -0.12950061355E+03 -0.66475150622E+02  0.21247155953E+03  0.12509258303E+03 0.  0.
          5    1    3    3  502    0  0.37376388533E+02  0.11222721832E+01  0.24041547287E+02  0.44651117686E+02  0.41800000000E+01 0.  1.
         -5    1    3    3    0  502  0.53764462473E+02 -0.13062288573E+03 -0.90516697909E+02  0.16782044185E+03  0.41800000000E+01 0.  1.
        -11    1    1    2    0    0 -0.63834150328E+02  0.94626220511E+02 -0.86411014756E+02  0.14316348636E+03  0.00000000000E+00 0.  1.
         11    1    1    2    0    0 -0.27306700679E+02  0.34874393037E+02  0.24096662423E+02  0.50423489879E+02  0.00000000000E+00 0. -1.
</event>
<event>
 7    1  0.3151015E-009  0.7496000E+02  0.7561462E-02  0.1343995E+00
         -3   -1    0    0    0  501 -0.00000000000E+00  0.00000000000E+00  0.30082006692E+03  0.30082006692E+03  0.00000000000E+00 0.  1.
          3   -1    0    0  501    0  0.00000000000E+00 -0.00000000000E+00 -0.42062704816E+02  0.42062704816E+02  0.00000000000E+00 0. -1.
         25    2    1    2    0    0 -0.24953100470E+02 -0.50407155561E+01  0.17528470228E+03  0.21684608909E+03  0.12509769566E+03 0.  0.
          5    1    3    3  502    0  0.30390365871E+02 -0.15273580222E+02  0.15196589745E+03  0.15578178000E+03  0.41800000000E+01 0.  1.
         -5    1    3    3    0  502 -0.55343466341E+02  0.10232864666E+02  0.23318804834E+02  0.61064309091E+02  0.41800000000E+01 0.  1.
        -11    1    1    2    0    0  0.10685579357E+02 -0.24324009836E+02  0.89039051099E+02  0.92918198871E+02  0.00000000000E+00 0.  1.
         11    1    1    2    0    0  0.14267521114E+02  0.29364725393E+02 -0.55663912783E+01  0.33118483781E+02  0.00000000000E+00 0. -1.
</event>
<event>
 7    1  0.3412482E-009  0.2275222E+03  0.7561462E-02  0.1128396E+00
         -2   -1    0    0    0  501 -0.00000000000E+00  0.00000000000E+00  0.16205535474E+03  0.16205535474E+03  0.00000000000E+00 0.  1.
          2   -1    0    0  501    0  0.00000000000E+00 -0.00000000000E+00 -0.43014650549E+03  0.43014650549E+03  0.00000000000E+00 0. -1.
         25    2    1    2    0    0 -0.20094234444E+03 -0.64619863870E+02 -0.88043736171E+01  0.24551374492E+03  0.12508368941E+03 0.  0.
          5    1    3    3  502    0 -0.21351603988E+03 -0.66654004022E+02 -0.24289875292E+02  0.22503183326E+03  0.41800000000E+01 0.  1.
         -5    1    3    3    0  502  0.12573695442E+02  0.20341401520E+01  0.15485501675E+02  0.20481911662E+02  0.41800000000E+01 0.  1.
        -11    1    1    2    0    0  0.97674618702E+02  0.59831429654E+02 -0.79940877510E+02  0.13968061788E+03  0.00000000000E+00 0.  1.
         11    1    1    2    0    0  0.10326772573E+03  0.47884342160E+01 -0.17934589963E+03  0.20700749744E+03  0.00000000000E+00 0. -1.
</event>
<event>
 7    1  0.3151015E-009  0.1448159E+03  0.7561462E-02  0.1206992E+00
          1   -1    0    0  501    0  0.00000000000E+00  0.00000000000E+00  0.23455364641E+03  0.23455364641E+03  0.00000000000E+00 0. -1.
         -1   -1    0    0    0  501 -0.00000000000E+00 -0.00000000000E+00 -0.12895745384E+03  0.12895745384E+03  0.00000000000E+00 0.  1.
         25    2    1    2    0    0  0.12031746076E+03  0.68852548030E+01  0.11952993264E+03  0.21085547174E+03  0.12509567166E+03 0.  0.
          5    1    3    3  502    0  0.13646297083E+03  0.30276575884E+02  0.11641673698E+03  0.18195917813E+03  0.41800000000E+01 0. -1.
         -5    1    3    3    0  502 -0.16145510070E+02 -0.23391321081E+02  0.31131956542E+01  0.28896293612E+02  0.41800000000E+01 0. -1.
        -11    1    1    2    0    0 -0.36176702461E+02  0.31948004509E+01  0.38561327850E+02  0.52971091705E+02  0.00000000000E+00 0. -1.
         11    1    1    2    0    0 -0.84140758303E+02 -0.10080055254E+02 -0.52495067920E+02  0.99684536803E+02  0.00000000000E+00 0.  1.
</event>
<event>
 7    1  0.3151015E-009  0.8280366E+02  0.7561462E-02  0.1321278E+00
         -2   -1    0    0    0  501 -0.00000000000E+00  0.00000000000E+00  0.64418361275E+03  0.64418361275E+03  0.00000000000E+00 0. -1.
          2   -1    0    0  501    0  0.00000000000E+00 -0.00000000000E+00 -0.23245139750E+02  0.23245139750E+02  0.00000000000E+00 0.  1.
         25    2    1    2    0    0 -0.20017434562E+02  0.15448342163E+00  0.49260441821E+03  0.50863304801E+03  0.12509093948E+03 0.  0.
          5    1    3    3  502    0 -0.48537289200E+02 -0.48780018937E+02  0.30066781498E+03  0.30847036495E+03  0.41800000000E+01 0.  1.
         -5    1    3    3    0  502  0.28519854638E+02  0.48934502358E+02  0.19193660323E+03  0.20016268306E+03  0.41800000000E+01 0.  1.
        -11    1    1    2    0    0  0.20771428371E+02 -0.14612192220E+02  0.13868979279E+03  0.14099584045E+03  0.00000000000E+00 0. -1.
         11    1    1    2    0    0 -0.75399380925E+00  0.14457708799E+02 -0.10355738002E+02  0.17799864043E+02  0.00000000000E+00 0.  1.
</event>
<event>
 7    1  0.3151015E-009  0.1701839E+03  0.7561462E-02  0.1177656E+00
         -1   -1    0    0    0  501 -0.00000000000E+00  0.00000000000E+00  0.58373037865E+02  0.58373037865E+02  0.00000000000E+00 0.  1.
          1   -1    0    0  501    0  0.00000000000E+00 -0.00000000000E+00 -0.50120072174E+03  0.50120072174E+03  0.00000000000E+00 0. -1.
         25    2    1    2    0    0 -0.10538376634E+02 -0.13498859637E+03 -0.24902531294E+03  0.30982859576E+03  0.12508866350E+03 0.  0.
          5    1    3    3  502    0  0.90046284395E+01 -0.15525269568E+03 -0.20376335919E+03  0.25636197416E+03  0.41800000000E+01 0.  1.
         -5    1    3    3    0  502 -0.19543005074E+02  0.20264099311E+02 -0.45261953746E+02  0.53466621598E+02  0.41800000000E+01 0.  1.
        -11    1    1    2    0    0  0.40646612889E+02  0.10979912198E+03 -0.13112159777E+03  0.17578642646E+03  0.00000000000E+00 0. -1.
         11    1    1    2    0    0 -0.30108236255E+02  0.25189474388E+02 -0.62680773165E+02  0.73958737380E+02  0.00000000000E+00 0.  1.
</event>
<event>
 7    1  0.3151015E-009  0.1217859E+03  0.7561462E-02  0.1240180E+00
         -2   -1    0    0    0  501 -0.00000000000E+00  0.00000000000E+00  0.50113765204E+02  0.50113765204E+02  0.00000000000E+00 0.  1.
          2   -1    0    0  501    0  0.00000000000E+00 -0.00000000000E+00 -0.37480321917E+03  0.37480321917E+03  0.00000000000E+00 0. -1.
         25    2    1    2    0    0  0.77862247423E+02 -0.98083769785E+01 -0.22247353562E+03  0.26702405475E+03  0.12509451600E+03 0.  0.
          5    1    3    3  502    0  0.68868074113E+02  0.50782751201E+02 -0.11751860408E+03  0.14542968802E+03  0.41800000000E+01 0. -1.
         -5    1    3    3    0  502  0.89941733097E+01 -0.60591128179E+02 -0.10495493154E+03  0.12159436673E+03  0.41800000000E+01 0. -1.
        -11    1    1    2    0    0 -0.80723814439E+01 -0.19275667353E+02 -0.74483745164E+02  0.77359827997E+02  0.00000000000E+00 0. -1.
         11    1    1    2    0    0 -0.69789865979E+02  0.29084044331E+02 -0.27732173185E+02  0.80533101626E+02  0.00000000000E+00 0.  1.
</event>
<event>
 7    1  0.3151015E-009  0.1023456E+03  0.7561462E-02  0.1275439E+00
         -1   -1    0    0    0  501 -0.00000000000E+00  0.00000000000E+00  0.34447229049E+02  0.34447229049E+02  0.00000000000E+00 0.  1.
          1   -1    0    0  501    0  0.00000000000E+00 -0.00000000000E+00 -0.39399711061E+03  0.39399711061E+03  0.00000000000E+00 0. -1.
         25    2    1    2    0    0 -0.29618432771E+02  0.27483188659E+02 -0.23460496581E+03  0.26892526640E+03  0.12509489081E+03 0.  0.
          5    1    3    3  502    0 -0.14691351008E+02 -0.50081890352E+02 -0.93245676102E+02  0.10694045094E+03  0.41800000000E+01 0. -1.
         -5    1    3    3    0  502 -0.14927081763E+02  0.77565079011E+02 -0.14135928971E+03  0.16198481546E+03  0.41800000000E+01 0. -1.
        -11    1    1    2    0    0 -0.17892038563E+02  0.85602506416E+00 -0.94881356456E+02  0.96557390322E+02  0.00000000000E+00 0. -1.
         11    1    1    2    0    0  0.47510471333E+02 -0.28339213724E+02 -0.30063559292E+02  0.62961682936E+02  0.00000000000E+00 0.  1.
</event>
<event>
 7    1  0.3151015E-009  0.9117644E+02  0.7561462E-02  0.1300028E+00
         -1   -1    0    0    0  501 -0.00000000000E+00  0.00000000000E+00  0.12263190205E+03  0.12263190205E+03  0.00000000000E+00 0.  1.
          1   -1    0    0  501    0  0.00000000000E+00 -0.00000000000E+00 -0.13715238056E+03  0.13715238056E+03  0.00000000000E+00 0. -1.
         25    2    1    2    0    0 -0.35186380831E+02 -0.56757296282E+02  0.15722928704E+02  0.14266753221E+03  0.12508933680E+03 0.  0.
          5    1    3    3  502    0 -0.67450666555E+02 -0.38039099151E+02 -0.30317652749E+02  0.83265827031E+02  0.41800000000E+01 0. -1.
         -5    1    3    3    0  502  0.32264285724E+02 -0.18718197131E+02  0.46040581453E+02  0.59401705175E+02  0.41800000000E+01 0. -1.
        -11    1    1    2    0    0  0.23337781520E+02  0.44329089485E+02 -0.62785200622E+02  0.80322485257E+02  0.00000000000E+00 0. -1.
         11    1    1    2    0    0  0.11848599311E+02  0.12428206797E+02  0.32541793404E+02  0.36794265148E+02  0.00000000000E+00 0.  1.
</event>
<event>
 7    1  0.3151015E-009  0.6687589E+02  0.7561462E-02  0.1371051E+00
          4   -1    0    0  501    0  0.00000000000E+00  0.00000000000E+00  0.26210464665E+03  0.26210464665E+03  0.00000000000E+00 0. -1.
         -4   -1    0    0    0  501 -0.00000000000E+00 -0.00000000000E+00 -0.49472467365E+02  0.49472467365E+02  0.00000000000E+00 0.  1.
         25    2    1    2    0    0 -0.20971056531E+02  0.82599909210E+00  0.81835450812E+02  0.15094819979E+03  0.12509136871E+03 0.  0.
          5    1    3    3  502    0 -0.19491484609E+02 -0.15900259013E+02 -0.29088488921E+02  0.38682667910E+02  0.41800000000E+01 0. -1.
         -5    1    3    3    0  502 -0.14795719221E+01  0.16726258105E+02  0.11092393973E+03  0.11226553188E+03  0.41800000000E+01 0. -1.
        -11    1    1    2    0    0  0.53147493744E+02  0.14812532887E+02  0.61357056572E+02  0.82515184136E+02  0.00000000000E+00 0.  1.
         11    1    1    2    0    0 -0.32176437213E+02 -0.15638531979E+02  0.69439671903E+02  0.78113730088E+02  0.00000000000E+00 0. -1.
</event>
<event>
 7    1  0.3151015E-009  0.9341343E+02  0.7561462E-02  0.1294790E+00
          2   -1    0    0  501    0  0.00000000000E+00  0.00000000000E+00  0.50545480113E+03  0.50545480113E+03  0.00000000000E+00 0. -1.
         -2   -1    0    0    0  501 -0.00000000000E+00 -0.00000000000E+00 -0.19704833911E+02  0.19704833911E+02  0.00000000000E+00 0.  1.
         25    2    1    2    0    0  0.26950741388E+02  0.22103416420E+01  0.26314267215E+03  0.29261530808E+03  0.12509366308E+03 0.  0.
          5    1    3    3  502    0  0.74339144159E+02  0.28367963801E+01  0.11507246695E+03  0.13708938988E+03  0.41800000000E+01 0. -1.
         -5    1    3    3    0  502 -0.47388402770E+02 -0.62645473808E+00  0.14807020521E+03  0.15552591820E+03  0.41800000000E+01 0. -1.
        -11    1    1    2    0    0 -0.39350668837E+02 -0.19136878130E+02  0.17721189656E+03  0.18253424754E+03  0.00000000000E+00 0. -1.
         11    1    1    2    0    0  0.12399927449E+02  0.16926536488E+02  0.45395398503E+02  0.50010079419E+02  0.00000000000E+00 0.  1.
</event>
<event>
 7    1  0.3151015E-009  0.1565543E+03  0.7561462E-02  0.1192643E+00
         -4   -1    0    0    0  501 -0.00000000000E+00  0.00000000000E+00  0.56019621463E+02  0.56019621463E+02  0.00000000000E+00 0.  1.
          4   -1    0    0  501    0  0.00000000000E+00 -0.00000000000E+00 -0.67746032418E+03  0.67746032418E+03  0.00000000000E+00 0. -1.
         25    2    1    2    0    0  0.52434334737E+02 -0.13009618951E+03 -0.17361756753E+03  0.25586124590E+03  0.12509012518E+03 0.  0.
          5    1    3    3  502    0  0.62842523901E+02 -0.92136049977E+02 -0.43376604748E+02  0.11973820090E+03  0.41800000000E+01 0. -1.
         -5    1    3    3    0  502 -0.10408189165E+02 -0.37960139531E+02 -0.13024096278E+03  0.13612304500E+03  0.41800000000E+01 0. -1.
        -11    1    1    2    0    0 -0.55651006890E+02  0.32853131721E+02 -0.12903731562E+03  0.14431559740E+03  0.00000000000E+00 0.  1.
         11    1    1    2    0    0  0.32166721532E+01  0.97243057787E+02 -0.31878581957E+03  0.33330310234E+03  0.00000000000E+00 0. -1.
</event>
<event>
 7    1  0.3151015E-009  0.8267345E+02  0.7561462E-02  0.1321631E+00
         -3   -1    0    0    0  501 -0.00000000000E+00  0.00000000000E+00  0.59975195382E+02  0.59975195382E+02  0.00000000000E+00 0.  1.
          3   -1    0    0  501    0  0.00000000000E+00 -0.00000000000E+00 -0.20304254129E+03  0.20304254129E+03  0.00000000000E+00 0. -1.
         25    2    1    2    0    0  0.75951646095E+01  0.19219161691E+02 -0.10371879965E+03  0.16379633998E+03  0.12507833101E+03 0.  0.
          5    1    3    3  502    0 -0.34597497899E+02 -0.98888934139E+01 -0.10629942115E+03  0.11230234374E+03  0.41800000000E+01 0.  1.
         -5    1    3    3    0  502  0.42192662508E+02  0.29108055105E+02  0.25806214953E+01  0.51493996240E+02  0.41800000000E+01 0.  1.
        -11    1    1    2    0    0 -0.38672683114E+02  0.40285737984E+01 -0.45582732810E+02  0.59913198517E+02  0.00000000000E+00 0. -1.
         11    1    1    2    0    0  0.31077518505E+02 -0.23247735489E+02  0.62341865523E+01  0.39308198175E+02  0.00000000000E+00 0.  1.
</event>
<event>
 7    1  0.3151015E-009  0.7085660E+02  0.7561462E-02  0.1357204E+00
         -2   -1    0    0    0  501 -0.00000000000E+00  0.00000000000E+00  0.47345719344E+02  0.47345719344E+02  0.00000000000E+00 0.  1.
          2   -1    0    0  501    0  0.00000000000E+00 -0.00000000000E+00 -0.31644741978E+03  0.31644741978E+03  0.00000000000E+00 0. -1.
         25    2    1    2    0    0  0.26808489819E+02 -0.45600698664E+02 -0.12311233209E+03  0.18330984242E+03  0.12509089964E+03 0.  0.
          5    1    3    3  502    0  0.10719794961E+02 -0.24942343262E+02 -0.14582921131E+03  0.14839361766E+03  0.41800000000E+01 0.  1.
         -5    1    3    3    0  502  0.16088694858E+02 -0.20658355402E+02  0.22716879220E+02  0.34916224762E+02  0.41800000000E+01 0.  1.
        -11    1    1    2    0    0  0.18022200326E+02  0.38272453337E+02 -0.20467646577E+02  0.46994733167E+02  0.00000000000E+00 0.  1.
         11    1    1    2    0    0 -0.44830690144E+02  0.73282453272E+01 -0.12552172177E+03  0.13348856353E+03  0.00000000000E+00 0. -1.
</event>
<event>
 7    1  0.3357228E-009  0.1650880E+03  0.7561462E-02  0.1183069E+00
         -2   -1    0    0    0  501 -0.00000000000E+00  0.00000000000E+00  0.22474401207E+02  0.22474401207E+02  0.00000000000E+00 0.  1.
          2   -1    0    0  501    0  0.00000000000E+00 -0.00000000000E+00 -0.14954224343E+04  0.14954224343E+04  0.00000000000E+00 0. -1.
         25    2    1    2    0    0  0.58691716364E+02 -0.13292551272E+03 -0.88437047606E+03  0.90491488081E+03  0.12508354442E+03 0.  0.
          5    1    3    3  502    0 -0.18198533467E+02 -0.11260213776E+02 -0.37364765832E+03  0.37428334721E+03  0.41800000000E+01 0.  1.
         -5    1    3    3    0  502  0.76890249831E+02 -0.12166529895E+03 -0.51072281774E+03  0.53063153360E+03  0.41800000000E+01 0.  1.
        -11    1    1    2    0    0  0.13522783813E+02  0.60931497404E+02 -0.31256119099E+03  0.31873187976E+03  0.00000000000E+00 0.  1.
         11    1    1    2    0    0 -0.72214500177E+02  0.71994015320E+02 -0.27601636599E+03  0.29425007489E+03  0.00000000000E+00 0. -1.
</event>
<event>
 7    1  0.3151015E-009  0.1084374E+03  0.7561462E-02  0.1263491E+00
          1   -1    0    0  501    0  0.00000000000E+00  0.00000000000E+00  0.53055353953E+02  0.53055353953E+02  0.00000000000E+00 0. -1.
         -1   -1    0    0    0  501 -0.00000000000E+00 -0.00000000000E+00 -0.25426139658E+03  0.25426139658E+03  0.00000000000E+00 0.  1.
         25    2    1    2    0    0  0.32614208821E+02 -0.24518970851E+02 -0.13079407002E+03  0.18552748400E+03  0.12509393278E+03 0.  0.
          5    1    3    3  502    0 -0.40424904830E+02 -0.34307995944E+02 -0.31530681802E+02  0.61829344256E+02  0.41800000000E+01 0. -1.
         -5    1    3    3    0  502  0.73039113651E+02  0.97890250932E+01 -0.99263388218E+02  0.12369813974E+03  0.41800000000E+01 0. -1.
        -11    1    1    2    0    0 -0.14249792684E+02  0.53612526958E+02 -0.67340972224E+02  0.87247728786E+02  0.00000000000E+00 0.  1.
         11    1    1    2    0    0 -0.18364416137E+02 -0.29093556107E+02 -0.30710003888E+01  0.34541537754E+02  0.00000000000E+00 0. -1.
</event>
<event>
 7    1  0.3151015E-009  0.1951881E+03  0.7561462E-02  0.1153863E+00
         -2   -1    0    0    0  501 -0.00000000000E+00  0.00000000000E+00  0.70627758259E+02  0.70627758259E+02  0.00000000000E+00 0.  1.
          2   -1    0    0  501    0  0.00000000000E+00 -0.00000000000E+00 -0.67142251513E+03  0.67142251513E+03  0.00000000000E+00 0. -1.
         25    2    1    2    0    0 -0.50935934653E+02  0.16429310486E+03 -0.44147684782E+03  0.49003725436E+03  0.12509200517E+03 0.  0.
          5    1    3    3  502    0 -0.57210420716E+02  0.17505048671E+03 -0.33120226860E+03  0.37898300788E+03  0.41800000000E+01 0. -1.
         -5    1    3    3    0  502  0.62744860636E+01 -0.10757381847E+02 -0.11027457922E+03  0.11105424648E+03  0.41800000000E+01 0. -1.
        -11    1    1    2    0    0  0.40930037412E+02 -0.15291579439E+02 -0.21068442496E+02  0.48507521412E+02  0.00000000000E+00 0.  1.
         11    1    1    2    0    0  0.10005897240E+02 -0.14900152542E+03 -0.13824946656E+03  0.20350549762E+03  0.00000000000E+00 0. -1.
</event>
<event>
 7    1  0.3151015E-009  0.1741963E+03  0.7561462E-02  0.1173541E+00
          1   -1    0    0  501    0  0.00000000000E+00  0.00000000000E+00  0.52681145842E+03  0.52681145842E+03  0.00000000000E+00 0.  1.
         -1   -1    0    0    0  501 -0.00000000000E+00 -0.00000000000E+00 -0.63490846352E+02  0.63490846352E+02  0.00000000000E+00 0. -1.
         25    2    1    2    0    0 -0.12817162519E+03  0.65742563322E+02  0.19722803880E+03  0.27440265564E+03  0.12509143856E+03 0.  0.
          5    1    3    3  502    0 -0.47111091052E+02 -0.28504198080E+02  0.21832054059E+02  0.59380596096E+02  0.41800000000E+01 0. -1.
         -5    1    3    3    0  502 -0.81060534141E+02  0.94246761402E+02  0.17539598474E+03  0.21502205955E+03  0.41800000000E+01 0. -1.
        -11    1    1    2    0    0  0.97911856826E+02 -0.16644881827E+01  0.13358469072E+03  0.16563324492E+03  0.00000000000E+00 0. -1.
         11    1    1    2    0    0  0.30259768366E+02 -0.64078075139E+02  0.13250788255E+03  0.15026640420E+03  0.00000000000E+00 0.  1.
</event>
<event>
 7    1  0.3151015E-009  0.2208801E+03  0.7561462E-02  0.1133229E+00
         -2   -1    0    0    0  501 -0.00000000000E+00  0.00000000000E+00  0.52523267436E+02  0.52523267436E+02  0.00000000000E+00 0.  1.
          2   -1    0    0  501    0  0.00000000000E+00 -0.00000000000E+00 -0.11208884326E+04  0.11208884326E+04  0.00000000000E+00 0. -1.
         25    2    1    2    0    0  0.75729548701E+02  0.19642172561E+03 -0.66130411830E+03  0.70518557527E+03  0.12508836816E+03 0.  0.
          5    1    3    3  502    0  0.78498124171E+00  0.13003311068E+03 -0.24972877678E+03  0.28158686124E+03  0.41800000000E+01 0.  1.
         -5    1    3    3    0  502  0.74944567459E+02  0.66388614930E+02 -0.41157534152E+03  0.42359871403E+03  0.41800000000E+01 0.  1.
        -11    1    1    2    0    0 -0.36464872843E+02 -0.12161882231E+03 -0.33112362906E+03  0.35463175636E+03  0.00000000000E+00 0. -1.
         11    1    1    2    0    0 -0.39264675858E+02 -0.74802903299E+02 -0.75937417792E+02  0.11359436840E+03  0.00000000000E+00 0.  1.
</event>
<event>
 7    1  0.3151015E-009  0.6307955E+02  0.7561462E-02  0.1385345E+00
         -1   -1    0    0    0  501 -0.00000000000E+00  0.00000000000E+00  0.56207140337E+02  0.56207140337E+02  0.00000000000E+00 0.  1.
          1   -1    0    0  501    0  0.00000000000E+00 -0.00000000000E+00 -0.22610857813E+03  0.22610857813E+03  0.00000000000E+00 0. -1.
         25    2    1    2    0    0  0.27889085108E+02  0.32536093270E+01 -0.11781881118E+03  0.17412312439E+03  0.12509677508E+03 0.  0.
          5    1    3    3  502    0  0.30434789833E+02 -0.48399356350E+01  0.19350526248E+02  0.36628085879E+02  0.41800000000E+01 0.  1.
         -5    1    3    3    0  502 -0.25457047245E+01  0.80935449620E+01 -0.13716933743E+03  0.13749503851E+03  0.41800000000E+01 0.  1.
        -11    1    1    2    0    0 -0.55930612738E+02 -0.98578442565E+01 -0.10734857533E+02  0.57798336489E+02  0.00000000000E+00 0.  1.
         11    1    1    2    0    0  0.28041527629E+02  0.66042349295E+01 -0.41347769079E+02  0.50394257595E+02  0.00000000000E+00 0. -1.
</event>
<event>
 7    1  0.3151015E-009  0.1281155E+03  0.7561462E-02  0.1230279E+00
         -1   -1    0    0    0  501 -0.00000000000E+00  0.00000000000E+00  0.11810946103E+03  0.11810946103E+03  0.00000000000E+00 0.  1.
          1   -1    0    0  501    0  0.00000000000E+00 -0.00000000000E+00 -0.30655250659E+03  0.30655250659E+03  0.00000000000E+00 0. -1.
         25    2    1    2    0    0  0.10707262702E+03 -0.66491260110E+02  0.35365965126E+01  0.17761149040E+03  0.12509076257E+03 0.  0.
          5    1    3    3  502    0  0.27312357524E+02 -0.27950140905E+02 -0.57719540148E+02  0.69829742696E+02  0.41800000000E+01 0.  1.
         -5    1    3    3    0  502  0.79760269500E+02 -0.38541119205E+02  0.61256136660E+02  0.10778174771E+03  0.41800000000E+01 0.  1.
        -11    1    1    2    0    0 -0.60740232994E+02  0.51246105227E+02 -0.43144470988E+02  0.90426680697E+02  0.00000000000E+00 0.  1.
         11    1    1    2    0    0 -0.46332394030E+02  0.15245154883E+02 -0.14883517108E+03  0.15662379652E+03  0.00000000000E+00 0. -1.
</event>
<event>
 7    1  0.3151015E-009  0.1158123E+03  0.7561462E-02  0.1250170E+00
         -2   -1    0    0    0  501 -0.00000000000E+00  0.00000000000E+00  0.40970473833E+02  0.40970473833E+02  0.00000000000E+00 0.  1.
          2   -1    0    0  501    0  0.00000000000E+00 -0.00000000000E+00 -0.49921807570E+03  0.49921807570E+03  0.00000000000E+00 0. -1.
         25    2    1    2    0    0  0.76902984448E+02  0.51455000985E+02 -0.25444070167E+03  0.29824161168E+03  0.12508517950E+03 0.  0.
          5    1    3    3  502    0  0.70410169710E+02  0.24760344845E+02 -0.25945010093E+03  0.27000461838E+03  0.41800000000E+01 0. -1.
         -5    1    3    3    0  502  0.64928147378E+01  0.26694656140E+02  0.50093992611E+01  0.28236993300E+02  0.41800000000E+01 0. -1.
        -11    1    1    2    0    0 -0.24817609950E+02  0.25870787623E+02 -0.72846018970E+02  0.81189616920E+02  0.00000000000E+00 0. -1.
         11    1    1    2    0    0 -0.52085374498E+02 -0.77325788608E+02 -0.13096088123E+03  0.16075732093E+03  0.00000000000E+00 0.  1.
</event>
<event>
 7    1  0.3151015E-009  0.1074817E+03  0.7561462E-02  0.1265306E+00
          1   -1    0    0  501    0  0.00000000000E+00  0.00000000000E+00  0.93248670941E+03  0.93248670941E+03  0.00000000000E+00 0. -1.
         -1   -1    0    0    0  501 -0.00000000000E+00 -0.00000000000E+00 -0.13970079362E+02  0.13970079362E+02  0.00000000000E+00 0.  1.
         25    2    1    2    0    0 -0.26320729624E+02  0.10930049056E+02  0.62557783404E+03  0.63859878130E+03  0.12509408565E+03 0.  0.
          5    1    3    3  502    0 -0.35742012827E+02  0.63808510641E+02  0.40213496198E+03  0.40875300312E+03  0.41800000000E+01 0.  1.
         -5    1    3    3    0  502  0.94212832026E+01 -0.52878461585E+02  0.22344287206E+03  0.22984577819E+03  0.41800000000E+01 0.  1.
        -11    1    1    2    0    0 -0.20941667268E+02  0.21889403557E+02  0.16238541105E+03  0.16518692787E+03  0.00000000000E+00 0. -1.
         11    1    1    2    0    0  0.47262396892E+02 -0.32819452613E+02  0.13055338496E+03  0.14267107960E+03  0.00000000000E+00 0.  1.
</event>
<event>
 7    1  0.3151015E-009  0.8087276E+02  0.7561462E-02  0.1326593E+00
          1   -1    0    0  501    0  0.00000000000E+00  0.00000000000E+00  0.35642661511E+03  0.35642661511E+03  0.00000000000E+00 0. -1.
         -1   -1    0    0    0  501 -0.00000000000E+00 -0.00000000000E+00 -0.37636608569E+02  0.37636608569E+02  0.00000000000E+00 0.  1.
         25    2    1    2    0    0  0.34129017395E+02 -0.25878573526E+02  0.18756598410E+03  0.22948308523E+03  0.12508795953E+03 0.  0.
          5    1    3    3  502    0 -0.10676414169E+02  0.13339467468E+02  0.16458261716E+03  0.16551990057E+03  0.41800000000E+01 0.  1.
         -5    1    3    3    0  502  0.44805431564E+02 -0.39218040994E+02  0.22983366941E+02  0.63963184668E+02  0.41800000000E+01 0.  1.
        -11    1    1    2    0    0 -0.56801213134E+02  0.24164193977E+02  0.47681353500E+02  0.77998702269E+02  0.00000000000E+00 0.  1.
         11    1    1    2    0    0  0.22672195739E+02  0.17143795489E+01  0.83542668943E+02  0.86581436180E+02  0.00000000000E+00 0. -1.
</event>
<event>
 7    1  0.3151015E-009  0.1205697E+03  0.7561462E-02  0.1242160E+00
          1   -1    0    0  501    0  0.00000000000E+00  0.00000000000E+00  0.46371904473E+02  0.46371904473E+02  0.00000000000E+00 0. -1.
         -1   -1    0    0    0  501 -0.00000000000E+00 -0.00000000000E+00 -0.36678629233E+03  0.36678629233E+03  0.00000000000E+00 0.  1.
         25    2    1    2    0    0 -0.54302040379E+02  0.30289516876E+02 -0.11812481345E+03  0.18295100093E+03  0.12510567840E+03 0.  0.
          5    1    3    3  502    0  0.23063604192E+02  0.51405799577E+02 -0.67488007060E+02  0.88014712210E+02  0.41800000000E+01 0.  1.
         -5    1    3    3    0  502 -0.77365644570E+02 -0.21116282701E+02 -0.50636806390E+02  0.94936288722E+02  0.41800000000E+01 0.  1.
        -11    1    1    2    0    0  0.51553972030E+02  0.19020665397E+02 -0.14206590528E+03  0.15232307503E+03  0.00000000000E+00 0.  1.
         11    1    1    2    0    0  0.27480683488E+01 -0.49310182273E+02 -0.60223669122E+02  0.77884120834E+02  0.00000000000E+00 0. -1.
</event>
<event>
 7    1  0.3151015E-009  0.1009591E+03  0.7561462E-02  0.1278292E+00
          2   -1    0    0  501    0  0.00000000000E+00  0.00000000000E+00  0.53452290119E+03  0.53452290119E+03  0.00000000000E+00 0. -1.
         -2   -1    0    0    0  501 -0.00000000000E+00 -0.00000000000E+00 -0.41654975691E+02  0.41654975691E+02  0.00000000000E+00 0.  1.
         25    2    1    2    0    0 -0.42416377874E+02  0.79606472972E+02  0.17395018679E+03  0.23246489425E+03  0.12507965432E+03 0.  0.
          5    1    3    3  502    0 -0.43531938599E+02  0.28437433613E+02  0.11305146760E+01  0.52177272563E+02  0.41800000000E+01 0. -1.
         -5    1    3    3    0  502  0.11155607256E+01  0.51169039359E+02  0.17281967211E+03  0.18028762169E+03  0.41800000000E+01 0. -1.
        -11    1    1    2    0    0  0.24419491794E+01 -0.46316163948E+02  0.44048036356E+02  0.63963893451E+02  0.00000000000E+00 0.  1.
         11    1    1    2    0    0  0.39974428694E+02 -0.33290309025E+02  0.27486970235E+03  0.27974908918E+03  0.00000000000E+00 0. -1.
</event>
<event>
 7    1  0.3151015E-009  0.5117471E+02  0.7561462E-02  0.1439107E+00
         -2   -1    0    0    0  501 -0.00000000000E+00  0.00000000000E+00  0.69757961299E+02  0.69757961299E+02  0.00000000000E+00 0. -1.
          2   -1    0    0  501    0  0.00000000000E+00 -0.00000000000E+00 -0.29174246002E+03  0.29174246002E+03  0.00000000000E+00 0.  1.
         25    2    1    2    0    0  0.26939282053E+02 -0.10587536425E+02 -0.23216872956E+03  0.26530675230E+03  0.12509009948E+03 0.  0.
          5    1    3    3  502    0  0.32250852899E+02  0.13889738644E+02 -0.23685869214E+03  0.23948393432E+03  0.41800000000E+01 0.  1.
         -5    1    3    3    0  502 -0.53115708465E+01 -0.24477275070E+02  0.46899625830E+01  0.25822817986E+02  0.41800000000E+01 0.  1.
        -11    1    1    2    0    0 -0.16244482640E+02 -0.95128869596E+01  0.48275646669E+02  0.51816177936E+02  0.00000000000E+00 0. -1.
         11    1    1    2    0    0 -0.10694799412E+02  0.20100423385E+02 -0.38091415835E+02  0.44377491085E+02  0.00000000000E+00 0.  1.
</event>
<event>
 7    1  0.3151015E-009  0.1047148E+03  0.7561462E-02  0.1270683E+00
         -2   -1    0    0    0  501 -0.00000000000E+00  0.00000000000E+00  0.62633985693E+02  0.62633985693E+02  0.00000000000E+00 0. -1.
          2   -1    0    0  501    0  0.00000000000E+00 -0.00000000000E+00 -0.27712659608E+03  0.27712659608E+03  0.00000000000E+00 0.  1.
         25    2    1    2    0    0  0.37822806282E+02  0.62336933252E+02 -0.14400369208E+03  0.20420480027E+03  0.12508428838E+03 0.  0.
          5    1    3    3  502    0 -0.39227778002E+02  0.39978279448E+02 -0.94226371879E+02  0.10969577454E+03  0.41800000000E+01 0. -1.
         -5    1    3    3    0  502  0.77050584285E+02  0.22358653804E+02 -0.49777320199E+02  0.94509025731E+02  0.41800000000E+01 0. -1.
        -11    1    1    2    0    0 -0.20302597109E+02 -0.34744172876E+02  0.15840023492E+02  0.43246495146E+02  0.00000000000E+00 0. -1.
         11    1    1    2    0    0 -0.17520209174E+02 -0.27592760376E+02 -0.86328941798E+02  0.92309286351E+02  0.00000000000E+00 0.  1.
</event>
<event>
 7    1  0.3151015E-009  0.5620277E+03  0.7561462E-02  0.9987477E-01
         -1   -1    0    0    0  501 -0.00000000000E+00  0.00000000000E+00  0.15899191225E+04  0.15899191225E+04  0.00000000000E+00 0.  1.
          1   -1    0    0  501    0  0.00000000000E+00 -0.00000000000E+00 -0.20515814103E+03  0.20515814103E+03  0.00000000000E+00 0. -1.
         25    2    1    2    0    0 -0.34437838314E+03  0.43668702761E+03  0.80849216856E+03  0.98924273587E+03  0.12509825334E+03 0.  0.
          5    1    3    3  502    0 -0.25665192961E+03  0.26985297796E+03  0.61573138243E+03  0.71960645522E+03  0.41800000000E+01 0. -1.
         -5    1    3    3    0  502 -0.87726453528E+02  0.16683404965E+03  0.19276078613E+03  0.26963628064E+03  0.41800000000E+01 0. -1.
        -11    1    1    2    0    0  0.30185220593E+03 -0.42039818951E+03  0.52365472382E+03  0.73624972784E+03  0.00000000000E+00 0. -1.
         11    1    1    2    0    0  0.42526177206E+02 -0.16288838097E+02  0.52614089049E+02  0.69584799783E+02  0.00000000000E+00 0.  1.
</event>
<event>
 7    1  0.3151015E-009  0.9735974E+02  0.7561462E-02  0.1285948E+00
         -1   -1    0    0    0  501 -0.00000000000E+00  0.00000000000E+00  0.20023323622E+02  0.20023323622E+02  0.00000000000E+00 0.  1.
          1   -1    0    0  501    0  0.00000000000E+00 -0.00000000000E+00 -0.73490309555E+03  0.73490309555E+03  0.00000000000E+00 0. -1.
         25    2    1    2    0    0  0.10612098407E+02  0.15323123506E+02 -0.24164994962E+03  0.27274455379E+03  0.12508988259E+03 0.  0.
          5    1    3    3  502    0  0.43523745356E+02  0.42274165228E+02 -0.57492028638E+02  0.83691261267E+02  0.41800000000E+01 0.  1.
         -5    1    3    3    0  502 -0.32911646948E+02 -0.26951041722E+02 -0.18415792098E+03  0.18905329252E+03  0.41800000000E+01 0.  1.
        -11    1    1    2    0    0  0.34004616365E+02  0.15047252695E+02 -0.15430044295E+03  0.15871786428E+03  0.00000000000E+00 0.  1.
         11    1    1    2    0    0 -0.44616714773E+02 -0.30370376202E+02 -0.31892937937E+03  0.32346400110E+03  0.00000000000E+00 0. -1.
</event>
<event>
 7    1  0.3151015E-009  0.9027149E+02  0.7561462E-02  0.1302196E+00
         -1   -1    0    0    0  501 -0.00000000000E+00  0.00000000000E+00  0.25937272547E+03  0.25937272547E+03  0.00000000000E+00 0. -1.
          1   -1    0    0  501    0  0.00000000000E+00 -0.00000000000E+00 -0.50194092294E+02  0.50194092294E+02  0.00000000000E+00 0.  1.
         25    2    1    2    0    0 -0.30457450373E+01  0.12911708107E+02  0.92229032374E+02  0.15597881602E+03  0.12508879992E+03 0.  0.
          5    1    3    3  502    0 -0.55828962750E+02 -0.10318270460E+02  0.13864534207E+02  0.58592128275E+02  0.41800000000E+01 0. -1.
         -5    1    3    3    0  502  0.52783217712E+02  0.23229978567E+02  0.78364498167E+02  0.97386687742E+02  0.41800000000E+01 0. -1.
        -11    1    1    2    0    0  0.71458938174E+01 -0.38866533712E+02  0.12073703193E+03  0.12703976590E+03  0.00000000000E+00 0. -1.
         11    1    1    2    0    0 -0.41001487801E+01  0.25954825605E+02 -0.37874311232E+01  0.26548235850E+02  0.00000000000E+00 0.  1.
</event>
<event>
 7    1  0.3151015E-009  0.1243240E+03  0.7561462E-02  0.1236130E+00
          1   -1    0    0  501    0  0.00000000000E+00  0.00000000000E+00  0.15972056308E+03  0.15972056308E+03  0.00000000000E+00 0. -1.
         -1   -1    0    0    0  501 -0.00000000000E+00 -0.00000000000E+00 -0.18409013797E+03  0.18409013797E+03  0.00000000000E+00 0.  1.
         25    2    1    2    0    0 -0.41091579573E+02 -0.79356250242E+02  0.85108154420E+02  0.17572406713E+03  0.12509843107E+03 0.  0.
          5    1    3    3  502    0 -0.63469950147E+02 -0.74310331082E+02  0.11474522918E+02  0.98486531838E+02  0.41800000000E+01 0.  1.
         -5    1    3    3    0  502  0.22378370575E+02 -0.50459191599E+01  0.73633631502E+02  0.77237535292E+02  0.41800000000E+01 0.  1.
        -11    1    1    2    0    0 -0.19379053858E+01  0.84191624695E+02 -0.70543728404E+02  0.10985628231E+03  0.00000000000E+00 0.  1.
         11    1    1    2    0    0  0.43029484958E+02 -0.48353744536E+01 -0.38934000904E+02  0.58230351607E+02  0.00000000000E+00 0. -1.
</event>
<event>
 7    1  0.3151015E-009  0.9798410E+02  0.7561462E-02  0.1284593E+00
         -2   -1    0    0    0  501 -0.00000000000E+00  0.00000000000E+00  0.24057986635E+02  0.24057986635E+02  0.00000000000E+00 0. -1.
          2   -1    0    0  501    0  0.00000000000E+00 -0.00000000000E+00 -0.61514092527E+03  0.61514092527E+03  0.00000000000E+00 0.  1.
         25    2    1    2    0    0  0.24256462834E+02  0.48530698592E+02 -0.34582940421E+03  0.37174031707E+03  0.12509708958E+03 0.  0.
          5    1    3    3  502    0  0.48525072639E+02  0.44292850572E+02 -0.33968819369E+03  0.34600878690E+03  0.41800000000E+01 0.  1.
         -5    1    3    3    0  502 -0.24268609805E+02  0.42378480199E+01 -0.61412105232E+01  0.25731530160E+02  0.41800000000E+01 0.  1.
        -11    1    1    2    0    0 -0.11328829235E+02  0.26600143949E+02 -0.89403341725E+02  0.93962053732E+02  0.00000000000E+00 0.  1.
         11    1    1    2    0    0 -0.12927633599E+02 -0.75130842540E+02 -0.15585019270E+03  0.17349654111E+03  0.00000000000E+00 0. -1.
</event>
<event>
 7    1  0.3151015E-009  0.2009186E+03  0.7561462E-02  0.1148966E+00
         -2   -1    0    0    0  501 -0.00000000000E+00  0.00000000000E+00  0.33686616990E+02  0.33686616990E+02  0.00000000000E+00 0.  1.
          2   -1    0    0  501    0  0.00000000000E+00 -0.00000000000E+00 -0.14368034249E+04  0.14368034249E+04  0.00000000000E+00 0. -1.
         25    2    1    2    0    0 -0.12411334377E+03 -0.13175270154E+03 -0.51680769465E+03  0.56169548534E+03  0.12509487816E+03 0.  0.
          5    1    3    3  502    0 -0.33216359635E+01 -0.62117495828E+02 -0.70576904715E+02  0.94171059421E+02  0.41800000000E+01 0.  1.
         -5    1    3    3    0  502 -0.12079170781E+03 -0.69635205710E+02 -0.44623078993E+03  0.46752442592E+03  0.41800000000E+01 0.  1.
        -11    1    1    2    0    0  0.13681206691E+02 -0.12363436869E+02 -0.59812210966E+02  0.62590179489E+02  0.00000000000E+00 0.  1.
         11    1    1    2    0    0  0.11043213708E+03  0.14411613841E+03 -0.82649690233E+03  0.84620437709E+03  0.00000000000E+00 0. -1.
</event>
<event>
 7    1  0.3151015E-009  0.8482647E+02  0.7561462E-02  0.1315887E+00
         -2   -1    0    0    0  501 -0.00000000000E+00  0.00000000000E+00  0.11375961418E+03  0.11375961418E+03  0.00000000000E+00 0.  1.
          2   -1    0    0  501    0  0.00000000000E+00 -0.00000000000E+00 -0.12839668729E+03  0.12839668729E+03  0.00000000000E+00 0. -1.
         25    2    1    2    0    0  0.32390875682E+02 -0.36200258215E+01 -0.49421129280E+02  0.13837024985E+03  0.12506640081E+03 0.  0.
          5    1    3    3  502    0  0.43917089421E+02  0.25257390013E+02  0.25699885871E+02  0.56961417005E+02  0.41800000000E+01 0.  1.
         -5    1    3    3    0  502 -0.11526213739E+02 -0.28877415835E+02 -0.75121015150E+02  0.81408832848E+02  0.41800000000E+01 0.  1.
        -11    1    1    2    0    0  0.23376844384E+02 -0.15999829543E+02  0.34535299503E+02  0.44667195015E+02  0.00000000000E+00 0.  1.
         11    1    1    2    0    0 -0.55767720066E+02  0.19619855364E+02  0.24875666549E+00  0.59118856601E+02  0.00000000000E+00 0. -1.
</event>
<event>
 7    1  0.3151015E-009  0.2578761E+03  0.7561462E-02  0.1108426E+00
         -2   -1    0    0    0  501 -0.00000000000E+00  0.00000000000E+00  0.91084756177E+02  0.91084756177E+02  0.00000000000E+00 0.  1.
          2   -1    0    0  501    0  0.00000000000E+00 -0.00000000000E+00 -0.75982273991E+03  0.75982273991E+03  0.00000000000E+00 0. -1.
         25    2    1    2    0    0  0.19584046355E+03 -0.13742008614E+03 -0.35718223741E+03  0.44773277893E+03  0.12509086048E+03 0.  0.
          5    1    3    3  502    0  0.20259302303E+03 -0.10836600807E+03 -0.34650421630E+03  0.41577610441E+03  0.41800000000E+01 0.  1.
         -5    1    3    3    0  502 -0.67525594792E+01 -0.29054078064E+02 -0.10678021106E+02  0.31956674521E+02  0.41800000000E+01 0.  1.
        -11    1    1    2    0    0 -0.22505045135E+02  0.63555350101E+02 -0.85867832713E+02  0.10917437555E+03  0.00000000000E+00 0. -1.
         11    1    1    2    0    0 -0.17333541842E+03  0.73864736037E+02 -0.22568791362E+03  0.29400034160E+03  0.00000000000E+00 0.  1.
</event>
<event>
 7    1  0.3151015E-009  0.8069556E+02  0.7561462E-02  0.1327089E+00
          1   -1    0    0  501    0  0.00000000000E+00  0.00000000000E+00  0.17380701634E+03  0.17380701634E+03  0.00000000000E+00 0. -1.
         -1   -1    0    0    0  501 -0.00000000000E+00 -0.00000000000E+00 -0.69979434231E+02  0.69979434231E+02  0.00000000000E+00 0.  1.
         25    2    1    2    0    0 -0.93867973365E+01 -0.12701112545E+02  0.41458907956E+02  0.13274495123E+03  0.12511175326E+03 0.  0.
          5    1    3    3  502    0 -0.37654303163E+02  0.43173003862E+02  0.39957119789E+02  0.69969983786E+02  0.41800000000E+01 0.  1.
         -5    1    3    3    0  502  0.28267505826E+02 -0.55874116407E+02  0.15017881676E+01  0.62774967444E+02  0.41800000000E+01 0.  1.
        -11    1    1    2    0    0 -0.10193946867E+02  0.18197020391E+02 -0.18361920434E+02  0.27788634833E+02  0.00000000000E+00 0.  1.
         11    1    1    2    0    0  0.19580744203E+02 -0.54959078463E+01  0.80730594586E+02  0.83252864508E+02  0.00000000000E+00 0. -1.
</event>
<event>
 7    1  0.3151015E-009  0.9615236E+02  0.7561462E-02  0.1288602E+00
         -2   -1    0    0    0  501 -0.00000000000E+00  0.00000000000E+00  0.87752611361E+02  0.87752611361E+02  0.00000000000E+00 0.  1.
          2   -1    0    0  501    0  0.00000000000E+00 -0.00000000000E+00 -0.17000592344E+03  0.17000592344E+03  0.00000000000E+00 0. -1.
         25    2    1    2    0    0  0.25384614219E+02 -0.27405675685E+02 -0.86491934784E+02  0.15660158417E+03  0.12509097362E+03 0.  0.
          5    1    3    3  502    0 -0.23375893866E+02 -0.38411380221E+02  0.11426716403E+02  0.46582279810E+02  0.41800000000E+01 0.  1.
         -5    1    3    3    0  502  0.48760508085E+02  0.11005704536E+02 -0.97918651188E+02  0.11001930436E+03  0.41800000000E+01 0.  1.
        -11    1    1    2    0    0 -0.41500032259E+02  0.52646975666E+02  0.16105226196E+02  0.68944434403E+02  0.00000000000E+00 0.  1.
         11    1    1    2    0    0  0.16115418040E+02 -0.25241299981E+02 -0.11866603487E+02  0.32212516227E+02  0.00000000000E+00 0. -1.
</event>
<event>
 6    1  0.3151015E-009  0.9882666E+02  0.7561462E-02  0.1282783E+00
         -1   -1    0    0    0  501 -0.00000000000E+00  0.00000000000E+00  0.15187036282E+03  0.15187036282E+03  0.00000000000E+00 0.  1.
          1   -1    0    0  501    0  0.00000000000E+00 -0.00000000000E+00 -0.12155041916E+03  0.12155041916E+03  0.00000000000E+00 0. -1.
          5    1    1    2  502    0  0.40283109504E+02  0.51602960290E+02 -0.67591343093E+02  0.94189471190E+02  0.41800000000E+01 0. -1.
         -5    1    1    2    0  502 -0.15235013279E+02 -0.42666407861E+02  0.90600239836E+01  0.46390563953E+02  0.41800000000E+01 0. -1.
        -11    1    1    2    0    0  0.16313744240E+02 -0.34340114249E+02  0.84855684335E+01  0.38953646419E+02  0.00000000000E+00 0. -1.
         11    1    1    2    0    0 -0.41361840464E+02  0.25403561819E+02  0.80365694331E+02  0.93887100418E+02  0.00000000000E+00 0.  1.
</event>
<event>
 7    1  0.3151015E-009  0.1001062E+03  0.7561462E-02  0.1280073E+00
          4   -1    0    0  501    0  0.00000000000E+00  0.00000000000E+00  0.14882194125E+03  0.14882194125E+03  0.00000000000E+00 0.  1.
         -4   -1    0    0    0  501 -0.00000000000E+00 -0.00000000000E+00 -0.98643796686E+02  0.98643796686E+02  0.00000000000E+00 0. -1.
         25    2    1    2    0    0 -0.21016210605E+02 -0.26969315522E+02 -0.14908113739E+02  0.13047964422E+03  0.12503463765E+03 0.  0.
          5    1    3    3  502    0  0.22236825979E+02  0.27089746857E+02 -0.43014498160E+02  0.55642162668E+02  0.41800000000E+01 0. -1.
         -5    1    3    3    0  502 -0.43253036585E+02 -0.54059062379E+02  0.28106384421E+02  0.74837481547E+02  0.41800000000E+01 0. -1.
        -11    1    1    2    0    0 -0.89516385295E+01 -0.29934773080E+02  0.11565563220E+02  0.33316433247E+02  0.00000000000E+00 0. -1.
         11    1    1    2    0    0  0.29967849135E+02  0.56904088602E+02  0.53520695081E+02  0.83669660471E+02  0.00000000000E+00 0.  1.
</event>
<event>
 7    1  0.3151015E-009  0.1183092E+03  0.7561462E-02  0.1245913E+00
         -1   -1    0    0    0  501 -0.00000000000E+00  0.00000000000E+00  0.65905652201E+02  0.65905652201E+02  0.00000000000E+00 0.  1.
          1   -1    0    0  501    0  0.00000000000E+00 -0.00000000000E+00 -0.24537395248E+03  0.24537395248E+03  0.00000000000E+00 0. -1.
         25    2    1    2    0    0  0.10079260101E+02  0.62377322405E+02 -0.12817139456E+03  0.18991631474E+03  0.12509108036E+03 0.  0.
          5    1    3    3  502    0  0.32732656445E+02  0.92514097661E+02 -0.11117608643E+03  0.14835052969E+03  0.41800000000E+01 0. -1.
         -5    1    3    3    0  502 -0.22653396344E+02 -0.30136775256E+02 -0.16995308129E+02  0.41565785054E+02  0.41800000000E+01 0. -1.
        -11    1    1    2    0    0 -0.24504524570E+02 -0.76467585020E+02 -0.59140686815E+02  0.99726546717E+02  0.00000000000E+00 0. -1.
         11    1    1    2    0    0  0.14425264469E+02  0.14090262615E+02  0.78437810935E+01  0.21636743226E+02  0.00000000000E+00 0.  1.
</event>
<event>
 7    1  0.3814706E-009  0.1958670E+03  0.7561462E-02  0.1153274E+00
          2   -1    0    0  501    0  0.00000000000E+00  0.00000000000E+00  0.28932028058E+03  0.28932028058E+03  0.00000000000E+00 0. -1.
         -2   -1    0    0    0  501 -0.00000000000E+00 -0.00000000000E+00 -0.18466107678E+03  0.18466107678E+03  0.00000000000E+00 0.  1.
         25    2    1    2    0    0 -0.17901687741E+03  0.57772694812E+02 -0.25954383321E+02  0.22738347655E+03  0.12507952962E+03 0.  0.
          5    1    3    3  502    0 -0.28921280910E+02  0.13937603660E+02  0.45151145525E+02  0.55558938322E+02  0.41800000000E+01 0. -1.
         -5    1    3    3    0  502 -0.15009559650E+03  0.43835091152E+02 -0.71105528845E+02  0.17182453823E+03  0.41800000000E+01 0. -1.
        -11    1    1    2    0    0  0.10415206031E+03 -0.72153647221E+02  0.10957992204E+03  0.16751584936E+03  0.00000000000E+00 0. -1.
         11    1    1    2    0    0  0.74864817096E+02  0.14380952410E+02  0.21033665080E+02  0.79082031447E+02  0.00000000000E+00 0.  1.
</event>
<event>
 7    1  0.3151015E-009  0.9961959E+02  0.7561462E-02  0.1281098E+00
         -1   -1    0    0    0  501 -0.00000000000E+00  0.00000000000E+00  0.18577981955E+02  0.18577981955E+02  0.00000000000E+00 0.  1.
          1   -1    0    0  501    0  0.00000000000E+00 -0.00000000000E+00 -0.76729519129E+03  0.76729519129E+03  0.00000000000E+00 0. -1.
         25    2    1    2    0    0  0.21048910122E+01 -0.43542399383E+02 -0.50891093061E+03  0.52586872862E+03  0.12508882179E+03 0.  0.
          5    1    3    3  502    0  0.44217975348E+02  0.22844056248E+02 -0.26173106230E+03  0.26645393902E+03  0.41800000000E+01 0. -1.
         -5    1    3    3    0  502 -0.42113084336E+02 -0.66386455631E+02 -0.24717986831E+03  0.25941478960E+03  0.41800000000E+01 0. -1.
        -11    1    1    2    0    0 -0.86628276436E+01 -0.11909596448E+02 -0.10043994470E+01  0.14761161492E+02  0.00000000000E+00 0.  1.
         11    1    1    2    0    0  0.65579366313E+01  0.55451995831E+02 -0.23880187928E+03  0.24524328313E+03  0.00000000000E+00 0. -1.
</event>
<event>
 7    1  0.3151015E-009  0.9302921E+02  0.7561462E-02  0.1295678E+00
          1   -1    0    0  501    0  0.00000000000E+00  0.00000000000E+00  0.22789607165E+03  0.22789607165E+03  0.00000000000E+00 0. -1.
         -1   -1    0    0    0  501 -0.00000000000E+00 -0.00000000000E+00 -0.62091946734E+02  0.62091946734E+02  0.00000000000E+00 0.  1.
         25    2    1    2    0    0 -0.16925966050E+02  0.40713607804E+02  0.50586988124E+02  0.14195408905E+03  0.12509130203E+03 0.  0.
          5    1    3    3  502    0 -0.71279990021E+02  0.22843344191E+02  0.33356999057E+02  0.82053745419E+02  0.41800000000E+01 0.  1.
         -5    1    3    3    0  502  0.54354023971E+02  0.17870263612E+02  0.17229989067E+02  0.59900343627E+02  0.41800000000E+01 0.  1.
        -11    1    1    2    0    0  0.64413291293E+01 -0.42587035368E+02  0.12583048266E+03  0.13299795739E+03  0.00000000000E+00 0. -1.
         11    1    1    2    0    0  0.10484636921E+02  0.18734275646E+01 -0.10613345865E+02  0.15035971956E+02  0.00000000000E+00 0.  1.
</event>
<event>
 7    1  0.3151015E-009  0.2475534E+03  0.7561462E-02  0.1114861E+00
         -1   -1    0    0    0  501 -0.00000000000E+00  0.00000000000E+00  0.81538775183E+02  0.81538775183E+02  0.00000000000E+00 0.  1.
          1   -1    0    0  501    0  0.00000000000E+00 -0.00000000000E+00 -0.75653249839E+03  0.75653249839E+03  0.00000000000E+00 0. -1.
         25    2    1    2    0    0  0.15664803547E+03 -0.14772958311E+03 -0.36761662870E+03  0.44401820257E+03  0.12509013460E+03 0.  0.
          5    1    3    3  502    0  0.12244810880E+03 -0.16866535179E+03 -0.31490342147E+03  0.37765483911E+03  0.41800000000E+01 0. -1.
         -5    1    3    3    0  502  0.34199926665E+02  0.20935768682E+02 -0.52713207224E+02  0.66363363462E+02  0.41800000000E+01 0. -1.
        -11    1    1    2    0    0 -0.13100147896E+03  0.42064786771E+02 -0.16287019856E+03  0.21320772818E+03  0.00000000000E+00 0.  1.
         11    1    1    2    0    0 -0.25646556510E+02  0.10566479634E+03 -0.14450689595E+03  0.18084534283E+03  0.00000000000E+00 0. -1.
</event>
<event>
 7    1  0.3151015E-009  0.1129167E+03  0.7561462E-02  0.1255262E+00
         -1   -1    0    0    0  501 -0.00000000000E+00  0.00000000000E+00  0.16184175080E+02  0.16184175080E+02  0.00000000000E+00 0. -1.
          1   -1    0    0  501    0  0.00000000000E+00 -0.00000000000E+00 -0.89691574324E+03  0.89691574324E+03  0.00000000000E+00 0.  1.
         25    2    1    2    0    0  0.18643186064E+02 -0.46503131526E+02 -0.55944977723E+03  0.57544905844E+03  0.12508979168E+03 0.  0.
          5    1    3    3  502    0 -0.27571983579E+02 -0.66008364977E+02 -0.44045102914E+03  0.44624197471E+03  0.41800000000E+01 0. -1.
         -5    1    3    3    0  502  0.46215169643E+02  0.19505233451E+02 -0.11899874809E+03  0.12920708373E+03  0.41800000000E+01 0. -1.
        -11    1    1    2    0    0 -0.49758020966E+02  0.23359395785E+01 -0.15715759830E+03  0.16486305823E+03  0.00000000000E+00 0. -1.
         11    1    1    2    0    0  0.31114834902E+02  0.44167191948E+02 -0.16412419262E+03  0.17278780165E+03  0.00000000000E+00 0.  1.
</event>
<event>
 7    1  0.3151015E-009  0.2398242E+03  0.7561462E-02  0.1119910E+00
          2   -1    0    0  501    0  0.00000000000E+00  0.00000000000E+00  0.12396434561E+04  0.12396434561E+04  0.00000000000E+00 0. -1.
         -2   -1    0    0    0  501 -0.00000000000E+00 -0.00000000000E+00 -0.54145771024E+02  0.54145771024E+02  0.00000000000E+00 0.  1.
         25    2    1    2    0    0 -0.22200100258E+03  0.74264350877E+02  0.55356778774E+03  0.61391029210E+03  0.12509561211E+03 0.  0.
          5    1    3    3  502    0 -0.22312001112E+03  0.60680480128E+02  0.55326184721E+03  0.59965056825E+03  0.41800000000E+01 0.  1.
         -5    1    3    3    0  502  0.11190085438E+01  0.13583870749E+02  0.30594053315E+00  0.14259723849E+02  0.41800000000E+01 0.  1.
        -11    1    1    2    0    0  0.13891685651E+03 -0.48584594365E+02  0.26847493093E+03  0.30616522397E+03  0.00000000000E+00 0.  1.
         11    1    1    2    0    0  0.83084146069E+02 -0.25679756513E+02  0.36345496644E+03  0.37371371108E+03  0.00000000000E+00 0. -1.
</event>
<event>
 7    1  0.3196989E-009  0.1853735E+03  0.7561462E-02  0.1162702E+00
         -2   -1    0    0    0  501 -0.00000000000E+00  0.00000000000E+00  0.11974799286E+03  0.11974799286E+03  0.00000000000E+00 0.  1.
          2   -1    0    0  501    0  0.00000000000E+00 -0.00000000000E+00 -0.38324161021E+03  0.38324161021E+03  0.00000000000E+00 0. -1.
         25    2    1    2    0    0 -0.16425443802E+03  0.33743795512E+02 -0.47383038792E+02  0.21449881106E+03  0.12508566439E+03 0.  0.
          5    1    3    3  502    0 -0.11186822671E+03  0.72762599236E+02 -0.62348235553E+02  0.14735559328E+03  0.41800000000E+01 0. -1.
         -5    1    3    3    0  502 -0.52386211314E+02 -0.39018803724E+02  0.14965196761E+02  0.67143217781E+02  0.41800000000E+01 0. -1.
        -11    1    1    2    0    0  0.75931918250E+02  0.32939006004E+01 -0.16088827674E+03  0.17793690899E+03  0.00000000000E+00 0. -1.
         11    1    1    2    0    0  0.88322519774E+02 -0.37037696113E+02 -0.55222301814E+02  0.11055388302E+03  0.00000000000E+00 0.  1.
</event>
<event>
 7    1  0.3151015E-009  0.1098910E+03  0.7561462E-02  0.1260772E+00
          1   -1    0    0  501    0  0.00000000000E+00  0.00000000000E+00  0.17291789433E+03  0.17291789433E+03  0.00000000000E+00 0. -1.
         -1   -1    0    0    0  501 -0.00000000000E+00 -0.00000000000E+00 -0.10616207324E+03  0.10616207324E+03  0.00000000000E+00 0.  1.
         25    2    1    2    0    0  0.11219451188E+02 -0.72824676457E+02  0.71758064419E+02  0.16194228864E+03  0.12508707149E+03 0.  0.
          5    1    3    3  502    0  0.25975842516E+02 -0.10401230280E+03  0.38925053098E+02  0.11413122135E+03  0.41800000000E+01 0.  1.
         -5    1    3    3    0  502 -0.14756391328E+02  0.31187626348E+02  0.32833011321E+02  0.47811067283E+02  0.41800000000E+01 0.  1.
        -11    1    1    2    0    0  0.21830131688E+01  0.56828112946E+02 -0.44669501009E+02  0.72315726422E+02  0.00000000000E+00 0.  1.
         11    1    1    2    0    0 -0.13402464357E+02  0.15996563511E+02  0.39667257677E+02  0.44821952508E+02  0.00000000000E+00 0. -1.
</event>
<event>
 7    1  0.3151015E-009  0.1042092E+03  0.7561462E-02  0.1271686E+00
         -2   -1    0    0    0  501 -0.00000000000E+00  0.00000000000E+00  0.86309798839E+02  0.86309798839E+02  0.00000000000E+00 0.  1.
          2   -1    0    0  501    0  0.00000000000E+00 -0.00000000000E+00 -0.17384866491E+03  0.17384866491E+03  0.00000000000E+00 0. -1.
         25    2    1    2    0    0 -0.46829999876E+02  0.26636210653E+02 -0.25693570805E+02  0.13860153477E+03  0.12509072409E+03 0.  0.
          5    1    3    3  502    0  0.24915311196E+02 -0.28192953109E+02 -0.29703575591E+02  0.48118501014E+02  0.41800000000E+01 0. -1.
         -5    1    3    3    0  502 -0.71745311072E+02  0.54829163762E+02  0.40100047860E+01  0.90483033758E+02  0.41800000000E+01 0. -1.
        -11    1    1    2    0    0 -0.84827636264E+01 -0.23252985593E+02  0.13369617347E+02  0.28131926449E+02  0.00000000000E+00 0.  1.
         11    1    1    2    0    0  0.55312763502E+02 -0.33832250606E+01 -0.75214912616E+02  0.93425002531E+02  0.00000000000E+00 0. -1.
</event>
<event>
 7    1  0.3151015E-009  0.1421335E+03  0.7561462E-02  0.1210487E+00
          1   -1    0    0  501    0  0.00000000000E+00  0.00000000000E+00  0.13525052371E+03  0.13525052371E+03  0.00000000000E+00 0. -1.
         -1   -1    0    0    0  501 -0.00000000000E+00 -0.00000000000E+00 -0.25843526011E+03  0.25843526011E+03  0.00000000000E+00 0.  1.
         25    2    1    2    0    0  0.95948967249E+02 -0.95718359419E+02 -0.13687969905E+03  0.22968010089E+03  0.12509471647E+03 0.  0.
          5    1    3    3  502    0  0.51142317618E+02 -0.15719896178E+02 -0.12636980280E+03  0.13729330372E+03  0.41800000000E+01 0. -1.
         -5    1    3    3    0  502  0.44806649631E+02 -0.79998463241E+02 -0.10509896250E+02  0.92386797169E+02  0.41800000000E+01 0. -1.
        -11    1    1    2    0    0 -0.71534563488E+02  0.87572438486E+02 -0.26628123395E+02  0.11616876823E+03  0.00000000000E+00 0.  1.
         11    1    1    2    0    0 -0.24414403761E+02  0.81459209333E+01  0.40323086053E+02  0.47836914697E+02  0.00000000000E+00 0. -1.
</event>
<event>
 7    1  0.3151015E-009  0.1014919E+03  0.7561462E-02  0.1277190E+00
         -1   -1    0    0    0  501 -0.00000000000E+00  0.00000000000E+00  0.27942345588E+02  0.27942345588E+02  0.00000000000E+00 0.  1.
          1   -1    0    0  501    0  0.00000000000E+00 -0.00000000000E+00 -0.53990700342E+03  0.53990700342E+03  0.00000000000E+00 0. -1.
         25    2    1    2    0    0 -0.47154062250E+02  0.19522207554E+02 -0.37176019830E+03  0.39554738612E+03  0.12508983753E+03 0.  0.
          5    1    3    3  502    0 -0.15999606825E+02 -0.50292059144E+02 -0.99265405198E+02  0.11250054089E+03  0.41800000000E+01 0. -1.
         -5    1    3    3    0  502 -0.31154455425E+02  0.69814266698E+02 -0.27249479310E+03  0.28304684523E+03  0.41800000000E+01 0. -1.
        -11    1    1    2    0    0  0.20490856865E+02 -0.36507323511E+02 -0.13360007275E+03  0.14000585461E+03  0.00000000000E+00 0. -1.
         11    1    1    2    0    0  0.26663205385E+02  0.16985115957E+02 -0.66043867845E+01  0.32296108284E+02  0.00000000000E+00 0.  1.
</event>
<event>
 7    1  0.3151015E-009  0.1521083E+03  0.7561462E-02  0.1197906E+00
          1   -1    0    0  501    0  0.00000000000E+00  0.00000000000E+00  0.40703281492E+03  0.40703281492E+03  0.00000000000E+00 0. -1.
         -1   -1    0    0    0  501 -0.00000000000E+00 -0.00000000000E+00 -0.82318071447E+02  0.82318071447E+02  0.00000000000E+00 0.  1.
         25    2    1    2    0    0  0.40778788829E+01 -0.13303528511E+03  0.25059305848E+03  0.31009588717E+03  0.12509021584E+03 0.  0.
          5    1    3    3  502    0  0.39031246886E+02 -0.11809654701E+03  0.24010836779E+03  0.27044358623E+03  0.41800000000E+01 0.  1.
         -5    1    3    3    0  502 -0.34953368004E+02 -0.14938738102E+02  0.10484690692E+02  0.39652300939E+02  0.41800000000E+01 0.  1.
        -11    1    1    2    0    0 -0.25391069434E+02  0.89832374369E+02  0.30582544783E+01  0.93401899404E+02  0.00000000000E+00 0. -1.
         11    1    1    2    0    0  0.21313190551E+02  0.43202910744E+02  0.71063430510E+02  0.85853099793E+02  0.00000000000E+00 0.  1.
</event>
<event>
 7    1  0.3151015E-009  0.1480381E+03  0.7561462E-02  0.1202905E+00
         -2   -1    0    0    0  501 -0.00000000000E+00  0.00000000000E+00  0.16833457783E+02  0.16833457783E+02  0.00000000000E+00 0.  1.
          2   -1    0    0  501    0  0.00000000000E+00 -0.00000000000E+00 -0.15348879096E+04  0.15348879096E+04  0.00000000000E+00 0. -1.
         25    2    1    2    0    0 -0.85605432708E+02 -0.65137063336E+02 -0.10422402336E+04  0.10552174041E+04  0.12509171928E+03 0.  0.
          5    1    3    3  502    0 -0.85886671432E+02 -0.98172070622E+02 -0.77514621490E+03  0.78605559769E+03  0.41800000000E+01 0.  1.
         -5    1    3    3    0  502  0.28123872433E+00  0.33035007286E+02 -0.26709401874E+03  0.26916180645E+03  0.41800000000E+01 0.  1.
        -11    1    1    2    0    0  0.10011174008E+03  0.52554585631E+02 -0.45191937353E+03  0.46584918712E+03  0.00000000000E+00 0.  1.
         11    1    1    2    0    0 -0.14506307370E+02  0.12582477704E+02 -0.23894844640E+02  0.30654776122E+02  0.00000000000E+00 0. -1.
</event>
<event>
 6    1  0.4796120E-009  0.1948993E+03  0.7561462E-02  0.1154115E+00
         -3   -1    0    0    0  501 -0.00000000000E+00  0.00000000000E+00  0.21807739423E+03  0.21807739423E+03  0.00000000000E+00 0.  1.
          3   -1    0    0  501    0  0.00000000000E+00 -0.00000000000E+00 -0.23094285383E+03  0.23094285383E+03  0.00000000000E+00 0. -1.
          5    1    1    2  502    0 -0.13376320567E+02 -0.21851391344E+02  0.46019985102E+02  0.52836736126E+02  0.41800000000E+01 0.  1.
         -5    1    1    2    0  502 -0.13440331824E+03  0.10562382325E+03  0.45347206537E+02  0.17690247464E+03  0.41800000000E+01 0.  1.
        -11    1    1    2    0    0  0.98734638699E+02 -0.35225729011E+01 -0.50313232541E+02  0.11087091038E+03  0.00000000000E+00 0.  1.
         11    1    1    2    0    0  0.49045000111E+02 -0.80249859003E+02 -0.53919418703E+02  0.10841012692E+03  0.00000000000E+00 0. -1.
</event>
<event>
 7    1  0.3151015E-009  0.9869269E+02  0.7561462E-02  0.1283069E+00
          2   -1    0    0  501    0  0.00000000000E+00  0.00000000000E+00  0.19682188441E+03  0.19682188441E+03  0.00000000000E+00 0. -1.
         -2   -1    0    0    0  501 -0.00000000000E+00 -0.00000000000E+00 -0.67483841096E+02  0.67483841096E+02  0.00000000000E+00 0.  1.
         25    2    1    2    0    0  0.57433014359E+00  0.29535961018E+02  0.42872619518E+02  0.13548733443E+03  0.12508418541E+03 0.  0.
          5    1    3    3  502    0 -0.44286344465E+02 -0.21710613454E+02  0.45453976604E+02  0.67202436204E+02  0.41800000000E+01 0.  1.
         -5    1    3    3    0  502  0.44860674609E+02  0.51246574472E+02 -0.25813570857E+01  0.68284898227E+02  0.41800000000E+01 0.  1.
        -11    1    1    2    0    0 -0.14826154332E+02  0.21805224620E+02 -0.10159932033E+01  0.26387779657E+02  0.00000000000E+00 0.  1.
         11    1    1    2    0    0  0.14251824189E+02 -0.51341185638E+02  0.87481417001E+02  0.10243061142E+03  0.00000000000E+00 0. -1.
</event>
<event>
 7    1  0.3151015E-009  0.1348851E+03  0.7561462E-02  0.1220382E+00
         -1   -1    0    0    0  501 -0.00000000000E+00  0.00000000000E+00  0.65142152407E+02  0.65142152407E+02  0.00000000000E+00 0.  1.
          1   -1    0    0  501    0  0.00000000000E+00 -0.00000000000E+00 -0.67337104991E+03  0.67337104991E+03  0.00000000000E+00 0. -1.
         25    2    1    2    0    0 -0.10297337173E+03 -0.73616785372E+02 -0.90678957656E+02  0.19973289756E+03  0.12509040984E+03 0.  0.
          5    1    3    3  502    0 -0.56597917967E+02 -0.23138112868E+02 -0.11212960121E+03  0.12778582258E+03  0.41800000000E+01 0.  1.
         -5    1    3    3    0  502 -0.46375453759E+02 -0.50478672504E+02  0.21450643557E+02  0.71947074980E+02  0.41800000000E+01 0.  1.
        -11    1    1    2    0    0  0.80985004337E+02  0.22331658594E+02 -0.20946845934E+03  0.22568630743E+03  0.00000000000E+00 0. -1.
         11    1    1    2    0    0  0.21988367389E+02  0.51285126778E+02 -0.30808148050E+03  0.31309399732E+03  0.00000000000E+00 0.  1.
</event>
<event>
 7    1  0.3151015E-009  0.1172783E+03  0.7561462E-02  0.1247656E+00
          1   -1    0    0  501    0  0.00000000000E+00  0.00000000000E+00  0.30708678529E+02  0.30708678529E+02  0.00000000000E+00 0. -1.
         -1   -1    0    0    0  501 -0.00000000000E+00 -0.00000000000E+00 -0.52735554318E+03  0.52735554318E+03  0.00000000000E+00 0.  1.
         25    2    1    2    0    0  0.22729316633E+01 -0.48499976633E+02 -0.17790650247E+03  0.22283681645E+03  0.12509240263E+03 0.  0.
          5    1    3    3  502    0  0.25252894320E+02  0.36968953278E+02 -0.70244644867E+02  0.83403805132E+02  0.41800000000E+01 0.  1.
         -5    1    3    3    0  502 -0.22979962657E+02 -0.85468929912E+02 -0.10766185760E+03  0.13943301132E+03  0.41800000000E+01 0.  1.
        -11    1    1    2    0    0  0.38759038487E+02  0.45610456535E+02 -0.14896612965E+03  0.16054122397E+03  0.00000000000E+00 0. -1.
         11    1    1    2    0    0 -0.41031970150E+02  0.28895200979E+01 -0.16977423254E+03  0.17468618129E+03  0.00000000000E+00 0.  1.
</event>
<event>
 7    1  0.3151015E-009  0.1174694E+03  0.7561462E-02  0.1247331E+00
         -1   -1    0    0    0  501 -0.00000000000E+00  0.00000000000E+00  0.75722714593E+02  0.75722714593E+02  0.00000000000E+00 0.  1.
          1   -1    0    0  501    0  0.00000000000E+00 -0.00000000000E+00 -0.36049526015E+03  0.36049526015E+03  0.00000000000E+00 0. -1.
         25    2    1    2    0    0 -0.99343999025E+02  0.54572828639E+02 -0.79706937562E+02  0.18667317289E+03  0.12508498636E+03 0.  0.
          5    1    3    3  502    0 -0.90263009382E+02  0.31705367900E+02 -0.11103137254E+03  0.14662223332E+03  0.41800000000E+01 0. -1.
         -5    1    3    3    0  502 -0.90809896433E+01  0.22867460739E+02  0.31324434978E+02  0.40050939567E+02  0.41800000000E+01 0. -1.
        -11    1    1    2    0    0  0.82942756764E+02 -0.39192001965E+02 -0.77729893599E+02  0.12023913787E+03  0.00000000000E+00 0.  1.
         11    1    1    2    0    0  0.16401242261E+02 -0.15380826674E+02 -0.12733571439E+03  0.12930566398E+03  0.00000000000E+00 0. -1.
</event>
<event>
 7    1  0.4323308E-009  0.1009045E+03  0.7561462E-02  0.1278405E+00
          3   -1    0    0  501    0  0.00000000000E+00  0.00000000000E+00  0.25949508815E+03  0.25949508815E+03  0.00000000000E+00 0. -1.
         -3   -1    0    0    0  501 -0.00000000000E+00 -0.00000000000E+00 -0.52003569903E+02  0.52003569903E+02  0.00000000000E+00 0.  1.
         25    2    1    2    0    0 -0.27628292241E+02  0.21657672622E+02  0.86366833010E+02  0.15601191537E+03  0.12509240816E+03 0.  0.
          5    1    3    3  502    0  0.25078488480E+02  0.55390451943E+02  0.66545661295E+02  0.90237631773E+02  0.41800000000E+01 0. -1.
         -5    1    3    3    0  502 -0.52706780721E+02 -0.33732779321E+02  0.19821171715E+02  0.65774283598E+02  0.41800000000E+01 0. -1.
        -11    1    1    2    0    0  0.18808765982E+02  0.24649613370E+02  0.66850505196E+01  0.31718496457E+02  0.00000000000E+00 0.  1.
         11    1    1    2    0    0  0.88195262587E+01 -0.46307285992E+02  0.11443963472E+03  0.12376824622E+03  0.00000000000E+00 0. -1.
</event>
<event>
 7    1  0.3151015E-009  0.1026033E+03  0.7561462E-02  0.1274915E+00
         -2   -1    0    0    0  501 -0.00000000000E+00  0.00000000000E+00  0.54305458532E+02  0.54305458532E+02  0.00000000000E+00 0.  1.
          2   -1    0    0  501    0  0.00000000000E+00 -0.00000000000E+00 -0.24118873640E+03  0.24118873640E+03  0.00000000000E+00 0. -1.
         25    2    1    2    0    0  0.28917304447E+02 -0.15431439272E+02 -0.14311817612E+03  0.19288515567E+03  0.12509009204E+03 0.  0.
          5    1    3    3  502    0 -0.47109098902E+02  0.10464757252E+02 -0.46127163764E+02  0.66887711731E+02  0.41800000000E+01 0. -1.
         -5    1    3    3    0  502  0.76026403349E+02 -0.25896196524E+02 -0.96991012360E+02  0.12599744394E+03  0.41800000000E+01 0. -1.
        -11    1    1    2    0    0 -0.37775266041E+02 -0.17938613495E+02 -0.52379202079E+02  0.67024960941E+02  0.00000000000E+00 0. -1.
         11    1    1    2    0    0  0.88579615946E+01  0.33370052768E+02  0.86141003361E+01  0.35584078321E+02  0.00000000000E+00 0.  1.
</event>
<event>
 7    1  0.3151015E-009  0.1226140E+03  0.7561462E-02  0.1238846E+00
          1   -1    0    0  501    0  0.00000000000E+00  0.00000000000E+00  0.73266612623E+03  0.73266612623E+03  0.00000000000E+00 0. -1.
         -1   -1    0    0    0  501 -0.00000000000E+00 -0.00000000000E+00 -0.31151796649E+02  0.31151796649E+02  0.00000000000E+00 0.  1.
         25    2    1    2    0    0  0.63581858791E+02 -0.66490183043E+02  0.49766643026E+03  0.52132947526E+03  0.12509575837E+03 0.  0.
          5    1    3    3  502    0  0.77610868320E+02 -0.41312005722E+02  0.47835187170E+03  0.48638268294E+03  0.41800000000E+01 0.  1.
         -5    1    3    3    0  502 -0.14029009529E+02 -0.25178177322E+02  0.19314558553E+02  0.34946792324E+02  0.41800000000E+01 0.  1.
        -11    1    1    2    0    0  0.22450153308E+02  0.71121009321E+01  0.19542538214E+02  0.30602322838E+02  0.00000000000E+00 0.  1.
         11    1    1    2    0    0 -0.86032012099E+02  0.59378082111E+02  0.18430536111E+03  0.21188612478E+03  0.00000000000E+00 0. -1.
</event>
<event>
 7    1  0.3151015E-009  0.2208942E+03  0.7561462E-02  0.1133218E+00
          1   -1    0    0  501    0  0.00000000000E+00  0.00000000000E+00  0.16178865798E+04  0.16178865798E+04  0.00000000000E+00 0. -1.
         -1   -1    0    0    0  501 -0.00000000000E+00 -0.00000000000E+00 -0.32981461191E+02  0.32981461191E+02  0.00000000000E+00 0.  1.
         25    2    1    2    0    0 -0.19690242759E+03  0.24899064249E+02  0.98633548973E+03  0.10138520857E+04  0.12509126228E+03 0.  0.
          5    1    3    3  502    0 -0.12813788013E+03 -0.37264277128E+02  0.44412997014E+03  0.46376378195E+03  0.41800000000E+01 0. -1.
         -5    1    3    3    0  502 -0.68764547457E+02  0.62163341377E+02  0.54220551960E+03  0.55008830371E+03  0.41800000000E+01 0. -1.
        -11    1    1    2    0    0  0.75574595345E+02  0.31266961206E+02  0.27523769341E+03  0.28713225211E+03  0.00000000000E+00 0. -1.
         11    1    1    2    0    0  0.12132783224E+03 -0.56166025455E+02  0.32333193548E+03  0.34988370324E+03  0.00000000000E+00 0.  1.
</event>
<event>
 7    1  0.3151015E-009  0.9422764E+02  0.7561462E-02  0.1292925E+00
         -1   -1    0    0    0  501 -0.00000000000E+00  0.00000000000E+00  0.31565464993E+03  0.31565464993E+03  0.00000000000E+00 0.  1.
          1   -1    0    0  501    0  0.00000000000E+00 -0.00000000000E+00 -0.41387823997E+02  0.41387823997E+02  0.00000000000E+00 0. -1.
         25    2    1    2    0    0 -0.26337344650E+02  0.53639101723E+01  0.12618215805E+03  0.17970010713E+03  0.12509102381E+03 0.  0.
          5    1    3    3  502    0 -0.11151440572E+02  0.53185458037E+02  0.13304907174E+02  0.56102945808E+02  0.41800000000E+01 0. -1.
         -5    1    3    3    0  502 -0.15185904078E+02 -0.47821547864E+02  0.11287725088E+03  0.12359716133E+03  0.41800000000E+01 0. -1.
        -11    1    1    2    0    0  0.33385791419E+02 -0.37787527370E+02  0.13025570987E+03  0.13967483040E+03  0.00000000000E+00 0.  1.
         11    1    1    2    0    0 -0.70484467692E+01  0.32423617197E+02  0.17828958013E+02  0.37667536392E+02  0.00000000000E+00 0. -1.
</event>
<event>
 7    1  0.3151015E-009  0.1011592E+03  0.7561462E-02  0.1277877E+00
         -2   -1    0    0    0  501 -0.00000000000E+00  0.00000000000E+00  0.19090649941E+02  0.19090649941E+02  0.00000000000E+00 0.  1.
          2   -1    0    0  501    0  0.00000000000E+00 -0.00000000000E+00 -0.62498814637E+03  0.62498814637E+03  0.00000000000E+00 0. -1.
         25    2    1    2    0    0 -0.73661741925E+01 -0.78424052215E+01 -0.31823396436E+03  0.34210558342E+03  0.12509040848E+03 0.  0.
          5    1    3    3  502    0  0.50245457625E+02  0.82812475606E+01 -0.69600194534E+02  0.86341441685E+02  0.41800000000E+01 0. -1.
         -5    1    3    3    0  502 -0.57611631817E+02 -0.16123652782E+02 -0.24863376982E+03  0.25576414173E+03  0.41800000000E+01 0. -1.
        -11    1    1    2    0    0  0.33615865176E+02  0.38355864477E+02 -0.14339823552E+03  0.15219807056E+03  0.00000000000E+00 0.  1.
         11    1    1    2    0    0 -0.26249690984E+02 -0.30513459256E+02 -0.14426529655E+03  0.14977514233E+03  0.00000000000E+00 0. -1.
</event>
<event>
 7    1  0.3151015E-009  0.1050877E+03  0.7561462E-02  0.1269947E+00
         -1   -1    0    0    0  501 -0.00000000000E+00  0.00000000000E+00  0.21181529815E+02  0.21181529815E+02  0.00000000000E+00 0.  1.
          1   -1    0    0  501    0  0.00000000000E+00 -0.00000000000E+00 -0.66171783142E+03  0.66171783142E+03  0.00000000000E+00 0. -1.
         25    2    1    2    0    0  0.22813117574E+02 -0.24645237619E+02 -0.26173715820E+03  0.29202765341E+03  0.12508390906E+03 0.  0.
          5    1    3    3  502    0  0.16548534506E+02  0.50583675898E+02 -0.95592033383E+02  0.10948913877E+03  0.41800000000E+01 0.  1.
         -5    1    3    3    0  502  0.62645830684E+01 -0.75228913517E+02 -0.16614512481E+03  0.18253851465E+03  0.41800000000E+01 0.  1.
        -11    1    1    2    0    0 -0.44569826969E+02  0.35397412305E+02 -0.34256603790E+03  0.34726205752E+03  0.00000000000E+00 0. -1.
         11    1    1    2    0    0  0.21756709395E+02 -0.10752174686E+02 -0.36233105511E+02  0.43609650298E+02  0.00000000000E+00 0.  1.
</event>
<event>
 7    1  0.3151015E-009  0.5469221E+02  0.7561462E-02  0.1421560E+00
          1   -1    0    0  501    0  0.00000000000E+00  0.00000000000E+00  0.88210437514E+02  0.88210437514E+02  0.00000000000E+00 0. -1.
         -1   -1    0    0    0  501 -0.00000000000E+00 -0.00000000000E+00 -0.14424783314E+03  0.14424783314E+03  0.00000000000E+00 0.  1.
         25    2    1    2    0    0 -0.51977464718E+01 -0.77433289608E+01 -0.31041273166E+02  0.12921125480E+03  0.12508002244E+03 0.  0.
          5    1    3    3  502    0  0.15257272555E+01  0.73654981422E+00  0.48560019392E+02  0.48769029441E+02  0.41800000000E+01 0. -1.
         -5    1    3    3    0  502 -0.67234737274E+01 -0.84798787750E+01 -0.79601292558E+02  0.80442225354E+02  0.41800000000E+01 0. -1.
        -11    1    1    2    0    0 -0.46020417291E+01 -0.42163107744E+02 -0.30280860773E+02  0.52113692749E+02  0.00000000000E+00 0. -1.
         11    1    1    2    0    0  0.97997882009E+01  0.49906436705E+02  0.52847383131E+01  0.51133323111E+02  0.00000000000E+00 0.  1.
</event>
<event>
 7    1  0.3151015E-009  0.1121096E+03  0.7561462E-02  0.1256712E+00
          1   -1    0    0  501    0  0.00000000000E+00  0.00000000000E+00  0.39824966774E+03  0.39824966774E+03  0.00000000000E+00 0. -1.
         -1   -1    0    0    0  501 -0.00000000000E+00 -0.00000000000E+00 -0.47356676068E+02  0.47356676068E+02  0.00000000000E+00 0.  1.
         25    2    1    2    0    0  0.61209169637E+02 -0.49742172093E+02  0.25378300964E+03  0.29372530673E+03  0.12509154128E+03 0.  0.
          5    1    3    3  502    0 -0.25602349839E+02  0.91110192870E+01  0.11727378022E+02  0.29891383123E+02  0.41800000000E+01 0.  1.
         -5    1    3    3    0  502  0.86811519476E+02 -0.58853191380E+02  0.24205563162E+03  0.26383392361E+03  0.41800000000E+01 0.  1.
        -11    1    1    2    0    0 -0.55907596747E+02  0.16775274485E+02  0.10831315294E+02  0.59366544442E+02  0.00000000000E+00 0.  1.
         11    1    1    2    0    0 -0.53015728906E+01  0.32966897608E+02  0.86278666741E+02  0.92514492636E+02  0.00000000000E+00 0. -1.
</event>
<event>
 7    1  0.3151015E-009  0.1125167E+03  0.7561462E-02  0.1255979E+00
          2   -1    0    0  501    0  0.00000000000E+00  0.00000000000E+00  0.18823975582E+04  0.18823975582E+04  0.00000000000E+00 0. -1.
         -2   -1    0    0    0  501 -0.00000000000E+00 -0.00000000000E+00 -0.15792785258E+02  0.15792785258E+02  0.00000000000E+00 0.  1.
         25    2    1    2    0    0  0.97540619410E+02 -0.85140677584E+01  0.14868083471E+04  0.14952703316E+04  0.12509053448E+03 0.  0.
          5    1    3    3  502    0  0.25799287736E+02  0.20615040635E+02  0.84506669374E+02  0.90826387778E+02  0.41800000000E+01 0.  1.
         -5    1    3    3    0  502  0.71741331674E+02 -0.29129108394E+02  0.14023016777E+04  0.14044439438E+04  0.41800000000E+01 0.  1.
        -11    1    1    2    0    0 -0.81628991804E+01  0.22320153654E+02  0.17519831499E+02  0.29525695215E+02  0.00000000000E+00 0.  1.
         11    1    1    2    0    0 -0.89377720230E+02 -0.13806085896E+02  0.36227659433E+03  0.37339431661E+03  0.00000000000E+00 0. -1.
</event>
<event>
 7    1  0.3151015E-009  0.1040143E+03  0.7561462E-02  0.1272074E+00
         -1   -1    0    0    0  501 -0.00000000000E+00  0.00000000000E+00  0.22718551041E+02  0.22718551041E+02  0.00000000000E+00 0.  1.
          1   -1    0    0  501    0  0.00000000000E+00 -0.00000000000E+00 -0.63198672574E+03  0.63198672574E+03  0.00000000000E+00 0. -1.
         25    2    1    2    0    0 -0.44498646007E+02  0.17729126983E+02 -0.39248788144E+03  0.41471431157E+03  0.12508705649E+03 0.  0.
          5    1    3    3  502    0 -0.24416974135E+02  0.66374747398E+02 -0.14162978704E+03  0.15836118431E+03  0.41800000000E+01 0. -1.
         -5    1    3    3    0  502 -0.20081671873E+02 -0.48645620416E+02 -0.25085809440E+03  0.25635312726E+03  0.41800000000E+01 0. -1.
        -11    1    1    2    0    0  0.52523090687E+02  0.11762864693E+02 -0.61481102276E+02  0.81712703897E+02  0.00000000000E+00 0.  1.
         11    1    1    2    0    0 -0.80244446793E+01 -0.29491991675E+02 -0.15529919098E+03  0.15827826131E+03  0.00000000000E+00 0. -1.
</event>
<event>
 7    1  0.3151015E-009  0.1056926E+03  0.7561462E-02  0.1268761E+00
          2   -1    0    0  501    0  0.00000000000E+00  0.00000000000E+00  0.10184355818E+03  0.10184355818E+03  0.00000000000E+00 0.  1.
         -2   -1    0    0    0  501 -0.00000000000E+00 -0.00000000000E+00 -0.20345815703E+03  0.20345815703E+03  0.00000000000E+00 0. -1.
         25    2    1    2    0    0  0.56975168286E+02 -0.75029204348E+02 -0.56711838635E+02  0.16655246445E+03  0.12509172421E+03 0.  0.
          5    1    3    3  502    0  0.30677810086E+02 -0.57881004625E+02  0.31513742165E+02  0.72814332884E+02  0.41800000000E+01 0. -1.
         -5    1    3    3    0  502  0.26297358200E+02 -0.17148199722E+02 -0.88225580800E+02  0.93738131566E+02  0.41800000000E+01 0. -1.
        -11    1    1    2    0    0 -0.60441854396E+02  0.84554370942E+02 -0.12364540181E+02  0.10466872151E+03  0.00000000000E+00 0.  1.
         11    1    1    2    0    0  0.34666861097E+01 -0.95251665943E+01 -0.32538220030E+02  0.34080529250E+02  0.00000000000E+00 0. -1.
</event>
<event>
 7    1  0.3151015E-009  0.1495414E+03  0.7561462E-02  0.1201038E+00
          1   -1    0    0  501    0  0.00000000000E+00  0.00000000000E+00  0.45067626940E+03  0.45067626940E+03  0.00000000000E+00 0. -1.
         -1   -1    0    0    0  501 -0.00000000000E+00 -0.00000000000E+00 -0.70925752710E+02  0.70925752710E+02  0.00000000000E+00 0.  1.
         25    2    1    2    0    0  0.57942302243E+02  0.12792998100E+03  0.16960643161E+03  0.25325321545E+03  0.12508980400E+03 0.  0.
          5    1    3    3  502    0  0.34632025889E+02  0.12454457482E+03  0.62757964076E+02  0.14375939200E+03  0.41800000000E+01 0.  1.
         -5    1    3    3    0  502  0.23310276354E+02  0.33854061814E+01  0.10684846753E+03  0.10949382345E+03  0.41800000000E+01 0.  1.
        -11    1    1    2    0    0 -0.29550367411E+02 -0.23954158006E+02  0.12598176827E+03  0.13159951306E+03  0.00000000000E+00 0. -1.
         11    1    1    2    0    0 -0.28391934832E+02 -0.10397582299E+03  0.84162316807E+02  0.13674929360E+03  0.00000000000E+00 0.  1.
</event>
<event>
 7    1  0.3151015E-009  0.1104311E+03  0.7561462E-02  0.1259774E+00
         -1   -1    0    0    0  501 -0.00000000000E+00  0.00000000000E+00  0.21531014029E+03  0.21531014029E+03  0.00000000000E+00 0.  1.
          1   -1    0    0  501    0  0.00000000000E+00 -0.00000000000E+00 -0.61501026484E+02  0.61501026484E+02  0.00000000000E+00 0. -1.
         25    2    1    2    0    0  0.13695598880E+02 -0.24149941771E+02  0.53686627654E+02  0.13892874072E+03  0.12509257329E+03 0.  0.
          5    1    3    3  502    0 -0.30209706706E+02  0.38729775947E+02  0.91274140185E+01  0.50133860921E+02  0.41800000000E+01 0.  1.
         -5    1    3    3    0  502  0.43905305585E+02 -0.62879717718E+02  0.44559213636E+02  0.88794879800E+02  0.41800000000E+01 0.  1.
        -11    1    1    2    0    0 -0.48501140958E+02 -0.57961207128E+01  0.53578699666E+02  0.72502639589E+02  0.00000000000E+00 0. -1.
         11    1    1    2    0    0  0.34805542079E+02  0.29946062484E+02  0.46543786489E+02  0.65379786467E+02  0.00000000000E+00 0.  1.
</event>
<event>
 7    1  0.3151015E-009  0.1264983E+03  0.7561462E-02  0.1232746E+00
          1   -1    0    0  501    0  0.00000000000E+00  0.00000000000E+00  0.90136693340E+03  0.90136693340E+03  0.00000000000E+00 0. -1.
         -1   -1    0    0    0  501 -0.00000000000E+00 -0.00000000000E+00 -0.42106610865E+02  0.42106610865E+02  0.00000000000E+00 0.  1.
         25    2    1    2    0    0  0.16450909242E+02 -0.64948727778E+02  0.79881928724E+03  0.81132594585E+03  0.12509423282E+03 0.  0.
          5    1    3    3  502    0 -0.46882728669E+02 -0.53081922874E+02  0.29629364923E+03  0.30466880339E+03  0.41800000000E+01 0.  1.
         -5    1    3    3    0  502  0.63333637911E+02 -0.11866804904E+02  0.50252563801E+03  0.50665714246E+03  0.41800000000E+01 0.  1.
        -11    1    1    2    0    0 -0.57041670990E+02  0.42151606625E+02  0.34912298902E+02  0.79053012498E+02  0.00000000000E+00 0.  1.
         11    1    1    2    0    0  0.40590761747E+02  0.22797121152E+02  0.25528736393E+02  0.53094585919E+02  0.00000000000E+00 0. -1.
</event>
<event>
 7    1  0.3151015E-009  0.3189935E+03  0.7561462E-02  0.1076113E+00
         -2   -1    0    0    0  501 -0.00000000000E+00  0.00000000000E+00  0.31829734803E+02  0.31829734803E+02  0.00000000000E+00 0. -1.
          2   -1    0    0  501    0  0.00000000000E+00 -0.00000000000E+00 -0.32848412710E+04  0.32848412710E+04  0.00000000000E+00 0.  1.
         25    2    1    2    0    0  0.82165446358E+02 -0.28773291770E+03 -0.18821077942E+04  0.19098472931E+04  0.12508213849E+03 0.  0.
          5    1    3    3  502    0  0.12120062343E+02 -0.23610933288E+03 -0.14311569266E+04  0.14505592487E+04  0.41800000000E+01 0.  1.
         -5    1    3    3    0  502  0.70045384015E+02 -0.51623584822E+02 -0.45095086765E+03  0.45928804444E+03  0.41800000000E+01 0.  1.
        -11    1    1    2    0    0 -0.21977820412E+02  0.22989406483E+03 -0.94430439587E+03  0.97213430023E+03  0.00000000000E+00 0. -1.
         11    1    1    2    0    0 -0.60187625946E+02  0.57838852874E+02 -0.42659934607E+03  0.43468941243E+03  0.00000000000E+00 0.  1.
</event>
<event>
 7    1  0.3151015E-009  0.1460663E+03  0.7561462E-02  0.1205392E+00
         -1   -1    0    0    0  501 -0.00000000000E+00  0.00000000000E+00  0.62978872646E+02  0.62978872646E+02  0.00000000000E+00 0.  1.
          1   -1    0    0  501    0  0.00000000000E+00 -0.00000000000E+00 -0.37278622873E+03  0.37278622873E+03  0.00000000000E+00 0. -1.
         25    2    1    2    0    0  0.85799497064E+02  0.58314597624E+02 -0.20569970521E+03  0.26214957334E+03  0.12509150285E+03 0.  0.
          5    1    3    3  502    0  0.10840278115E+03  0.74966727241E+02 -0.15062875319E+03  0.20019407295E+03  0.41800000000E+01 0. -1.
         -5    1    3    3    0  502 -0.22603284090E+02 -0.16652129616E+02 -0.55070952021E+02  0.61955500393E+02  0.41800000000E+01 0. -1.
        -11    1    1    2    0    0 -0.88505899722E+02 -0.16562354805E+02 -0.94812563725E+02  0.13075560455E+03  0.00000000000E+00 0. -1.
         11    1    1    2    0    0  0.27064026575E+01 -0.41752242819E+02 -0.92950871455E+01  0.42859923481E+02  0.00000000000E+00 0.  1.
</event>
<event>
 7    1  0.3151015E-009  0.1465196E+03  0.7561462E-02  0.1204816E+00
          3   -1    0    0  501    0  0.00000000000E+00  0.00000000000E+00  0.11322521020E+03  0.11322521020E+03  0.00000000000E+00 0. -1.
         -3   -1    0    0    0  501 -0.00000000000E+00 -0.00000000000E+00 -0.21451065388E+03  0.21451065388E+03  0.00000000000E+00 0.  1.
         25    2    1    2    0    0 -0.10211455494E+03 -0.64742777738E+01 -0.51422560029E+01  0.16168447493E+03  0.12508448358E+03 0.  0.
          5    1    3    3  502    0 -0.54909589803E+02 -0.63761651515E+02  0.12761518950E+02  0.85211149635E+02  0.41800000000E+01 0. -1.
         -5    1    3    3    0  502 -0.47204965134E+02  0.57287373741E+02 -0.17903774953E+02  0.76473325290E+02  0.41800000000E+01 0. -1.
        -11    1    1    2    0    0  0.56476225123E+02  0.46947613237E+02 -0.42703842342E+02  0.84954461587E+02  0.00000000000E+00 0.  1.
         11    1    1    2    0    0  0.45638329814E+02 -0.40473335463E+02 -0.53439345334E+02  0.81096927571E+02  0.00000000000E+00 0. -1.
</event>
<event>
 7    1  0.3151015E-009  0.1623080E+03  0.7561462E-02  0.1186115E+00
          2   -1    0    0  501    0  0.00000000000E+00  0.00000000000E+00  0.12575618175E+04  0.12575618175E+04  0.00000000000E+00 0.  1.
         -2   -1    0    0    0  501 -0.00000000000E+00 -0.00000000000E+00 -0.33406797265E+02  0.33406797265E+02  0.00000000000E+00 0. -1.
         25    2    1    2    0    0 -0.30876125409E+02 -0.13797230931E+03  0.95235779522E+03  0.97088727796E+03  0.12508814149E+03 0.  0.
          5    1    3    3  502    0 -0.63751073884E+02 -0.35240227657E+02  0.25531912453E+03  0.26553982906E+03  0.41800000000E+01 0.  1.
         -5    1    3    3    0  502  0.32874948475E+02 -0.10273208165E+03  0.69703867069E+03  0.70534744890E+03  0.41800000000E+01 0.  1.
        -11    1    1    2    0    0  0.10413196855E+02  0.10028414500E+03  0.25467166243E+03  0.27390326769E+03  0.00000000000E+00 0.  1.
         11    1    1    2    0    0  0.20462928554E+02  0.37688164310E+02  0.17125562604E+02  0.46178069130E+02  0.00000000000E+00 0. -1.
</event>
<event>
 7    1  0.3151015E-009  0.2885212E+03  0.7561462E-02  0.1091124E+00
         -2   -1    0    0    0  501 -0.00000000000E+00  0.00000000000E+00  0.55324801765E+02  0.55324801765E+02  0.00000000000E+00 0.  1.
          2   -1    0    0  501    0  0.00000000000E+00 -0.00000000000E+00 -0.17618034773E+04  0.17618034773E+04  0.00000000000E+00 0. -1.
         25    2    1    2    0    0 -0.15720401412E+03  0.23406561219E+03 -0.11001032220E+04  0.11425258717E+04  0.12505381073E+03 0.  0.
          5    1    3    3  502    0 -0.15496851784E+03  0.24081312389E+03 -0.10969114866E+04  0.11336835907E+04  0.41800000000E+01 0. -1.
         -5    1    3    3    0  502 -0.22354962770E+01 -0.67475117074E+01 -0.31917354791E+01  0.88422809961E+01  0.41800000000E+01 0. -1.
        -11    1    1    2    0    0  0.54493462310E+02 -0.94927663053E+02 -0.14354007640E+03  0.18051191700E+03  0.00000000000E+00 0.  1.
         11    1    1    2    0    0  0.10271055181E+03 -0.13913794913E+03 -0.46283537713E+03  0.49409049037E+03  0.00000000000E+00 0. -1.
</event>
<event>
 7    1  0.3151015E-009  0.5436927E+02  0.7561462E-02  0.1423105E+00
         -1   -1    0    0    0  501 -0.00000000000E+00  0.00000000000E+00  0.21548143931E+03  0.21548143931E+03  0.00000000000E+00 0.  1.
          1   -1    0    0  501    0  0.00000000000E+00 -0.00000000000E+00 -0.64053765465E+02  0.64053765465E+02  0.00000000000E+00 0. -1.
         25    2    1    2    0    0  0.23852147732E+02 -0.37462905503E+02  0.76956454360E+02  0.15343497138E+03  0.12509036867E+03 0.  0.
          5    1    3    3  502    0 -0.12831774322E+02 -0.46104111576E+01  0.98496469903E+02  0.99523551517E+02  0.41800000000E+01 0. -1.
         -5    1    3    3    0  502  0.36683922054E+02 -0.32852494346E+02 -0.21540015543E+02  0.53911419862E+02  0.41800000000E+01 0. -1.
        -11    1    1    2    0    0 -0.62968234151E+01  0.16806403459E+02  0.92054970324E+02  0.93788180192E+02  0.00000000000E+00 0.  1.
         11    1    1    2    0    0 -0.17555324317E+02  0.20656502044E+02 -0.17583750839E+02  0.32312053203E+02  0.00000000000E+00 0. -1.
</event>
<event>
 7    1  0.3151015E-009  0.7690382E+02  0.7561462E-02  0.1338075E+00
         -2   -1    0    0    0  501 -0.00000000000E+00  0.00000000000E+00  0.36561097706E+02  0.36561097706E+02  0.00000000000E+00 0.  1.
          2   -1    0    0  501    0  0.00000000000E+00 -0.00000000000E+00 -0.45568914196E+03  0.45568914196E+03  0.00000000000E+00 0. -1.
         25    2    1    2    0    0  0.57413159971E+02 -0.97488673111E+01 -0.16583296911E+03  0.21572803352E+03  0.12508676769E+03 0.  0.
          5    1    3    3  502    0  0.12132122259E+02 -0.41763937273E+01  0.20113448432E+02  0.24220938523E+02  0.41800000000E+01 0. -1.
         -5    1    3    3    0  502  0.45281037712E+02 -0.55724735839E+01 -0.18594641754E+03  0.19150709500E+03  0.41800000000E+01 0. -1.
        -11    1    1    2    0    0 -0.48282763001E+02  0.40125873165E+02 -0.87334202721E+02  0.10755730503E+03  0.00000000000E+00 0.  1.
         11    1    1    2    0    0 -0.91303969703E+01 -0.30377005853E+02 -0.16596087242E+03  0.16896490111E+03  0.00000000000E+00 0. -1.
</event>
<event>
 7    1  0.3151015E-009  0.1134816E+03  0.7561462E-02  0.1254255E+00
         -2   -1    0    0    0  501 -0.00000000000E+00  0.00000000000E+00  0.41125251483E+02  0.41125251483E+02  0.00000000000E+00 0.  1.
          2   -1    0    0  501    0  0.00000000000E+00 -0.00000000000E+00 -0.41461544276E+03  0.41461544276E+03  0.00000000000E+00 0. -1.
         25    2    1    2    0    0 -0.59909520632E+02 -0.10917297505E+02 -0.13913282776E+03  0.19673475585E+03  0.12505311813E+03 0.  0.
          5    1    3    3  502    0 -0.29749681628E+02  0.53497263322E+02 -0.94467620878E+02  0.11264370615E+03  0.41800000000E+01 0.  1.
         -5    1    3    3    0  502 -0.30159839004E+02 -0.64414560827E+02 -0.44665206881E+02  0.84091049708E+02  0.41800000000E+01 0.  1.
        -11    1    1    2    0    0  0.39446670039E+02 -0.29365790292E+02 -0.18778721320E+03  0.19411961998E+03  0.00000000000E+00 0. -1.
         11    1    1    2    0    0  0.20462850593E+02  0.40283087797E+02 -0.46570150310E+02  0.64886318409E+02  0.00000000000E+00 0.  1.
</event>
<event>
 7    1  0.3151015E-009  0.2435382E+03  0.7561462E-02  0.1117458E+00
         -2   -1    0    0    0  501 -0.00000000000E+00  0.00000000000E+00  0.12793120385E+03  0.12793120385E+03  0.00000000000E+00 0.  1.
          2   -1    0    0  501    0  0.00000000000E+00 -0.00000000000E+00 -0.61933617869E+03  0.61933617869E+03  0.00000000000E+00 0. -1.
         25    2    1    2    0    0 -0.22892332414E+03  0.28538311392E+00 -0.89511430402E+02  0.27580406160E+03  0.12509841904E+03 0.  0.
          5    1    3    3  502    0 -0.19713513744E+03  0.27803848395E+02 -0.11144889419E+03  0.22819650482E+03  0.41800000000E+01 0. -1.
         -5    1    3    3    0  502 -0.31788186697E+02 -0.27518465281E+02  0.21937463783E+02  0.47607556776E+02  0.41800000000E+01 0. -1.
        -11    1    1    2    0    0  0.21321701060E+03  0.26282843148E+02 -0.36306073074E+03  0.42185942642E+03  0.00000000000E+00 0.  1.
         11    1    1    2    0    0  0.15706313533E+02 -0.26568226262E+02 -0.38832813702E+02  0.49603894519E+02  0.00000000000E+00 0. -1.
</event>
<event>
 7    1  0.3151015E-009  0.1987982E+03  0.7561462E-02  0.1150757E+00
          1   -1    0    0  501    0  0.00000000000E+00  0.00000000000E+00  0.47306668869E+03  0.47306668869E+03  0.00000000000E+00 0. -1.
         -1   -1    0    0    0  501 -0.00000000000E+00 -0.00000000000E+00 -0.10837452112E+03  0.10837452112E+03  0.00000000000E+00 0.  1.
         25    2    1    2    0    0  0.14890017748E+03 -0.96026827759E+02  0.72980322968E+02  0.22883659210E+03  0.12509054257E+03 0.  0.
          5    1    3    3  502    0  0.23934512140E+01  0.25577234562E+02  0.13497413609E+02  0.29318528454E+02  0.41800000000E+01 0. -1.
         -5    1    3    3    0  502  0.14650672627E+03 -0.12160406232E+03  0.59482909359E+02  0.19951806365E+03  0.41800000000E+01 0. -1.
        -11    1    1    2    0    0 -0.67732708897E+02  0.66028714097E+02  0.79979065781E+02  0.12387155405E+03  0.00000000000E+00 0.  1.
         11    1    1    2    0    0 -0.81167468587E+02  0.29998113662E+02  0.21173277882E+03  0.22873306365E+03  0.00000000000E+00 0. -1.
</event>
<event>
 7    1  0.3151015E-009  0.1191392E+03  0.7561462E-02  0.1244524E+00
          2   -1    0    0  501    0  0.00000000000E+00  0.00000000000E+00  0.36204476800E+03  0.36204476800E+03  0.00000000000E+00 0. -1.
         -2   -1    0    0    0  501 -0.00000000000E+00 -0.00000000000E+00 -0.68401394352E+02  0.68401394352E+02  0.00000000000E+00 0.  1.
         25    2    1    2    0    0 -0.86936775881E+02 -0.68002490743E+02  0.18818880471E+03  0.25148563660E+03  0.12509059696E+03 0.  0.
          5    1    3    3  502    0 -0.39248722342E+02 -0.75971417503E+01  0.16669200876E+03  0.17146975521E+03  0.41800000000E+01 0.  1.
         -5    1    3    3    0  502 -0.47688053540E+02 -0.60405348993E+02  0.21496795953E+02  0.80015881383E+02  0.41800000000E+01 0.  1.
        -11    1    1    2    0    0  0.71502938010E+02  0.75383810399E+02  0.11838682428E+03  0.15751453640E+03  0.00000000000E+00 0. -1.
         11    1    1    2    0    0  0.15433837871E+02 -0.73813196558E+01 -0.12932255343E+02  0.21445989358E+02  0.00000000000E+00 0.  1.
</event>
<event>
 7    1  0.3151015E-009  0.1741018E+03  0.7561462E-02  0.1173637E+00
          4   -1    0    0  501    0  0.00000000000E+00  0.00000000000E+00  0.13901170012E+03  0.13901170012E+03  0.00000000000E+00 0. -1.
         -4   -1    0    0    0  501 -0.00000000000E+00 -0.00000000000E+00 -0.30639202257E+03  0.30639202257E+03  0.00000000000E+00 0.  1.
         25    2    1    2    0    0 -0.11848723864E+03  0.87228668039E+02  0.15690266081E+02  0.19375612770E+03  0.12508871381E+03 0.  0.
          5    1    3    3  502    0 -0.52369782190E+02 -0.20466853942E+02  0.34235587858E+02  0.65962368612E+02  0.41800000000E+01 0. -1.
         -5    1    3    3    0  502 -0.66117456453E+02  0.10769552198E+03 -0.18545321777E+02  0.12779375909E+03  0.41800000000E+01 0. -1.
        -11    1    1    2    0    0  0.97222632986E+02 -0.26109237647E+02 -0.14515158078E+03  0.17664346593E+03  0.00000000000E+00 0.  1.
         11    1    1    2    0    0  0.21264605657E+02 -0.61119430392E+02 -0.37919007757E+02  0.75004129050E+02  0.00000000000E+00 0. -1.
</event>
<event>
 7    1  0.3151015E-009  0.1013836E+03  0.7561462E-02  0.1277413E+00
          1   -1    0    0  501    0  0.00000000000E+00  0.00000000000E+00  0.69219496456E+03  0.69219496456E+03  0.00000000000E+00 0. -1.
         -1   -1    0    0    0  501 -0.00000000000E+00 -0.00000000000E+00 -0.33129772901E+02  0.33129772901E+02  0.00000000000E+00 0.  1.
         25    2    1    2    0    0 -0.53157318287E+02  0.46486431114E+02  0.16945827532E+03  0.22214508669E+03  0.12508254754E+03 0.  0.
          5    1    3    3  502    0 -0.21359306874E+02 -0.93482349280E+01 -0.14137485521E+02  0.27585329131E+02  0.41800000000E+01 0.  1.
         -5    1    3    3    0  502 -0.31798011413E+02  0.55834666042E+02  0.18359576084E+03  0.19455975756E+03  0.41800000000E+01 0.  1.
        -11    1    1    2    0    0  0.75687470905E+02 -0.16986104080E+02  0.36548785250E+03  0.37362881488E+03  0.00000000000E+00 0. -1.
         11    1    1    2    0    0 -0.22530152618E+02 -0.29500327034E+02  0.12411906384E+03  0.12955083589E+03  0.00000000000E+00 0.  1.
</event>
<event>
 7    1  0.3151015E-009  0.1471457E+03  0.7561462E-02  0.1204025E+00
         -2   -1    0    0    0  501 -0.00000000000E+00  0.00000000000E+00  0.24932815210E+02  0.24932815210E+02  0.00000000000E+00 0.  1.
          2   -1    0    0  501    0  0.00000000000E+00 -0.00000000000E+00 -0.13342290176E+04  0.13342290176E+04  0.00000000000E+00 0. -1.
         25    2    1    2    0    0  0.97761294429E+02  0.53849172866E+02 -0.10396611679E+04  0.10530909830E+04  0.12509304638E+03 0.  0.
          5    1    3    3  502    0  0.21285964271E+02 -0.29621205197E+02 -0.98205644319E+02  0.10484430861E+03  0.41800000000E+01 0. -1.
         -5    1    3    3    0  502  0.76475330158E+02  0.83470378064E+02 -0.94145552360E+03  0.94824667437E+03  0.41800000000E+01 0. -1.
        -11    1    1    2    0    0 -0.82963199239E+02  0.54817155449E+01 -0.16825869743E+03  0.18768039560E+03  0.00000000000E+00 0. -1.
         11    1    1    2    0    0 -0.14798095190E+02 -0.59330888411E+02 -0.10137633708E+03  0.11839045427E+03  0.00000000000E+00 0.  1.
</event>
<event>
 7    1  0.3151015E-009  0.1034593E+03  0.7561462E-02  0.1273185E+00
         -1   -1    0    0    0  501 -0.00000000000E+00  0.00000000000E+00  0.75370868319E+02  0.75370868319E+02  0.00000000000E+00 0.  1.
          1   -1    0    0  501    0  0.00000000000E+00 -0.00000000000E+00 -0.19363495541E+03  0.19363495541E+03  0.00000000000E+00 0. -1.
         25    2    1    2    0    0 -0.45593189676E+02 -0.70234459464E+01 -0.98048421977E+02  0.16549494465E+03  0.12508803266E+03 0.  0.
          5    1    3    3  502    0 -0.79836429591E+02 -0.47078372800E+01 -0.10310383705E+03  0.13055226094E+03  0.41800000000E+01 0.  1.
         -5    1    3    3    0  502  0.34243239915E+02 -0.23156086663E+01  0.50554150733E+01  0.34942683711E+02  0.41800000000E+01 0.  1.
        -11    1    1    2    0    0  0.12779284424E+02  0.42236263046E+02  0.11831701253E+02  0.45685896960E+02  0.00000000000E+00 0.  1.
         11    1    1    2    0    0  0.32813905252E+02 -0.35212817100E+02 -0.32047366365E+02  0.57824982118E+02  0.00000000000E+00 0. -1.
</event>
<event>
 7    1  0.3151015E-009  0.7721302E+02  0.7561462E-02  0.1337152E+00
          1   -1    0    0  501    0  0.00000000000E+00  0.00000000000E+00  0.77794298924E+02  0.77794298924E+02  0.00000000000E+00 0. -1.
         -1   -1    0    0    0  501 -0.00000000000E+00 -0.00000000000E+00 -0.15319237257E+03  0.15319237257E+03  0.00000000000E+00 0.  1.
         25    2    1    2    0    0  0.77541434170E+01  0.62029964027E+01 -0.36224678671E+02  0.13060777139E+03  0.12509020225E+03 0.  0.
          5    1    3    3  502    0 -0.38514510089E+02  0.26822616904E+02 -0.58497112941E+02  0.75114611677E+02  0.41800000000E+01 0. -1.
         -5    1    3    3    0  502  0.46268653506E+02 -0.20619620502E+02  0.22272434271E+02  0.55493159716E+02  0.41800000000E+01 0. -1.
        -11    1    1    2    0    0 -0.29487772661E+01 -0.31040643547E+02 -0.59995167275E+02  0.67613881234E+02  0.00000000000E+00 0.  1.
         11    1    1    2    0    0 -0.48053661509E+01  0.24837647144E+02  0.20821772302E+02  0.32765018866E+02  0.00000000000E+00 0. -1.
</event>
<event>
 7    1  0.3151015E-009  0.1218842E+03  0.7561462E-02  0.1240021E+00
          2   -1    0    0  501    0  0.00000000000E+00  0.00000000000E+00  0.16246876377E+03  0.16246876377E+03  0.00000000000E+00 0. -1.
         -2   -1    0    0    0  501 -0.00000000000E+00 -0.00000000000E+00 -0.15834692403E+03  0.15834692403E+03  0.00000000000E+00 0.  1.
         25    2    1    2    0    0 -0.10584110520E+03 -0.38227093004E+02  0.36007761875E+02  0.17206913329E+03  0.12509027752E+03 0.  0.
          5    1    3    3  502    0 -0.69044429669E+02 -0.54165337551E+02 -0.31589460867E+02  0.93361573992E+02  0.41800000000E+01 0.  1.
         -5    1    3    3    0  502 -0.36796675527E+02  0.15938244547E+02  0.67597222742E+02  0.78707559303E+02  0.41800000000E+01 0.  1.
        -11    1    1    2    0    0  0.35418205808E+02 -0.10141504993E+00  0.30827652774E+02  0.46955337963E+02  0.00000000000E+00 0. -1.
         11    1    1    2    0    0  0.70422899388E+02  0.38328508054E+02 -0.62713574910E+02  0.10179121655E+03  0.00000000000E+00 0.  1.
</event>
<event>
 7    1  0.3151015E-009  0.1087318E+03  0.7561462E-02  0.1262937E+00
         -1   -1    0    0    0  501 -0.00000000000E+00  0.00000000000E+00  0.57627113542E+02  0.57627113542E+02  0.00000000000E+00 0.  1.
          1   -1    0    0  501    0  0.00000000000E+00 -0.00000000000E+00 -0.21226277136E+03  0.21226277136E+03  0.00000000000E+00 0. -1.
         25    2    1    2    0    0 -0.14267209593E+02  0.12756092227E+01 -0.66734010468E+02  0.14249570586E+03  0.12508564101E+03 0.  0.
          5    1    3    3  502    0 -0.39119103052E+02  0.54096710578E+02 -0.29318365060E+02  0.73032850477E+02  0.41800000000E+01 0.  1.
         -5    1    3    3    0  502  0.24851893459E+02 -0.52821101356E+02 -0.37415645408E+02  0.69462855385E+02  0.41800000000E+01 0.  1.
        -11    1    1    2    0    0 -0.11373743409E+02  0.41031302502E+02 -0.36926846348E+02  0.56360640569E+02  0.00000000000E+00 0.  1.
         11    1    1    2    0    0  0.25640953001E+02 -0.42306911725E+02 -0.50974800998E+02  0.71033538469E+02  0.00000000000E+00 0. -1.
</event>
<event>
 7    1  0.3151015E-009  0.1094238E+03  0.7561462E-02  0.1261641E+00
         -1   -1    0    0    0  501 -0.00000000000E+00  0.00000000000E+00  0.11677720711E+03  0.11677720711E+03  0.00000000000E+00 0.  1.
          1   -1    0    0  501    0  0.00000000000E+00 -0.00000000000E+00 -0.10747012486E+03  0.10747012486E+03  0.00000000000E+00 0. -1.
         25    2    1    2    0    0 -0.22196208516E+02  0.58119324568E+01  0.22473178235E+02  0.12914560189E+03  0.12508833885E+03 0.  0.
          5    1    3    3  502    0 -0.51395073525E+02 -0.44559656476E+02  0.18608536392E+02  0.70645357912E+02  0.41800000000E+01 0. -1.
         -5    1    3    3    0  502  0.29198865009E+02  0.50371588932E+02  0.38646418431E+01  0.58500243982E+02  0.41800000000E+01 0. -1.
        -11    1    1    2    0    0 -0.34482197843E+02 -0.87335966753E+01 -0.14297287678E+02  0.38336798431E+02  0.00000000000E+00 0. -1.
         11    1    1    2    0    0  0.56678406360E+02  0.29216642185E+01  0.11311916961E+01  0.56764931639E+02  0.00000000000E+00 0.  1.
</event>
<event>
 7    1  0.3151015E-009  0.1445466E+03  0.7561462E-02  0.1207339E+00
         -2   -1    0    0    0  501 -0.00000000000E+00  0.00000000000E+00  0.18022951297E+03  0.18022951297E+03  0.00000000000E+00 0.  1.
          2   -1    0    0  501    0  0.00000000000E+00 -0.00000000000E+00 -0.16975132984E+03  0.16975132984E+03  0.00000000000E+00 0. -1.
         25    2    1    2    0    0  0.54708335938E+02 -0.95782081743E+02  0.86877740428E+02  0.18803294678E+03  0.12506573507E+03 0.  0.
          5    1    3    3  502    0 -0.27979128697E+02 -0.20061939509E+02  0.65070959637E+02  0.73736119016E+02  0.41800000000E+01 0.  1.
         -5    1    3    3    0  502  0.82687464635E+02 -0.75720142235E+02  0.21806780791E+02  0.11429682776E+03  0.41800000000E+01 0.  1.
        -11    1    1    2    0    0 -0.78536132827E+02  0.85980056673E+02 -0.67991016157E+02  0.13484536545E+03  0.00000000000E+00 0.  1.
         11    1    1    2    0    0  0.23827796889E+02  0.98020250701E+01 -0.84085411413E+01  0.27102530586E+02  0.00000000000E+00 0. -1.
</event>
<event>
 7    1  0.3151015E-009  0.8369804E+02  0.7561462E-02  0.1318873E+00
         -1   -1    0    0    0  501 -0.00000000000E+00  0.00000000000E+00  0.34961056963E+02  0.34961056963E+02  0.00000000000E+00 0.  1.
          1   -1    0    0  501    0  0.00000000000E+00 -0.00000000000E+00 -0.35338016454E+03  0.35338016454E+03  0.00000000000E+00 0. -1.
         25    2    1    2    0    0 -0.19696659634E+02  0.20711694483E+02 -0.19138699861E+03  0.23042046613E+03  0.12509066826E+03 0.  0.
          5    1    3    3  502    0 -0.27962684824E+01 -0.35579048302E+02 -0.66867838992E+01  0.36549600195E+02  0.41800000000E+01 0.  1.
         -5    1    3    3    0  502 -0.16900391152E+02  0.56290742785E+02 -0.18470021471E+03  0.19387086593E+03  0.41800000000E+01 0.  1.
        -11    1    1    2    0    0  0.29702297114E+02  0.16521266860E+02 -0.11113345310E+02  0.35758707422E+02  0.00000000000E+00 0.  1.
         11    1    1    2    0    0 -0.10005637479E+02 -0.37232961343E+02 -0.11591876366E+03  0.12216204795E+03  0.00000000000E+00 0. -1.
</event>
<event>
 7    1  0.3151015E-009  0.1388382E+03  0.7561462E-02  0.1214901E+00
         -1   -1    0    0    0  501 -0.00000000000E+00  0.00000000000E+00  0.10835136181E+03  0.10835136181E+03  0.00000000000E+00 0.  1.
          1   -1    0    0  501    0  0.00000000000E+00 -0.00000000000E+00 -0.21815076198E+03  0.21815076198E+03  0.00000000000E+00 0. -1.
         25    2    1    2    0    0 -0.61374525347E+02  0.74433089530E+02 -0.95891185054E+01  0.15826255556E+03  0.12509183874E+03 0.  0.
          5    1    3    3  502    0  0.26999188813E+02  0.46226422788E+02 -0.32303935114E+02  0.62664623068E+02  0.41800000000E+01 0.  1.
         -5    1    3    3    0  502 -0.88373714160E+02  0.28206666742E+02  0.22714816609E+02  0.95597932492E+02  0.41800000000E+01 0.  1.
        -11    1    1    2    0    0  0.45303863334E+02 -0.94863466347E+02 -0.95078464507E+02  0.14174424748E+03  0.00000000000E+00 0.  1.
         11    1    1    2    0    0  0.16070662012E+02  0.20430376817E+02 -0.51318171600E+01  0.26495320752E+02  0.00000000000E+00 0. -1.
</event>
<event>
 7    1  0.3151015E-009  0.8491179E+02  0.7561462E-02  0.1315663E+00
          1   -1    0    0  501    0  0.00000000000E+00  0.00000000000E+00  0.15027186998E+02  0.15027186998E+02  0.00000000000E+00 0. -1.
         -1   -1    0    0    0  501 -0.00000000000E+00 -0.00000000000E+00 -0.10085737500E+04  0.10085737500E+04  0.00000000000E+00 0.  1.
         25    2    1    2    0    0  0.57620604667E+02 -0.55709689874E+01 -0.62886603624E+03  0.64379415474E+03  0.12508897780E+03 0.  0.
          5    1    3    3  502    0  0.62245663989E+02 -0.13870785379E+02 -0.63010718415E+03  0.63333992239E+03  0.41800000000E+01 0.  1.
         -5    1    3    3    0  502 -0.46250593222E+01  0.82998163912E+01  0.12411479156E+01  0.10454232349E+02  0.41800000000E+01 0.  1.
        -11    1    1    2    0    0 -0.15791152224E+01  0.33071134408E+02 -0.57530987579E+02  0.66377767873E+02  0.00000000000E+00 0. -1.
         11    1    1    2    0    0 -0.56041489444E+02 -0.27500165420E+02 -0.30714953923E+03  0.31342901443E+03  0.00000000000E+00 0.  1.
</event>
<event>
 7    1  0.3151015E-009  0.1311196E+03  0.7561462E-02  0.1225804E+00
         -2   -1    0    0    0  501 -0.00000000000E+00  0.00000000000E+00  0.62593585431E+02  0.62593585431E+02  0.00000000000E+00 0.  1.
          2   -1    0    0  501    0  0.00000000000E+00 -0.00000000000E+00 -0.29508742586E+03  0.29508742586E+03  0.00000000000E+00 0. -1.
         25    2    1    2    0    0  0.81542171427E+02  0.92995160647E+01 -0.16166566646E+03  0.22027115470E+03  0.12509191485E+03 0.  0.
          5    1    3    3  502    0  0.92646100324E+02 -0.36677474837E+02 -0.90202616794E+02  0.13447126660E+03  0.41800000000E+01 0. -1.
         -5    1    3    3    0  502 -0.11103928897E+02  0.45976990902E+02 -0.71463049668E+02  0.85799888095E+02  0.41800000000E+01 0. -1.
        -11    1    1    2    0    0 -0.48579659423E+01 -0.34090088632E+02 -0.35366576949E+02  0.49361206844E+02  0.00000000000E+00 0.  1.
         11    1    1    2    0    0 -0.76684205485E+02  0.24790572567E+02 -0.35461597017E+02  0.88048649746E+02  0.00000000000E+00 0. -1.
</event>
<event>
 7    1  0.3151015E-009  0.2361653E+03  0.7561462E-02  0.1122374E+00
         -3   -1    0    0    0  501 -0.00000000000E+00  0.00000000000E+00  0.13052066456E+03  0.13052066456E+03  0.00000000000E+00 0.  1.
          3   -1    0    0  501    0  0.00000000000E+00 -0.00000000000E+00 -0.56059159504E+03  0.56059159504E+03  0.00000000000E+00 0. -1.
         25    2    1    2    0    0  0.21656352770E+03 -0.42790977763E+02 -0.36306784045E+03  0.44294073823E+03  0.12508961391E+03 0.  0.
          5    1    3    3  502    0  0.12141131065E+03  0.14319710262E+02 -0.27576918461E+03  0.30168174628E+03  0.41800000000E+01 0.  1.
         -5    1    3    3    0  502  0.95152217056E+02 -0.57110688025E+02 -0.87298655839E+02  0.14125899196E+03  0.41800000000E+01 0.  1.
        -11    1    1    2    0    0 -0.16784957635E+03 -0.86928441053E+01 -0.46532795071E+02  0.17439709526E+03  0.00000000000E+00 0.  1.
         11    1    1    2    0    0 -0.48713951352E+02  0.51483821868E+02 -0.20470294958E+02  0.73774426099E+02  0.00000000000E+00 0. -1.
</event>
<event>
 7    1  0.3151015E-009  0.1028956E+03  0.7561462E-02  0.1274322E+00
          1   -1    0    0  501    0  0.00000000000E+00  0.00000000000E+00  0.27082386043E+03  0.27082386043E+03  0.00000000000E+00 0. -1.
         -1   -1    0    0    0  501 -0.00000000000E+00 -0.00000000000E+00 -0.64064299975E+02  0.64064299975E+02  0.00000000000E+00 0.  1.
         25    2    1    2    0    0 -0.19303191814E+02  0.55817797566E+02  0.58848970833E+02  0.15032927755E+03  0.12508977009E+03 0.  0.
          5    1    3    3  502    0 -0.46572862868E+02  0.96210906748E+01  0.79469145293E+02  0.92706064500E+02  0.41800000000E+01 0.  1.
         -5    1    3    3    0  502  0.27269671054E+02  0.46196706891E+02 -0.20620174460E+02  0.57623213046E+02  0.41800000000E+01 0.  1.
        -11    1    1    2    0    0 -0.29883024283E+02 -0.44778991864E+02  0.45791570714E+02  0.70675463925E+02  0.00000000000E+00 0.  1.
         11    1    1    2    0    0  0.49186216097E+02 -0.11038805702E+02  0.10211901890E+03  0.11388341893E+03  0.00000000000E+00 0. -1.
</event>
<event>
 7    1  0.3151015E-009  0.1829261E+03  0.7561462E-02  0.1165001E+00
          2   -1    0    0  501    0  0.00000000000E+00  0.00000000000E+00  0.32330657444E+03  0.32330657444E+03  0.00000000000E+00 0. -1.
         -2   -1    0    0    0  501 -0.00000000000E+00 -0.00000000000E+00 -0.30962056368E+03  0.30962056368E+03  0.00000000000E+00 0.  1.
         25    2    1    2    0    0  0.12531061813E+03  0.95135852542E+02  0.25893089540E+03  0.32778993667E+03  0.12508977790E+03 0.  0.
          5    1    3    3  502    0  0.11568114539E+03  0.11778148810E+03  0.17671366603E+03  0.24186731590E+03  0.41800000000E+01 0.  1.
         -5    1    3    3    0  502  0.96294727371E+01 -0.22645635558E+02  0.82217229372E+02  0.85922620773E+02  0.41800000000E+01 0.  1.
        -11    1    1    2    0    0  0.11230473623E+02 -0.74510021648E+01 -0.34051428781E+01  0.13900934108E+02  0.00000000000E+00 0. -1.
         11    1    1    2    0    0 -0.13654109175E+03 -0.87684850377E+02 -0.24183974176E+03  0.29123626735E+03  0.00000000000E+00 0.  1.
</event>
<event>
 7    1  0.3151015E-009  0.2286024E+03  0.7561462E-02  0.1127627E+00
          1   -1    0    0  501    0  0.00000000000E+00  0.00000000000E+00  0.53337263125E+03  0.53337263125E+03  0.00000000000E+00 0. -1.
         -1   -1    0    0    0  501 -0.00000000000E+00 -0.00000000000E+00 -0.10638090303E+03  0.10638090303E+03  0.00000000000E+00 0.  1.
         25    2    1    2    0    0  0.15143112200E+03 -0.14699731843E+03  0.19858528289E+03  0.31563313867E+03  0.12509423372E+03 0.  0.
          5    1    3    3  502    0  0.17285940044E+03 -0.13731889222E+03  0.18561684825E+03  0.28845786041E+03  0.41800000000E+01 0.  1.
         -5    1    3    3    0  502 -0.21428278447E+02 -0.96784262074E+01  0.12968434646E+02  0.27175278255E+02  0.41800000000E+01 0.  1.
        -11    1    1    2    0    0 -0.10671678931E+02  0.21220059531E+02 -0.46531602608E+01  0.24203874857E+02  0.00000000000E+00 0.  1.
         11    1    1    2    0    0 -0.14075944306E+03  0.12577725890E+03  0.23305960559E+03  0.29991652076E+03  0.00000000000E+00 0. -1.
</event>
<event>
 7    1  0.3151015E-009  0.1192599E+03  0.7561462E-02  0.1244323E+00
         -1   -1    0    0    0  501 -0.00000000000E+00  0.00000000000E+00  0.18253514700E+03  0.18253514700E+03  0.00000000000E+00 0.  1.
          1   -1    0    0  501    0  0.00000000000E+00 -0.00000000000E+00 -0.10891744856E+03  0.10891744856E+03  0.00000000000E+00 0. -1.
         25    2    1    2    0    0 -0.14877035259E+02  0.84691990039E+02  0.55234823631E+02  0.16153165306E+03  0.12509008691E+03 0.  0.
          5    1    3    3  502    0 -0.11874688388E+02  0.98398953071E+02  0.83522321065E+02  0.12967965417E+03  0.41800000000E+01 0. -1.
         -5    1    3    3    0  502 -0.30023468701E+01 -0.13706963032E+02 -0.28287497433E+02  0.31851998891E+02  0.41800000000E+01 0. -1.
        -11    1    1    2    0    0  0.43026360638E+02 -0.86353802094E+02  0.27436930654E+02  0.10030469585E+03  0.00000000000E+00 0.  1.
         11    1    1    2    0    0 -0.28149325379E+02  0.16618120548E+01 -0.90540558492E+01  0.29616246655E+02  0.00000000000E+00 0. -1.
</event>
<event>
 7    1  0.3151015E-009  0.1467967E+03  0.7561462E-02  0.1204465E+00
          1   -1    0    0  501    0  0.00000000000E+00  0.00000000000E+00  0.35172962309E+03  0.35172962309E+03  0.00000000000E+00 0. -1.
         -1   -1    0    0    0  501 -0.00000000000E+00 -0.00000000000E+00 -0.78547642898E+02  0.78547642898E+02  0.00000000000E+00 0.  1.
         25    2    1    2    0    0 -0.11295970317E+03 -0.37906502234E+02  0.95432604330E+02  0.19736129247E+03  0.12508916958E+03 0.  0.
          5    1    3    3  502    0 -0.38749933252E+02  0.35553368062E+02 -0.42683785947E+01  0.52927221383E+02  0.41800000000E+01 0. -1.
         -5    1    3    3    0  502 -0.74209769917E+02 -0.73459870296E+02  0.99700982925E+02  0.14443407109E+03  0.41800000000E+01 0. -1.
        -11    1    1    2    0    0  0.43509688951E+02 -0.18092120155E+02  0.18983871775E+02  0.50801626272E+02  0.00000000000E+00 0.  1.
         11    1    1    2    0    0  0.69450014218E+02  0.55998622389E+02  0.15876550409E+03  0.18211434724E+03  0.00000000000E+00 0. -1.
</event>
<event>
 7    1  0.3151015E-009  0.1066413E+03  0.7561462E-02  0.1266919E+00
          4   -1    0    0  501    0  0.00000000000E+00  0.00000000000E+00  0.33725753981E+02  0.33725753981E+02  0.00000000000E+00 0. -1.
         -4   -1    0    0    0  501 -0.00000000000E+00 -0.00000000000E+00 -0.38191218040E+03  0.38191218040E+03  0.00000000000E+00 0.  1.
         25    2    1    2    0    0 -0.31897402263E+02  0.57495690023E+01 -0.15874422985E+03  0.20468810397E+03  0.12508791940E+03 0.  0.
          5    1    3    3  502    0 -0.66233933188E+02 -0.30401992681E+02 -0.62011463891E+02  0.95781569827E+02  0.41800000000E+01 0. -1.
         -5    1    3    3    0  502  0.34336530925E+02  0.36151561683E+02 -0.96732765960E+02  0.10890653414E+03  0.41800000000E+01 0. -1.
        -11    1    1    2    0    0  0.22618251345E+02  0.38709793661E+02 -0.69598427557E+02  0.82788734364E+02  0.00000000000E+00 0.  1.
         11    1    1    2    0    0  0.92791509186E+01 -0.44459362663E+02 -0.11984376901E+03  0.12816109605E+03  0.00000000000E+00 0. -1.
</event>
<event>
 7    1  0.3151015E-009  0.1052352E+03  0.7561462E-02  0.1269657E+00
          2   -1    0    0  501    0  0.00000000000E+00  0.00000000000E+00  0.34429646801E+03  0.34429646801E+03  0.00000000000E+00 0. -1.
         -2   -1    0    0    0  501 -0.00000000000E+00 -0.00000000000E+00 -0.37591401331E+02  0.37591401331E+02  0.00000000000E+00 0.  1.
         25    2    1    2    0    0  0.13564356770E+02 -0.27980353072E+02  0.13812510474E+03  0.18892784666E+03  0.12509314431E+03 0.  0.
          5    1    3    3  502    0 -0.42152709007E+02  0.23508648149E+02  0.30719346942E+02  0.57364257957E+02  0.41800000000E+01 0. -1.
         -5    1    3    3    0  502  0.55717065777E+02 -0.51489001222E+02  0.10740575779E+03  0.13156358870E+03  0.41800000000E+01 0. -1.
        -11    1    1    2    0    0  0.19112750034E+02  0.45223947210E+02  0.13255949140E+03  0.14135954646E+03  0.00000000000E+00 0. -1.
         11    1    1    2    0    0 -0.32677106805E+02 -0.17243594138E+02  0.36020470543E+02  0.51600476219E+02  0.00000000000E+00 0.  1.
</event>
<event>
 7    1  0.3151015E-009  0.2764476E+03  0.7561462E-02  0.1097645E+00
         -3   -1    0    0    0  501 -0.00000000000E+00  0.00000000000E+00  0.23340974984E+03  0.23340974984E+03  0.00000000000E+00 0.  1.
          3   -1    0    0  501    0  0.00000000000E+00 -0.00000000000E+00 -0.67991505460E+03  0.67991505460E+03  0.00000000000E+00 0. -1.
         25    2    1    2    0    0  0.26834442052E+03  0.16206410826E+02 -0.53864760453E+03  0.61486516668E+03  0.12508619249E+03 0.  0.
          5    1    3    3  502    0  0.47381710951E+02  0.38811441025E+02 -0.20523065283E+03  0.21421589052E+03  0.41800000000E+01 0.  1.
         -5    1    3    3    0  502  0.22096270957E+03 -0.22605030199E+02 -0.33341695170E+03  0.40064927616E+03  0.41800000000E+01 0.  1.
        -11    1    1    2    0    0 -0.17438749380E+03 -0.18486173196E+02  0.10375671367E+03  0.20376013404E+03  0.00000000000E+00 0.  1.
         11    1    1    2    0    0 -0.93956926721E+02  0.22797623696E+01 -0.11614413894E+02  0.94699503723E+02  0.00000000000E+00 0. -1.
</event>
<event>
 7    1  0.3797055E-009  0.2131709E+03  0.7561462E-02  0.1139079E+00
         -2   -1    0    0    0  501 -0.00000000000E+00  0.00000000000E+00  0.67780535237E+02  0.67780535237E+02  0.00000000000E+00 0. -1.
          2   -1    0    0  501    0  0.00000000000E+00 -0.00000000000E+00 -0.74205615941E+03  0.74205615941E+03  0.00000000000E+00 0.  1.
         25    2    1    2    0    0  0.18944073095E+03 -0.45993937913E+02 -0.32106665306E+03  0.39589639088E+03  0.12508766422E+03 0.  0.
          5    1    3    3  502    0  0.19111564790E+03 -0.72406417609E+02 -0.29103456040E+03  0.35564936093E+03  0.41800000000E+01 0.  1.
         -5    1    3    3    0  502 -0.16749169477E+01  0.26412479696E+02 -0.30032092659E+02  0.40247029952E+02  0.41800000000E+01 0.  1.
        -11    1    1    2    0    0 -0.10393004020E+03  0.29629941451E+02 -0.10409353320E+03  0.15004949297E+03  0.00000000000E+00 0. -1.
         11    1    1    2    0    0 -0.85510690752E+02  0.16363996462E+02 -0.24911543792E+03  0.26389081080E+03  0.00000000000E+00 0.  1.
</event>
<event>
 7    1  0.3151015E-009  0.1033074E+03  0.7561462E-02  0.1273491E+00
         -1   -1    0    0    0  501 -0.00000000000E+00  0.00000000000E+00  0.42118386732E+02  0.42118386732E+02  0.00000000000E+00 0.  1.
          1   -1    0    0  501    0  0.00000000000E+00 -0.00000000000E+00 -0.43118715524E+03  0.43118715524E+03  0.00000000000E+00 0. -1.
         25    2    1    2    0    0  0.16294535764E+02  0.61063302860E+02 -0.13099046484E+03  0.19183379235E+03  0.12508982036E+03 0.  0.
          5    1    3    3  502    0 -0.16636737723E+01  0.73356254261E+02 -0.16637980206E+02  0.75353849503E+02  0.41800000000E+01 0.  1.
         -5    1    3    3    0  502  0.17958209536E+02 -0.12292951401E+02 -0.11435248463E+03  0.11647994285E+03  0.41800000000E+01 0.  1.
        -11    1    1    2    0    0 -0.18868194785E+01  0.24308342139E+02 -0.40123126637E+02  0.46950195702E+02  0.00000000000E+00 0.  1.
         11    1    1    2    0    0 -0.14407716285E+02 -0.85371644999E+02 -0.21795517703E+03  0.23452155392E+03  0.00000000000E+00 0. -1.
</event>
<event>
 7    1  0.3151015E-009  0.2757633E+03  0.7561462E-02  0.1098026E+00
          2   -1    0    0  501    0  0.00000000000E+00  0.00000000000E+00  0.16449934826E+04  0.16449934826E+04  0.00000000000E+00 0. -1.
         -2   -1    0    0    0  501 -0.00000000000E+00 -0.00000000000E+00 -0.52064223809E+02  0.52064223809E+02  0.00000000000E+00 0.  1.
         25    2    1    2    0    0 -0.27025507625E+03  0.25220926641E+02  0.77111651867E+03  0.82700818788E+03  0.12509179060E+03 0.  0.
          5    1    3    3  502    0 -0.11650094347E+03  0.17163855110E+02  0.17256465003E+03  0.20895716927E+03  0.41800000000E+01 0. -1.
         -5    1    3    3    0  502 -0.15375413279E+03  0.80570715309E+01  0.59855186864E+03  0.61805101861E+03  0.41800000000E+01 0. -1.
        -11    1    1    2    0    0  0.23708113831E+03 -0.44618670799E+02  0.75897240263E+03  0.79639023091E+03  0.00000000000E+00 0. -1.
         11    1    1    2    0    0  0.33173937946E+02  0.19397744159E+02  0.62840337498E+02  0.73659287630E+02  0.00000000000E+00 0.  1.
</event>
<event>
 7    1  0.3151015E-009  0.1067137E+03  0.7561462E-02  0.1266779E+00
         -1   -1    0    0    0  501 -0.00000000000E+00  0.00000000000E+00  0.36694916978E+02  0.36694916978E+02  0.00000000000E+00 0.  1.
          1   -1    0    0  501    0  0.00000000000E+00 -0.00000000000E+00 -0.43138294519E+03  0.43138294519E+03  0.00000000000E+00 0. -1.
         25    2    1    2    0    0  0.52055910407E+02  0.23141653741E+02 -0.26907083149E+03  0.30214665242E+03  0.12509249885E+03 0.  0.
          5    1    3    3  502    0 -0.26733282061E+02 -0.20304828965E+02 -0.14460232098E+03  0.14850676106E+03  0.41800000000E+01 0.  1.
         -5    1    3    3    0  502  0.78789192468E+02  0.43446482706E+02 -0.12446851051E+03  0.15363989136E+03  0.41800000000E+01 0.  1.
        -11    1    1    2    0    0 -0.49513108300E+02  0.14661583973E+02 -0.11579939632E+03  0.12679120682E+03  0.00000000000E+00 0. -1.
         11    1    1    2    0    0 -0.25428021069E+01 -0.37803237714E+02 -0.98178004049E+01  0.39140002926E+02  0.00000000000E+00 0.  1.
</event>
<event>
 7    1  0.3151015E-009  0.8397000E+02  0.7561462E-02  0.1318148E+00
         -2   -1    0    0    0  501 -0.00000000000E+00  0.00000000000E+00  0.44851226216E+02  0.44851226216E+02  0.00000000000E+00 0.  1.
          2   -1    0    0  501    0  0.00000000000E+00 -0.00000000000E+00 -0.26757088481E+03  0.26757088481E+03  0.00000000000E+00 0. -1.
         25    2    1    2    0    0  0.30272866337E+02 -0.19145645389E+02 -0.13378891187E+03  0.18663251968E+03  0.12509685163E+03 0.  0.
          5    1    3    3  502    0  0.46315191303E+02  0.34114831143E+02 -0.22053717897E+02  0.61747530497E+02  0.41800000000E+01 0.  1.
         -5    1    3    3    0  502 -0.16042324966E+02 -0.53260476532E+02 -0.11173519398E+03  0.12488498918E+03  0.41800000000E+01 0.  1.
        -11    1    1    2    0    0  0.56556688762E+01  0.17639667272E+02  0.96270788075E+01  0.20876424461E+02  0.00000000000E+00 0.  1.
         11    1    1    2    0    0 -0.35928535213E+02  0.15059781172E+01 -0.98557825532E+02  0.10491316689E+03  0.00000000000E+00 0. -1.
</event>
<event>
 7    1  0.3151015E-009  0.1053936E+03  0.7561462E-02  0.1269346E+00
         -1   -1    0    0    0  501 -0.00000000000E+00  0.00000000000E+00  0.15229987823E+02  0.15229987823E+02  0.00000000000E+00 0.  1.
          1   -1    0    0  501    0  0.00000000000E+00 -0.00000000000E+00 -0.84718891482E+03  0.84718891482E+03  0.00000000000E+00 0. -1.
         25    2    1    2    0    0 -0.30128444866E+02  0.19728098463E+02 -0.51266254374E+03  0.52893024984E+03  0.12508958542E+03 0.  0.
          5    1    3    3  502    0  0.27283133484E+02  0.51794175891E+02 -0.16621600035E+03  0.17627318911E+03  0.41800000000E+01 0. -1.
         -5    1    3    3    0  502 -0.57411578350E+02 -0.32066077429E+02 -0.34644654340E+03  0.35265706073E+03  0.41800000000E+01 0. -1.
        -11    1    1    2    0    0  0.35814424121E+02  0.23349756975E+02 -0.84441701536E+02  0.94648217543E+02  0.00000000000E+00 0.  1.
         11    1    1    2    0    0 -0.56859792545E+01 -0.43077855437E+02 -0.23485468172E+03  0.23884043526E+03  0.00000000000E+00 0. -1.
</event>
<event>
 7    1  0.3151015E-009  0.1065334E+03  0.7561462E-02  0.1267127E+00
         -2   -1    0    0    0  501 -0.00000000000E+00  0.00000000000E+00  0.88598777586E+02  0.88598777586E+02  0.00000000000E+00 0.  1.
          2   -1    0    0  501    0  0.00000000000E+00 -0.00000000000E+00 -0.23519495688E+03  0.23519495688E+03  0.00000000000E+00 0. -1.
         25    2    1    2    0    0 -0.37223986337E+02 -0.62307266649E+02 -0.12033549290E+02  0.14512154073E+03  0.12509050579E+03 0.  0.
          5    1    3    3  502    0 -0.54940308049E+02  0.15915628510E+02  0.16845124343E+02  0.59774369871E+02  0.41800000000E+01 0.  1.
         -5    1    3    3    0  502  0.17716321712E+02 -0.78222895158E+02 -0.28878673634E+02  0.85347170854E+02  0.41800000000E+01 0.  1.
        -11    1    1    2    0    0  0.58374131510E+01  0.29216616590E+02 -0.12938493295E+03  0.13277103205E+03  0.00000000000E+00 0. -1.
         11    1    1    2    0    0  0.31386573185E+02  0.33090650059E+02 -0.51776970533E+01  0.45901161689E+02  0.00000000000E+00 0.  1.
</event>
<event>
 7    1  0.3151015E-009  0.1086392E+03  0.7561462E-02  0.1263111E+00
          3   -1    0    0  501    0  0.00000000000E+00  0.00000000000E+00  0.21576559489E+03  0.21576559489E+03  0.00000000000E+00 0. -1.
         -3   -1    0    0    0  501 -0.00000000000E+00 -0.00000000000E+00 -0.67269838689E+02  0.67269838689E+02  0.00000000000E+00 0.  1.
         25    2    1    2    0    0  0.49751581246E+02 -0.19117456643E+02  0.75278347620E+02  0.15541910122E+03  0.12509024909E+03 0.  0.
          5    1    3    3  502    0 -0.30266930743E+02  0.86915790550E+01 -0.11775201225E+02  0.33878583307E+02  0.41800000000E+01 0. -1.
         -5    1    3    3    0  502  0.80018511988E+02 -0.27809035698E+02  0.87053548844E+02  0.12154051791E+03  0.41800000000E+01 0. -1.
        -11    1    1    2    0    0  0.22895259701E+02 -0.62742646183E+01  0.33377829724E+02  0.40958989616E+02  0.00000000000E+00 0. -1.
         11    1    1    2    0    0 -0.72646840947E+02  0.25391721262E+02  0.39839578856E+02  0.86657342745E+02  0.00000000000E+00 0.  1.
</event>
<event>
 7    1  0.3151015E-009  0.9178089E+02  0.7561462E-02  0.1298595E+00
          1   -1    0    0  501    0  0.00000000000E+00  0.00000000000E+00  0.47926602771E+03  0.47926602771E+03  0.00000000000E+00 0. -1.
         -1   -1    0    0    0  501 -0.00000000000E+00 -0.00000000000E+00 -0.28912224672E+02  0.28912224672E+02  0.00000000000E+00 0.  1.
         25    2    1    2    0    0 -0.19227091866E+00  0.24921928950E+02  0.18372472207E+03  0.22366472274E+03  0.12509994079E+03 0.  0.
          5    1    3    3  502    0  0.33878393097E+02 -0.15322704462E+02  0.55768876042E+01  0.37829946685E+02  0.41800000000E+01 0.  1.
         -5    1    3    3    0  502 -0.34070664015E+02  0.40244633412E+02  0.17814783447E+03  0.18583477606E+03  0.41800000000E+01 0.  1.
        -11    1    1    2    0    0 -0.26335770331E+02 -0.50147934880E+02  0.20640842039E+03  0.21403930522E+03  0.00000000000E+00 0. -1.
         11    1    1    2    0    0  0.26528041249E+02  0.25226005930E+02  0.60220660576E+02  0.70474224422E+02  0.00000000000E+00 0.  1.
</event>
<event>
 7    1  0.3151015E-009  0.1678633E+03  0.7561462E-02  0.1180095E+00
          2   -1    0    0  501    0  0.00000000000E+00  0.00000000000E+00  0.69721445507E+03  0.69721445507E+03  0.00000000000E+00 0. -1.
         -2   -1    0    0    0  501 -0.00000000000E+00 -0.00000000000E+00 -0.47994181308E+02  0.47994181308E+02  0.00000000000E+00 0.  1.
         25    2    1    2    0    0  0.11670677288E+03 -0.86042438720E+02  0.38711206469E+03  0.43188514474E+03  0.12508099582E+03 0.  0.
          5    1    3    3  502    0  0.13165618515E+03 -0.56192040548E+02  0.22791901657E+03  0.26917549484E+03  0.41800000000E+01 0. -1.
         -5    1    3    3    0  502 -0.14949412266E+02 -0.29850398172E+02  0.15919304813E+03  0.16270964990E+03  0.41800000000E+01 0. -1.
        -11    1    1    2    0    0 -0.10995127302E+03  0.47549273117E+02  0.13569262406E+03  0.18100470722E+03  0.00000000000E+00 0.  1.
         11    1    1    2    0    0 -0.67554998630E+01  0.38493165602E+02  0.12641558501E+03  0.13231878442E+03  0.00000000000E+00 0. -1.
</event>
<event>
 7    1  0.3151015E-009  0.1038221E+03  0.7561462E-02  0.1272458E+00
         -2   -1    0    0    0  501 -0.00000000000E+00  0.00000000000E+00  0.61387547205E+02  0.61387547205E+02  0.00000000000E+00 0.  1.
          2   -1    0    0  501    0  0.00000000000E+00 -0.00000000000E+00 -0.34084835350E+03  0.34084835350E+03  0.00000000000E+00 0. -1.
         25    2    1    2    0    0  0.39236133022E+02  0.85723424530E+02 -0.14067042946E+03  0.21052937370E+03  0.12508584179E+03 0.  0.
          5    1    3    3  502    0  0.14398739420E+02  0.16348510840E+02  0.22405734947E+02  0.31529143060E+02  0.41800000000E+01 0.  1.
         -5    1    3    3    0  502  0.24837393602E+02  0.69374913689E+02 -0.16307616441E+03  0.17900023064E+03  0.41800000000E+01 0.  1.
        -11    1    1    2    0    0  0.27555212672E+01 -0.64585468930E+02 -0.12811139805E+03  0.14349705922E+03  0.00000000000E+00 0. -1.
         11    1    1    2    0    0 -0.41991654289E+02 -0.21137955600E+02 -0.10678978789E+02  0.48209467793E+02  0.00000000000E+00 0.  1.
</event>
<event>
 7    1  0.3151015E-009  0.2532193E+03  0.7561462E-02  0.1111287E+00
          2   -1    0    0  501    0  0.00000000000E+00  0.00000000000E+00  0.95377212952E+03  0.95377212952E+03  0.00000000000E+00 0. -1.
         -2   -1    0    0    0  501 -0.00000000000E+00 -0.00000000000E+00 -0.75589022247E+02  0.75589022247E+02  0.00000000000E+00 0.  1.
         25    2    1    2    0    0 -0.23600848319E+03  0.44591113863E+02  0.53406261736E+03  0.59879604806E+03  0.12508179857E+03 0.  0.
          5    1    3    3  502    0 -0.10265145899E+03 -0.25936625018E+02  0.31844060004E+03  0.33560679180E+03  0.41800000000E+01 0. -1.
         -5    1    3    3    0  502 -0.13335702420E+03  0.70527738881E+02  0.21562201733E+03  0.26318925626E+03  0.41800000000E+01 0. -1.
        -11    1    1    2    0    0  0.13492268458E+03 -0.59360002480E+02  0.25714220649E+03  0.29639476221E+03  0.00000000000E+00 0. -1.
         11    1    1    2    0    0  0.10108579860E+03  0.14768888616E+02  0.86978283425E+02  0.13417034150E+03  0.00000000000E+00 0.  1.
</event>
<event>
 7    1  0.3151015E-009  0.7814732E+02  0.7561462E-02  0.1334393E+00
         -1   -1    0    0    0  501 -0.00000000000E+00  0.00000000000E+00  0.44061972596E+02  0.44061972596E+02  0.00000000000E+00 0.  1.
          1   -1    0    0  501    0  0.00000000000E+00 -0.00000000000E+00 -0.14569364033E+03  0.14569364033E+03  0.00000000000E+00 0. -1.
         25    2    1    2    0    0  0.53619490223E+01 -0.21435931117E+02 -0.87174167424E+02  0.15405963894E+03  0.12508711861E+03 0.  0.
          5    1    3    3  502    0 -0.45408231265E+02  0.27343904862E+02 -0.55125749021E+02  0.76589276043E+02  0.41800000000E+01 0. -1.
         -5    1    3    3    0  502  0.50770180287E+02 -0.48779835979E+02 -0.32048418403E+02  0.77470362893E+02  0.41800000000E+01 0. -1.
        -11    1    1    2    0    0  0.95687699776E+01  0.73302942209E+01 -0.44648516095E+01  0.12854161666E+02  0.00000000000E+00 0. -1.
         11    1    1    2    0    0 -0.14930719000E+02  0.14105636896E+02 -0.99926486980E+01  0.22841812321E+02  0.00000000000E+00 0.  1.
</event>
<event>
 7    1  0.3151015E-009  0.9976424E+02  0.7561462E-02  0.1280792E+00
         -2   -1    0    0    0  501 -0.00000000000E+00  0.00000000000E+00  0.16024584291E+02  0.16024584291E+02  0.00000000000E+00 0.  1.
          2   -1    0    0  501    0  0.00000000000E+00 -0.00000000000E+00 -0.10781661917E+04  0.10781661917E+04  0.00000000000E+00 0. -1.
         25    2    1    2    0    0 -0.26640383864E+02  0.47655059802E+02 -0.75607629732E+03  0.76829618532E+03  0.12508775413E+03 0.  0.
          5    1    3    3  502    0  0.43910459305E+02  0.19166627930E+02 -0.15185050901E+03  0.15928445483E+03  0.41800000000E+01 0.  1.
         -5    1    3    3    0  502 -0.70550843169E+02  0.28488431872E+02 -0.60422578831E+03  0.60901173050E+03  0.41800000000E+01 0.  1.
        -11    1    1    2    0    0 -0.11425314115E+02  0.30557271854E+01  0.14451660869E+01  0.11914855277E+02  0.00000000000E+00 0.  1.
         11    1    1    2    0    0  0.38065697978E+02 -0.50710786987E+02 -0.30751047620E+03  0.31397973541E+03  0.00000000000E+00 0. -1.
</event>
<event>
 7    1  0.3151015E-009  0.1365147E+03  0.7561462E-02  0.1218097E+00
         -3   -1    0    0    0  501 -0.00000000000E+00  0.00000000000E+00  0.54945259622E+02  0.54945259622E+02  0.00000000000E+00 0.  1.
          3   -1    0    0  501    0  0.00000000000E+00 -0.00000000000E+00 -0.37807749690E+03  0.37807749690E+03  0.00000000000E+00 0. -1.
         25    2    1    2    0    0  0.82968994781E+02  0.39945412554E+01 -0.24191880647E+03  0.28473758711E+03  0.12510385340E+03 0.  0.
          5    1    3    3  502    0  0.39462512805E+02 -0.59757715275E+02 -0.13400709785E+03  0.15199884581E+03  0.41800000000E+01 0.  1.
         -5    1    3    3    0  502  0.43506481976E+02  0.63752256530E+02 -0.10791170861E+03  0.13273874130E+03  0.41800000000E+01 0.  1.
        -11    1    1    2    0    0  0.10678673186E+02  0.23990639720E+02 -0.15213822093E+02  0.30348727121E+02  0.00000000000E+00 0.  1.
         11    1    1    2    0    0 -0.93647667967E+02 -0.27985180975E+02 -0.65999608721E+02  0.11793644230E+03  0.00000000000E+00 0. -1.
</event>
<event>
 7    1  0.3151015E-009  0.1434721E+03  0.7561462E-02  0.1208732E+00
         -1   -1    0    0    0  501 -0.00000000000E+00  0.00000000000E+00  0.15444460058E+03  0.15444460058E+03  0.00000000000E+00 0.  1.
          1   -1    0    0  501    0  0.00000000000E+00 -0.00000000000E+00 -0.30279150001E+03  0.30279150001E+03  0.00000000000E+00 0. -1.
         25    2    1    2    0    0 -0.95188694106E+02  0.10653621782E+03 -0.20408070173E+03  0.27875983097E+03  0.12508899771E+03 0.  0.
          5    1    3    3  502    0 -0.58205982257E+02  0.70435957335E+02 -0.20753166723E+03  0.22679511846E+03  0.41800000000E+01 0.  1.
         -5    1    3    3    0  502 -0.36982711849E+02  0.36100260488E+02  0.34509654954E+01  0.51964712506E+02  0.41800000000E+01 0.  1.
        -11    1    1    2    0    0  0.40945224215E+02 -0.35116172331E+02  0.69250360737E+02  0.87779663974E+02  0.00000000000E+00 0.  1.
         11    1    1    2    0    0  0.54243469891E+02 -0.71420045493E+02 -0.13516558427E+02  0.90696605646E+02  0.00000000000E+00 0. -1.
</event>
<event>
 7    1  0.3592434E-009  0.2195329E+03  0.7561462E-02  0.1134232E+00
         -2   -1    0    0    0  501 -0.00000000000E+00  0.00000000000E+00  0.95985793717E+02  0.95985793717E+02  0.00000000000E+00 0. -1.
          2   -1    0    0  501    0  0.00000000000E+00 -0.00000000000E+00 -0.54417763396E+03  0.54417763396E+03  0.00000000000E+00 0.  1.
         25    2    1    2    0    0  0.14195066367E+03  0.12702397308E+03 -0.32013698745E+03  0.39296628354E+03  0.12509887533E+03 0.  0.
          5    1    3    3  502    0 -0.23355197773E+02  0.18690653134E+02 -0.43060250887E+02  0.52597180381E+02  0.41800000000E+01 0.  1.
         -5    1    3    3    0  502  0.16530586144E+03  0.10833331995E+03 -0.27707673657E+03  0.34036910316E+03  0.41800000000E+01 0.  1.
        -11    1    1    2    0    0 -0.10247278485E+01 -0.51079566947E+02 -0.36387302124E+02  0.62723265082E+02  0.00000000000E+00 0. -1.
         11    1    1    2    0    0 -0.14092593582E+03 -0.75944406136E+02 -0.91667550672E+02  0.18447387906E+03  0.00000000000E+00 0.  1.
</event>
<event>
 7    1  0.3151015E-009  0.1970508E+03  0.7561462E-02  0.1152251E+00
         -2   -1    0    0    0  501 -0.00000000000E+00  0.00000000000E+00  0.53538525000E+02  0.53538525000E+02  0.00000000000E+00 0.  1.
          2   -1    0    0  501    0  0.00000000000E+00 -0.00000000000E+00 -0.95548366659E+03  0.95548366659E+03  0.00000000000E+00 0. -1.
         25    2    1    2    0    0 -0.39776220123E+02  0.18333701806E+03 -0.32434006849E+03  0.39501754455E+03  0.12509104922E+03 0.  0.
          5    1    3    3  502    0 -0.28891468431E+01  0.40936480741E+02 -0.27331702671E+01  0.41341084222E+02  0.41800000000E+01 0. -1.
         -5    1    3    3    0  502 -0.36887073280E+02  0.14240053732E+03 -0.32160689823E+03  0.35367646033E+03  0.41800000000E+01 0. -1.
        -11    1    1    2    0    0  0.61973972784E+02 -0.86917369190E+02 -0.34757362998E+03  0.36359707181E+03  0.00000000000E+00 0.  1.
         11    1    1    2    0    0 -0.22197752661E+02 -0.96419648870E+02 -0.23003144312E+03  0.25040757523E+03  0.00000000000E+00 0. -1.
</event>
<event>
 7    1  0.3151015E-009  0.8999658E+02  0.7561462E-02  0.1302860E+00
          3   -1    0    0  501    0  0.00000000000E+00  0.00000000000E+00  0.37618523098E+02  0.37618523098E+02  0.00000000000E+00 0. -1.
         -3   -1    0    0    0  501 -0.00000000000E+00 -0.00000000000E+00 -0.37063573170E+03  0.37063573170E+03  0.00000000000E+00 0.  1.
         25    2    1    2    0    0  0.21146429951E+02 -0.49778581788E+02 -0.20447296150E+03  0.24572792712E+03  0.12509174025E+03 0.  0.
          5    1    3    3  502    0  0.45367868832E+02 -0.35405949759E+02 -0.23130328429E+02  0.62163568864E+02  0.41800000000E+01 0. -1.
         -5    1    3    3    0  502 -0.24221438881E+02 -0.14372632029E+02 -0.18134263307E+03  0.18356435825E+03  0.41800000000E+01 0. -1.
        -11    1    1    2    0    0  0.23593377531E+01  0.65499184721E+02 -0.11198906572E+03  0.12975846991E+03  0.00000000000E+00 0.  1.
         11    1    1    2    0    0 -0.23505767704E+02 -0.15720602933E+02 -0.16555181387E+02  0.32767857768E+02  0.00000000000E+00 0. -1.
</event>
<event>
 7    1  0.3151015E-009  0.7782847E+02  0.7561462E-02  0.1335329E+00
          2   -1    0    0  501    0  0.00000000000E+00  0.00000000000E+00  0.12836954660E+04  0.12836954660E+04  0.00000000000E+00 0. -1.
         -2   -1    0    0    0  501 -0.00000000000E+00 -0.00000000000E+00 -0.10955928598E+02  0.10955928598E+02  0.00000000000E+00 0.  1.
         25    2    1    2    0    0 -0.46170432443E+02 -0.49024791099E+01  0.77040597730E+03  0.78187573395E+03  0.12509416591E+03 0.  0.
          5    1    3    3  502    0 -0.48318326273E+02  0.40749781434E+00  0.77285382531E+03  0.77437415660E+03  0.41800000000E+01 0. -1.
         -5    1    3    3    0  502  0.21478938299E+01 -0.53099769242E+01 -0.24478480129E+01  0.75015773498E+01  0.41800000000E+01 0. -1.
        -11    1    1    2    0    0  0.54221075055E+02 -0.31551608432E+02  0.36985170928E+03  0.37513426374E+03  0.00000000000E+00 0. -1.
         11    1    1    2    0    0 -0.80506426120E+01  0.36454087541E+02  0.13248185078E+03  0.13764139686E+03  0.00000000000E+00 0.  1.
</event>
<event>
 7    1  0.3151015E-009  0.1667961E+03  0.7561462E-02  0.1181231E+00
          1   -1    0    0  501    0  0.00000000000E+00  0.00000000000E+00  0.13161123056E+03  0.13161123056E+03  0.00000000000E+00 0. -1.
         -1   -1    0    0    0  501 -0.00000000000E+00 -0.00000000000E+00 -0.24329079073E+03  0.24329079073E+03  0.00000000000E+00 0.  1.
         25    2    1    2    0    0  0.82251008196E+01  0.13771891164E+03 -0.26226255310E+02  0.18806695825E+03  0.12508882208E+03 0.  0.
          5    1    3    3  502    0 -0.95264517605E+01  0.15101437417E+03 -0.45845543335E+02  0.15816251367E+03  0.41800000000E+01 0. -1.
         -5    1    3    3    0  502  0.17751552580E+02 -0.13295462525E+02  0.19619288025E+02  0.29904444575E+02  0.41800000000E+01 0. -1.
        -11    1    1    2    0    0  0.31233998344E+02 -0.10111206938E+03 -0.31008336826E+02  0.11027570077E+03  0.00000000000E+00 0. -1.
         11    1    1    2    0    0 -0.39459099164E+02 -0.36606842256E+02 -0.54444968036E+02  0.76559362270E+02  0.00000000000E+00 0.  1.
</event>
<event>
 7    1  0.3151015E-009  0.8974186E+02  0.7561462E-02  0.1303478E+00
         -2   -1    0    0    0  501 -0.00000000000E+00  0.00000000000E+00  0.29950985613E+02  0.29950985613E+02  0.00000000000E+00 0. -1.
          2   -1    0    0  501    0  0.00000000000E+00 -0.00000000000E+00 -0.49333190425E+03  0.49333190425E+03  0.00000000000E+00 0.  1.
         25    2    1    2    0    0 -0.55360069924E+01 -0.49341265258E+02 -0.20769832458E+03  0.24749039111E+03  0.12509073439E+03 0.  0.
          5    1    3    3  502    0  0.47207614956E+02 -0.13000553987E+02 -0.27749535173E+02  0.56436534409E+02  0.41800000000E+01 0. -1.
         -5    1    3    3    0  502 -0.52743621949E+02 -0.36340711271E+02 -0.17994878941E+03  0.19105385670E+03  0.41800000000E+01 0. -1.
        -11    1    1    2    0    0  0.19929002990E+02  0.47664412468E+02 -0.25613674953E+03  0.26129503599E+03  0.00000000000E+00 0.  1.
         11    1    1    2    0    0 -0.14392995997E+02  0.16768527894E+01  0.45415547664E+00  0.14497462752E+02  0.00000000000E+00 0. -1.
</event>
<event>
 7    1  0.3151015E-009  0.1095011E+03  0.7561462E-02  0.1261496E+00
          1   -1    0    0  501    0  0.00000000000E+00  0.00000000000E+00  0.88454776278E+02  0.88454776278E+02  0.00000000000E+00 0. -1.
         -1   -1    0    0    0  501 -0.00000000000E+00 -0.00000000000E+00 -0.16448583086E+03  0.16448583086E+03  0.00000000000E+00 0.  1.
         25    2    1    2    0    0 -0.51038260106E+02 -0.67151749803E+01 -0.36835899927E+02  0.14020189871E+03  0.12509872625E+03 0.  0.
          5    1    3    3  502    0 -0.87062724382E+02 -0.17931350716E+02 -0.47363892885E+02  0.10080804563E+03  0.41800000000E+01 0.  1.
         -5    1    3    3    0  502  0.36024464275E+02  0.11216175736E+02  0.10527992959E+02  0.39393853076E+02  0.41800000000E+01 0.  1.
        -11    1    1    2    0    0  0.49444798582E+02 -0.28320512610E+02  0.39727971110E+01  0.57119372004E+02  0.00000000000E+00 0. -1.
         11    1    1    2    0    0  0.15934615248E+01  0.35035687591E+02 -0.43167951771E+02  0.55619336428E+02  0.00000000000E+00 0.  1.
</event>
<event>
 7    1  0.3151015E-009  0.8655759E+02  0.7561462E-02  0.1311409E+00
          2   -1    0    0  501    0  0.00000000000E+00  0.00000000000E+00  0.36616035952E+03  0.36616035952E+03  0.00000000000E+00 0. -1.
         -2   -1    0    0    0  501 -0.00000000000E+00 -0.00000000000E+00 -0.39957461179E+02  0.39957461179E+02  0.00000000000E+00 0.  1.
         25    2    1    2    0    0  0.56587004047E+01  0.44829172590E+02  0.23048451450E+03  0.26610639462E+03  0.12509127159E+03 0.  0.
          5    1    3    3  502    0 -0.97994841709E+00 -0.12540747695E+02 -0.11341189962E+02  0.17444931682E+02  0.41800000000E+01 0. -1.
         -5    1    3    3    0  502  0.66386488218E+01  0.57369920285E+02  0.24182570446E+03  0.24866146294E+03  0.41800000000E+01 0. -1.
        -11    1    1    2    0    0 -0.22733740269E+02 -0.68837868169E+02  0.63748722270E+02  0.96536908132E+02  0.00000000000E+00 0. -1.
         11    1    1    2    0    0  0.17075039864E+02  0.24008695579E+02  0.31969661572E+02  0.43474517948E+02  0.00000000000E+00 0.  1.
</event>
<event>
 7    1  0.3151015E-009  0.1526263E+03  0.7561462E-02  0.1197282E+00
         -2   -1    0    0    0  501 -0.00000000000E+00  0.00000000000E+00  0.26706724194E+02  0.26706724194E+02  0.00000000000E+00 0.  1.
          2   -1    0    0  501    0  0.00000000000E+00 -0.00000000000E+00 -0.10213408051E+04  0.10213408051E+04  0.00000000000E+00 0. -1.
         25    2    1    2    0    0 -0.14529834507E+02 -0.10898422647E+03 -0.34922060597E+03  0.38690000639E+03  0.12509158885E+03 0.  0.
          5    1    3    3  502    0 -0.51134393620E+02 -0.11372362976E+03 -0.22536427151E+03  0.25759331794E+03  0.41800000000E+01 0.  1.
         -5    1    3    3    0  502  0.36604559113E+02  0.47394032820E+01 -0.12385633446E+03  0.12930668845E+03  0.41800000000E+01 0.  1.
        -11    1    1    2    0    0 -0.34202924161E+02  0.79104504008E+02 -0.38105108241E+03  0.39067542792E+03  0.00000000000E+00 0.  1.
         11    1    1    2    0    0  0.48732758668E+02  0.29879722466E+02 -0.26436239257E+03  0.27047209502E+03  0.00000000000E+00 0. -1.
</event>
<event>
 7    1  0.3151015E-009  0.8769497E+02  0.7561462E-02  0.1308532E+00
          1   -1    0    0  501    0  0.00000000000E+00  0.00000000000E+00  0.92488295844E+03  0.92488295844E+03  0.00000000000E+00 0. -1.
         -1   -1    0    0    0  501 -0.00000000000E+00 -0.00000000000E+00 -0.13707384204E+02  0.13707384204E+02  0.00000000000E+00 0.  1.
         25    2    1    2    0    0 -0.28965553079E+02  0.11365848593E+02  0.65783960590E+03  0.67034787437E+03  0.12508053324E+03 0.  0.
          5    1    3    3  502    0  0.22858227217E+02 -0.17147758235E+02  0.51337956011E+03  0.51419119917E+03  0.41800000000E+01 0. -1.
         -5    1    3    3    0  502 -0.51823780296E+02  0.28513606828E+02  0.14446004579E+03  0.15615667520E+03  0.41800000000E+01 0. -1.
        -11    1    1    2    0    0  0.11421162235E+02 -0.46532104666E+02  0.11923891264E+03  0.12850524503E+03  0.00000000000E+00 0. -1.
         11    1    1    2    0    0  0.17544390845E+02  0.35166256073E+02  0.13409705570E+03  0.13973722325E+03  0.00000000000E+00 0.  1.
</event>
<event>
 7    1  0.3151015E-009  0.8029021E+02  0.7561462E-02  0.1328230E+00
         -1   -1    0    0    0  501 -0.00000000000E+00  0.00000000000E+00  0.33249691670E+02  0.33249691670E+02  0.00000000000E+00 0.  1.
          1   -1    0    0  501    0  0.00000000000E+00 -0.00000000000E+00 -0.47296573569E+03  0.47296573569E+03  0.00000000000E+00 0. -1.
         25    2    1    2    0    0  0.22916024381E+02  0.30387995151E+01 -0.36444100398E+03  0.38600395566E+03  0.12508968754E+03 0.  0.
          5    1    3    3  502    0  0.15630556475E+02  0.38191653884E+02 -0.34110461780E+02  0.53702073749E+02  0.41800000000E+01 0.  1.
         -5    1    3    3    0  502  0.72854679063E+01 -0.35152854369E+02 -0.33033054220E+03  0.33230188191E+03  0.41800000000E+01 0.  1.
        -11    1    1    2    0    0 -0.50621587100E+02 -0.14979319366E+02 -0.18537096677E+02  0.55951309568E+02  0.00000000000E+00 0.  1.
         11    1    1    2    0    0  0.27705562719E+02  0.11940519851E+02 -0.56737943360E+02  0.64260162127E+02  0.00000000000E+00 0. -1.
</event>
<event>
 7    1  0.3151015E-009  0.9787685E+02  0.7561462E-02  0.1284825E+00
          1   -1    0    0  501    0  0.00000000000E+00  0.00000000000E+00  0.98516237432E+02  0.98516237432E+02  0.00000000000E+00 0. -1.
         -1   -1    0    0    0  501 -0.00000000000E+00 -0.00000000000E+00 -0.14439355168E+03  0.14439355168E+03  0.00000000000E+00 0.  1.
         25    2    1    2    0    0 -0.10624769928E+02 -0.19711378978E+02 -0.69407499037E+02  0.14479713964E+03  0.12508951406E+03 0.  0.
          5    1    3    3  502    0 -0.18637890773E+02  0.42343739339E+02  0.58695481588E+01  0.46821866999E+02  0.41800000000E+01 0.  1.
         -5    1    3    3    0  502  0.80131208451E+01 -0.62055118317E+02 -0.75277047196E+02  0.97975272644E+02  0.41800000000E+01 0.  1.
        -11    1    1    2    0    0  0.12869871760E+02 -0.32176542507E+02  0.29920817864E+02  0.45784482398E+02  0.00000000000E+00 0. -1.
         11    1    1    2    0    0 -0.22451018319E+01  0.51887921484E+02 -0.63906330768E+01  0.52328167074E+02  0.00000000000E+00 0.  1.
</event>
<event>
 7    1  0.3151015E-009  0.1043909E+03  0.7561462E-02  0.1271324E+00
         -1   -1    0    0    0  501 -0.00000000000E+00  0.00000000000E+00  0.89878904776E+02  0.89878904776E+02  0.00000000000E+00 0.  1.
          1   -1    0    0  501    0  0.00000000000E+00 -0.00000000000E+00 -0.20415929794E+03  0.20415929794E+03  0.00000000000E+00 0. -1.
         25    2    1    2    0    0 -0.38307511741E+02 -0.37530724748E+02  0.37400046853E+01  0.13615171214E+03  0.12508908957E+03 0.  0.
          5    1    3    3  502    0  0.11210770662E+02  0.41219046212E+02  0.30807591049E+01  0.43030856674E+02  0.41800000000E+01 0.  1.
         -5    1    3    3    0  502 -0.49518282403E+02 -0.78749770960E+02  0.65924558042E+00  0.93120855468E+02  0.41800000000E+01 0.  1.
        -11    1    1    2    0    0 -0.60259978971E+01  0.26337475380E+02  0.42461536023E+01  0.27349681542E+02  0.00000000000E+00 0.  1.
         11    1    1    2    0    0  0.44333509638E+02  0.11193249368E+02 -0.12226655145E+03  0.13053680903E+03  0.00000000000E+00 0. -1.
</event>
<event>
 7    1  0.3151015E-009  0.1657153E+03  0.7561462E-02  0.1182391E+00
         -4   -1    0    0    0  501 -0.00000000000E+00  0.00000000000E+00  0.59184513596E+03  0.59184513596E+03  0.00000000000E+00 0.  1.
          4   -1    0    0  501    0  0.00000000000E+00 -0.00000000000E+00 -0.68321500351E+02  0.68321500351E+02  0.00000000000E+00 0. -1.
         25    2    1    2    0    0  0.11842584114E+03  0.78514550535E+02  0.42419314909E+03  0.46451612184E+03  0.12508471216E+03 0.  0.
          5    1    3    3  502    0 -0.76851450530E+01 -0.19840660605E+02  0.10797275306E+03  0.11012856609E+03  0.41800000000E+01 0.  1.
         -5    1    3    3    0  502  0.12611098620E+03  0.98355211140E+02  0.31622039604E+03  0.35438755575E+03  0.41800000000E+01 0.  1.
        -11    1    1    2    0    0 -0.20839193466E+02 -0.39510190020E+02 -0.80632961483E+01  0.45391010614E+02  0.00000000000E+00 0. -1.
         11    1    1    2    0    0 -0.97586647677E+02 -0.39004360515E+02  0.10739378266E+03  0.15025950385E+03  0.00000000000E+00 0.  1.
</event>
<event>
 7    1  0.3151015E-009  0.1012449E+03  0.7561462E-02  0.1277700E+00
          2   -1    0    0  501    0  0.00000000000E+00  0.00000000000E+00  0.59439085482E+03  0.59439085482E+03  0.00000000000E+00 0. -1.
         -2   -1    0    0    0  501 -0.00000000000E+00 -0.00000000000E+00 -0.33692121736E+02  0.33692121736E+02  0.00000000000E+00 0.  1.
         25    2    1    2    0    0  0.50451863952E+02 -0.47450643683E+02  0.19164901594E+03  0.23911114277E+03  0.12509132314E+03 0.  0.
          5    1    3    3  502    0  0.45214257831E+02 -0.54240905373E+02  0.29436667406E+02  0.76618501126E+02  0.41800000000E+01 0. -1.
         -5    1    3    3    0  502  0.52376061207E+01  0.67902616902E+01  0.16221234854E+03  0.16249264165E+03  0.41800000000E+01 0. -1.
        -11    1    1    2    0    0  0.23835003645E+02 -0.12351048443E+02  0.65288539621E+02  0.70592132722E+02  0.00000000000E+00 0.  1.
         11    1    1    2    0    0 -0.74286867596E+02  0.59801692126E+02  0.30376117752E+03  0.31837970106E+03  0.00000000000E+00 0. -1.
</event>
<event>
 7    1  0.3964130E-009  0.1607051E+03  0.7561462E-02  0.1187903E+00
         -1   -1    0    0    0  501 -0.00000000000E+00  0.00000000000E+00  0.76613111165E+02  0.76613111165E+02  0.00000000000E+00 0.  1.
          1   -1    0    0  501    0  0.00000000000E+00 -0.00000000000E+00 -0.42121926294E+03  0.42121926294E+03  0.00000000000E+00 0. -1.
         25    2    1    2    0    0 -0.12571109190E+03 -0.62383023342E+02 -0.21871155034E+03  0.28840366735E+03  0.12508802046E+03 0.  0.
          5    1    3    3  502    0 -0.11823892620E+03 -0.19307689631E+02 -0.83115922049E+02  0.14587309363E+03  0.41800000000E+01 0. -1.
         -5    1    3    3    0  502 -0.74721657051E+01 -0.43075333710E+02 -0.13559562829E+03  0.14253057373E+03  0.41800000000E+01 0. -1.
        -11    1    1    2    0    0  0.49552247887E+02 -0.12184896773E+02 -0.10046728704E+02  0.52008016090E+02  0.00000000000E+00 0.  1.
         11    1    1    2    0    0  0.76158844015E+02  0.74567920114E+02 -0.11584787273E+03  0.15742069066E+03  0.00000000000E+00 0. -1.
</event>
<event>
 7    1  0.3151015E-009  0.7684348E+02  0.7561462E-02  0.1338256E+00
         -3   -1    0    0    0  501 -0.00000000000E+00  0.00000000000E+00  0.80997026146E+02  0.80997026146E+02  0.00000000000E+00 0.  1.
          3   -1    0    0  501    0  0.00000000000E+00 -0.00000000000E+00 -0.19730448799E+03  0.19730448799E+03  0.00000000000E+00 0. -1.
         25    2    1    2    0    0  0.42517191707E+02  0.38872095838E+02 -0.91230471326E+02  0.16519501275E+03  0.12509053487E+03 0.  0.
          5    1    3    3  502    0 -0.21921028890E+02  0.16389684273E+02  0.20328458091E+02  0.34349262969E+02  0.41800000000E+01 0. -1.
         -5    1    3    3    0  502  0.64438220597E+02  0.22482411564E+02 -0.11155892942E+03  0.13084574978E+03  0.41800000000E+01 0. -1.
        -11    1    1    2    0    0 -0.95849557808E+01 -0.95125323327E+01  0.35605676199E+02  0.38080491414E+02  0.00000000000E+00 0.  1.
         11    1    1    2    0    0 -0.32932235927E+02 -0.29359563505E+02 -0.60682666721E+02  0.75026009975E+02  0.00000000000E+00 0. -1.
</event>
<event>
 7    1  0.3151015E-009  0.1788685E+03  0.7561462E-02  0.1168903E+00
          1   -1    0    0  501    0  0.00000000000E+00  0.00000000000E+00  0.68927954398E+02  0.68927954398E+02  0.00000000000E+00 0. -1.
         -1   -1    0    0    0  501 -0.00000000000E+00 -0.00000000000E+00 -0.69594111457E+03  0.69594111457E+03  0.00000000000E+00 0.  1.
         25    2    1    2    0    0  0.14890109721E+03  0.47457631270E+02 -0.50473517722E+03  0.54298136176E+03  0.12508955427E+03 0.  0.
          5    1    3    3  502    0  0.45049071003E+02 -0.32424178279E+02 -0.73098536533E+02  0.91878259554E+02  0.41800000000E+01 0. -1.
         -5    1    3    3    0  502  0.10385202620E+03  0.79881809549E+02 -0.43163664068E+03  0.45110310221E+03  0.41800000000E+01 0. -1.
        -11    1    1    2    0    0 -0.31043224409E+02 -0.43014756563E+02 -0.14888311488E+01  0.53067576561E+02  0.00000000000E+00 0.  1.
         11    1    1    2    0    0 -0.11785787280E+03 -0.44428747071E+01 -0.12078915181E+03  0.16882013064E+03  0.00000000000E+00 0. -1.
</event>
<event>
 7    1  0.3151015E-009  0.1263367E+03  0.7561462E-02  0.1232995E+00
          2   -1    0    0  501    0  0.00000000000E+00  0.00000000000E+00  0.24821060248E+03  0.24821060248E+03  0.00000000000E+00 0. -1.
         -2   -1    0    0    0  501 -0.00000000000E+00 -0.00000000000E+00 -0.70442316322E+02  0.70442316322E+02  0.00000000000E+00 0.  1.
         25    2    1    2    0    0  0.41639486332E+02  0.51165096115E+02  0.52827447669E+02  0.15096387438E+03  0.12509052026E+03 0.  0.
          5    1    3    3  502    0 -0.35422230050E+02  0.52811686163E+02  0.17605460892E+02  0.66115302543E+02  0.41800000000E+01 0. -1.
         -5    1    3    3    0  502  0.77061716382E+02 -0.16465900479E+01  0.35221986777E+02  0.84848571839E+02  0.41800000000E+01 0. -1.
        -11    1    1    2    0    0 -0.25478046664E+02 -0.77096514986E+02  0.93776648058E+02  0.12404460168E+03  0.00000000000E+00 0.  1.
         11    1    1    2    0    0 -0.16161439668E+02  0.25931418871E+02  0.31164190428E+02  0.43644442737E+02  0.00000000000E+00 0. -1.
</event>
<event>
 7    1  0.3151015E-009  0.1108352E+03  0.7561462E-02  0.1259031E+00
         -1   -1    0    0    0  501 -0.00000000000E+00  0.00000000000E+00  0.98128943389E+03  0.98128943389E+03  0.00000000000E+00 0.  1.
          1   -1    0    0  501    0  0.00000000000E+00 -0.00000000000E+00 -0.16968257903E+02  0.16968257903E+02  0.00000000000E+00 0. -1.
         25    2    1    2    0    0 -0.66721110481E+02  0.58763066843E+01  0.58670779870E+03  0.60362152201E+03  0.12508662284E+03 0.  0.
          5    1    3    3  502    0  0.16104209223E+02 -0.19081464924E+02  0.26090630854E+02  0.36354384560E+02  0.41800000000E+01 0.  1.
         -5    1    3    3    0  502 -0.82825319704E+02  0.24957771609E+02  0.56061716784E+03  0.56726713745E+03  0.41800000000E+01 0.  1.
        -11    1    1    2    0    0  0.40432749579E+02 -0.46337569445E+02  0.26640753785E+03  0.27341352162E+03  0.00000000000E+00 0. -1.
         11    1    1    2    0    0  0.26288360902E+02  0.40461262760E+02  0.11120583944E+03  0.12122264817E+03  0.00000000000E+00 0.  1.
</event>
<event>
 7    1  0.3151015E-009  0.1726219E+03  0.7561462E-02  0.1175141E+00
         -1   -1    0    0    0  501 -0.00000000000E+00  0.00000000000E+00  0.24230754474E+03  0.24230754474E+03  0.00000000000E+00 0.  1.
          1   -1    0    0  501    0  0.00000000000E+00 -0.00000000000E+00 -0.14930460619E+03  0.14930460619E+03  0.00000000000E+00 0. -1.
         25    2    1    2    0    0 -0.39548999932E+02  0.14251381388E+03 -0.21584591798E+01  0.19371696087E+03  0.12508913397E+03 0.  0.
          5    1    3    3  502    0 -0.69583016403E+02  0.12423894820E+03 -0.33598622317E+02  0.14636752455E+03  0.41800000000E+01 0. -1.
         -5    1    3    3    0  502  0.30034016472E+02  0.18274865684E+02  0.31440163137E+02  0.47349436314E+02  0.41800000000E+01 0. -1.
        -11    1    1    2    0    0  0.53969048038E+02 -0.49425446764E+02  0.16138400242E+02  0.74939848521E+02  0.00000000000E+00 0.  1.
         11    1    1    2    0    0 -0.14420048107E+02 -0.93088367119E+02  0.79022997493E+02  0.12295534154E+03  0.00000000000E+00 0. -1.
</event>
<event>
 7    1  0.3151015E-009  0.9167702E+02  0.7561462E-02  0.1298841E+00
         -2   -1    0    0    0  501 -0.00000000000E+00  0.00000000000E+00  0.28573326994E+02  0.28573326994E+02  0.00000000000E+00 0.  1.
          2   -1    0    0  501    0  0.00000000000E+00 -0.00000000000E+00 -0.40420223439E+03  0.40420223439E+03  0.00000000000E+00 0. -1.
         25    2    1    2    0    0  0.43740738241E+01 -0.17928530408E+01 -0.22186926078E+03  0.25474317469E+03  0.12508304971E+03 0.  0.
          5    1    3    3  502    0  0.36047082569E+02 -0.37133372469E+02 -0.19110617155E+03  0.19803363532E+03  0.41800000000E+01 0.  1.
         -5    1    3    3    0  502 -0.31673008745E+02  0.35340519428E+02 -0.30763089233E+02  0.56709539370E+02  0.41800000000E+01 0.  1.
        -11    1    1    2    0    0  0.14286873556E+02  0.39345661493E+02 -0.10868885411E+03  0.11647086692E+03  0.00000000000E+00 0.  1.
         11    1    1    2    0    0 -0.18660947380E+02 -0.37552808452E+02 -0.45070792503E+02  0.61561519772E+02  0.00000000000E+00 0. -1.
</event>
<event>
 7    1  0.3151015E-009  0.1011326E+03  0.7561462E-02  0.1277932E+00
          1   -1    0    0  501    0  0.00000000000E+00  0.00000000000E+00  0.35772344568E+02  0.35772344568E+02  0.00000000000E+00 0. -1.
         -1   -1    0    0    0  501 -0.00000000000E+00 -0.00000000000E+00 -0.37272717643E+03  0.37272717643E+03  0.00000000000E+00 0.  1.
         25    2    1    2    0    0 -0.80914451005E+01  0.49305179491E+02 -0.22587435700E+03  0.26298504400E+03  0.12508171733E+03 0.  0.
          5    1    3    3  502    0 -0.34851645697E+02 -0.31411511811E+02 -0.10556525830E+03  0.11559764894E+03  0.41800000000E+01 0.  1.
         -5    1    3    3    0  502  0.26760200596E+02  0.80716691302E+02 -0.12030909871E+03  0.14738739506E+03  0.41800000000E+01 0.  1.
        -11    1    1    2    0    0  0.28898012272E+02 -0.29500558035E+02 -0.12969657628E+02  0.43284986503E+02  0.00000000000E+00 0. -1.
         11    1    1    2    0    0 -0.20806567171E+02 -0.19804621456E+02 -0.98110817232E+02  0.10222949049E+03  0.00000000000E+00 0.  1.
</event>
<event>
 7    1  0.3151015E-009  0.1440295E+03  0.7561462E-02  0.1208008E+00
          1   -1    0    0  501    0  0.00000000000E+00  0.00000000000E+00  0.97076465668E+02  0.97076465668E+02  0.00000000000E+00 0. -1.
         -1   -1    0    0    0  501 -0.00000000000E+00 -0.00000000000E+00 -0.25306870936E+03  0.25306870936E+03  0.00000000000E+00 0.  1.
         25    2    1    2    0    0  0.15776475406E+02  0.11123830625E+03 -0.92443873932E+02  0.19187451482E+03  0.12508837539E+03 0.  0.
          5    1    3    3  502    0  0.62856553607E+02  0.42449069239E+02 -0.13817025875E+02  0.77209147222E+02  0.41800000000E+01 0.  1.
         -5    1    3    3    0  502 -0.47080078202E+02  0.68789237012E+02 -0.78626848057E+02  0.11466536760E+03  0.41800000000E+01 0.  1.
        -11    1    1    2    0    0  0.30251884232E+01 -0.10973002179E+03 -0.21046199785E+02  0.11177106948E+03  0.00000000000E+00 0. -1.
         11    1    1    2    0    0 -0.18801663829E+02 -0.15082844587E+01 -0.42502169980E+02  0.46499590726E+02  0.00000000000E+00 0.  1.
</event>
<event>
 7    1  0.3151015E-009  0.8099191E+02  0.7561462E-02  0.1326260E+00
          3   -1    0    0  501    0  0.00000000000E+00  0.00000000000E+00  0.18187467721E+03  0.18187467721E+03  0.00000000000E+00 0. -1.
         -3   -1    0    0    0  501 -0.00000000000E+00 -0.00000000000E+00 -0.67563205193E+02  0.67563205193E+02  0.00000000000E+00 0.  1.
         25    2    1    2    0    0 -0.17612900025E+01  0.15702888355E+02  0.40457380057E+02  0.13242058153E+03  0.12509487586E+03 0.  0.
          5    1    3    3  502    0  0.56852538699E+02 -0.47415790707E+01  0.40696781552E+02  0.70202522443E+02  0.41800000000E+01 0. -1.
         -5    1    3    3    0  502 -0.58613828702E+02  0.20444467426E+02 -0.23940149463E+00  0.62218059087E+02  0.41800000000E+01 0. -1.
        -11    1    1    2    0    0 -0.16336057072E+02  0.29206932396E+01 -0.16261743852E+02  0.23234489940E+02  0.00000000000E+00 0.  1.
         11    1    1    2    0    0  0.18097347074E+02 -0.18623581595E+02  0.90115835812E+02  0.93782810934E+02  0.00000000000E+00 0. -1.
</event>
<event>
 7    1  0.3151015E-009  0.1157472E+03  0.7561462E-02  0.1250283E+00
         -2   -1    0    0    0  501 -0.00000000000E+00  0.00000000000E+00  0.93431347131E+02  0.93431347131E+02  0.00000000000E+00 0.  1.
          2   -1    0    0  501    0  0.00000000000E+00 -0.00000000000E+00 -0.37514996605E+03  0.37514996605E+03  0.00000000000E+00 0. -1.
         25    2    1    2    0    0  0.82713210670E+02  0.83258844033E+01  0.10759742422E+02  0.15058147892E+03  0.12509282221E+03 0.  0.
          5    1    3    3  502    0  0.94510636338E+02 -0.35356782512E+02 -0.82380141846E+01  0.10132965868E+03  0.41800000000E+01 0. -1.
         -5    1    3    3    0  502 -0.11797425668E+02  0.43682666915E+02  0.18997756606E+02  0.49251820243E+02  0.41800000000E+01 0. -1.
        -11    1    1    2    0    0 -0.46686386639E+02 -0.13651555865E+02 -0.27180455996E+03  0.27612262220E+03  0.00000000000E+00 0. -1.
         11    1    1    2    0    0 -0.36026824031E+02  0.53256714613E+01 -0.20673801379E+02  0.41877212057E+02  0.00000000000E+00 0.  1.
</event>
<event>
 7    1  0.3151015E-009  0.1380927E+03  0.7561462E-02  0.1215919E+00
          2   -1    0    0  501    0  0.00000000000E+00  0.00000000000E+00  0.18304051571E+02  0.18304051571E+02  0.00000000000E+00 0. -1.
         -2   -1    0    0    0  501 -0.00000000000E+00 -0.00000000000E+00 -0.11694346444E+04  0.11694346444E+04  0.00000000000E+00 0.  1.
         25    2    1    2    0    0  0.26287802554E+02 -0.91946674667E+02 -0.71037815668E+03  0.72761923367E+03  0.12508950463E+03 0.  0.
          5    1    3    3  502    0  0.36071001479E+02  0.21495190588E+02 -0.23654955545E+03  0.24028384247E+03  0.41800000000E+01 0.  1.
         -5    1    3    3    0  502 -0.97831989252E+01 -0.11344186526E+03 -0.47382860123E+03  0.48733539120E+03  0.41800000000E+01 0.  1.
        -11    1    1    2    0    0 -0.34010239767E+02  0.69645272792E+01 -0.54987987004E+02  0.65029837489E+02  0.00000000000E+00 0.  1.
         11    1    1    2    0    0  0.77224372126E+01  0.84982147388E+02 -0.38576444910E+03  0.39508962477E+03  0.00000000000E+00 0. -1.
</event>
<event>
 6    1  0.3151015E-009  0.9456526E+02  0.7561462E-02  0.1292158E+00
         -2   -1    0    0    0  501 -0.00000000000E+00  0.00000000000E+00  0.83609763203E+02  0.83609763203E+02  0.00000000000E+00 0.  1.
          2   -1    0    0  501    0  0.00000000000E+00 -0.00000000000E+00 -0.17621229090E+03  0.17621229090E+03  0.00000000000E+00 0. -1.
          5    1    1    2  502    0 -0.48986043092E+02  0.51411608516E+02 -0.90333267378E+02  0.11497981346E+03  0.41800000000E+01 0.  1.
         -5    1    1    2    0  502  0.32130152715E+02 -0.33924727401E+02 -0.12090190683E+02  0.48444596741E+02  0.41800000000E+01 0.  1.
        -11    1    1    2    0    0 -0.25728325194E+02 -0.21363689489E+01  0.35852051414E+02  0.44180090315E+02  0.00000000000E+00 0. -1.
         11    1    1    2    0    0  0.42584215572E+02 -0.15350512166E+02 -0.26031121053E+02  0.52217553590E+02  0.00000000000E+00 0.  1.
</event>
<event>
 7    1  0.3151015E-009  0.1035823E+03  0.7561462E-02  0.1272938E+00
         -2   -1    0    0    0  501 -0.00000000000E+00  0.00000000000E+00  0.53762046989E+02  0.53762046989E+02  0.00000000000E+00 0.  1.
          2   -1    0    0  501    0  0.00000000000E+00 -0.00000000000E+00 -0.31113565655E+03  0.31113565655E+03  0.00000000000E+00 0. -1.
         25    2    1    2    0    0  0.83997326737E+01  0.68636893468E+02 -0.13786819741E+03  0.19858711945E+03  0.12509046927E+03 0.  0.
          5    1    3    3  502    0 -0.15611469186E+02 -0.79954666173E+01 -0.11297890890E+03  0.11440870471E+03  0.41800000000E+01 0. -1.
         -5    1    3    3    0  502  0.24011201859E+02  0.76632360085E+02 -0.24889288508E+02  0.84178414748E+02  0.41800000000E+01 0. -1.
        -11    1    1    2    0    0  0.37936722561E+02 -0.32574734938E+02 -0.27225481745E+02  0.56934481039E+02  0.00000000000E+00 0.  1.
         11    1    1    2    0    0 -0.46336455234E+02 -0.36062158529E+02 -0.92279930414E+02  0.10937610305E+03  0.00000000000E+00 0. -1.
</event>
<event>
 7    1  0.3151015E-009  0.1083281E+03  0.7561462E-02  0.1263698E+00
          3   -1    0    0  501    0  0.00000000000E+00  0.00000000000E+00  0.31182523747E+03  0.31182523747E+03  0.00000000000E+00 0. -1.
         -3   -1    0    0    0  501 -0.00000000000E+00 -0.00000000000E+00 -0.65012441550E+02  0.65012441550E+02  0.00000000000E+00 0.  1.
         25    2    1    2    0    0 -0.73234139124E+02  0.40013545908E+02  0.83762899368E+02  0.17212703231E+03  0.12508864438E+03 0.  0.
          5    1    3    3  502    0  0.77743606854E+01  0.38977135844E+02  0.81731232091E+02  0.90978703562E+02  0.41800000000E+01 0. -1.
         -5    1    3    3    0  502 -0.81008499809E+02  0.10364100643E+01  0.20316672771E+01  0.81148328751E+02  0.41800000000E+01 0. -1.
        -11    1    1    2    0    0  0.65942919589E+02 -0.12514428756E+02  0.16298143965E+03  0.17626125281E+03  0.00000000000E+00 0. -1.
         11    1    1    2    0    0  0.72912195346E+01 -0.27499117152E+02  0.68456894675E-01  0.28449393892E+02  0.00000000000E+00 0.  1.
</event>
<event>
 7    1  0.3151015E-009  0.1639106E+03  0.7561462E-02  0.1184351E+00
          1   -1    0    0  501    0  0.00000000000E+00  0.00000000000E+00  0.29214281319E+03  0.29214281319E+03  0.00000000000E+00 0. -1.
         -1   -1    0    0    0  501 -0.00000000000E+00 -0.00000000000E+00 -0.11496512386E+03  0.11496512386E+03  0.00000000000E+00 0.  1.
         25    2    1    2    0    0  0.14456111409E+03 -0.13762741665E+02  0.13090691165E+03  0.23210239678E+03  0.12509026465E+03 0.  0.
          5    1    3    3  502    0  0.12287529371E+03  0.17008478753E+02  0.34955338984E+02  0.12894562527E+03  0.41800000000E+01 0. -1.
         -5    1    3    3    0  502  0.21685820379E+02 -0.30771220418E+02  0.95951572667E+02  0.10315677151E+03  0.41800000000E+01 0. -1.
        -11    1    1    2    0    0 -0.78377186810E+02 -0.32739439809E+02  0.39965606350E+02  0.93872807682E+02  0.00000000000E+00 0. -1.
         11    1    1    2    0    0 -0.66183927276E+02  0.46502181474E+02  0.63051713244E+01  0.81132732587E+02  0.00000000000E+00 0.  1.
</event>
<event>
 6    1  0.3151015E-009  0.1883229E+03  0.7561462E-02  0.1159983E+00
         -1   -1    0    0    0  501 -0.00000000000E+00  0.00000000000E+00  0.10652040228E+04  0.10652040228E+04  0.00000000000E+00 0.  1.
          1   -1    0    0  501    0  0.00000000000E+00 -0.00000000000E+00 -0.42879408767E+02  0.42879408767E+02  0.00000000000E+00 0. -1.
          5    1    1    2  502    0 -0.11377144088E+02 -0.11645624376E+03  0.49899284056E+03  0.51254543550E+03  0.41800000000E+01 0.  1.
         -5    1    1    2    0  502 -0.82681992658E+02 -0.19926918415E+02  0.24233603558E+03  0.25686109189E+03  0.41800000000E+01 0.  1.
        -11    1    1    2    0    0  0.57317431418E+02  0.12229094386E+03  0.26247715787E+03  0.29518574034E+03  0.00000000000E+00 0.  1.
         11    1    1    2    0    0  0.36741705328E+02  0.14092218318E+02  0.18518580052E+02  0.43491163869E+02  0.00000000000E+00 0. -1.
</event>
<event>
 7    1  0.3151015E-009  0.7335460E+02  0.7561462E-02  0.1349043E+00
          2   -1    0    0  501    0  0.00000000000E+00  0.00000000000E+00  0.55813203884E+03  0.55813203884E+03  0.00000000000E+00 0. -1.
         -2   -1    0    0    0  501 -0.00000000000E+00 -0.00000000000E+00 -0.34790936312E+02  0.34790936312E+02  0.00000000000E+00 0.  1.
         25    2    1    2    0    0  0.35955135864E+02  0.46961883400E+02  0.14977793553E+03  0.20390839721E+03  0.12508802578E+03 0.  0.
          5    1    3    3  502    0 -0.66269813109E+01  0.11160461888E+02 -0.20557775138E+02  0.24669157048E+02  0.41800000000E+01 0. -1.
         -5    1    3    3    0  502  0.42582117175E+02  0.35801421511E+02  0.17033571067E+03  0.17923924016E+03  0.41800000000E+01 0. -1.
        -11    1    1    2    0    0  0.10841288864E+02  0.20204488550E+00  0.13602689040E+01  0.10928160772E+02  0.00000000000E+00 0.  1.
         11    1    1    2    0    0 -0.46796424728E+02 -0.47163928285E+02  0.37220289809E+03  0.37808641717E+03  0.00000000000E+00 0. -1.
</event>
<event>
 7    1  0.3151015E-009  0.7540563E+02  0.7561462E-02  0.1342620E+00
          4   -1    0    0  501    0  0.00000000000E+00  0.00000000000E+00  0.87654201279E+02  0.87654201279E+02  0.00000000000E+00 0.  1.
         -4   -1    0    0    0  501 -0.00000000000E+00 -0.00000000000E+00 -0.16603580147E+03  0.16603580147E+03  0.00000000000E+00 0. -1.
         25    2    1    2    0    0  0.31786333252E+02  0.18084786486E+02 -0.69988810734E+01  0.13051607702E+03  0.12509209223E+03 0.  0.
          5    1    3    3  502    0  0.42241138147E+01  0.28296698677E+02 -0.61777651313E+02  0.68209214152E+02  0.41800000000E+01 0.  1.
         -5    1    3    3    0  502  0.27562219437E+02 -0.10211912191E+02  0.54778770239E+02  0.62306862863E+02  0.41800000000E+01 0.  1.
        -11    1    1    2    0    0  0.29228368780E+02 -0.31900998199E+01 -0.18277152291E+01  0.29458696871E+02  0.00000000000E+00 0.  1.
         11    1    1    2    0    0 -0.61014702032E+02 -0.14894686666E+02 -0.69555003888E+02  0.93715228863E+02  0.00000000000E+00 0. -1.
</event>
<event>
 7    1  0.3151015E-009  0.8822322E+02  0.7561462E-02  0.1307212E+00
         -2   -1    0    0    0  501 -0.00000000000E+00  0.00000000000E+00  0.12835254346E+03  0.12835254346E+03  0.00000000000E+00 0.  1.
          2   -1    0    0  501    0  0.00000000000E+00 -0.00000000000E+00 -0.10073778001E+03  0.10073778001E+03  0.00000000000E+00 0. -1.
         25    2    1    2    0    0 -0.24013448192E+02 -0.22227535589E+01  0.10082753239E+02  0.12779611520E+03  0.12509435966E+03 0.  0.
          5    1    3    3  502    0 -0.53544397385E+02  0.68826638853E+01 -0.41020006260E+02  0.67930014479E+02  0.41800000000E+01 0.  1.
         -5    1    3    3    0  502  0.29530949193E+02 -0.91054174442E+01  0.51102759499E+02  0.59866100721E+02  0.41800000000E+01 0.  1.
        -11    1    1    2    0    0 -0.21577150038E+02  0.30579558989E+02  0.27812954504E+02  0.46628781562E+02  0.00000000000E+00 0.  1.
         11    1    1    2    0    0  0.45590598230E+02 -0.28356805430E+02 -0.10280944296E+02  0.54665426705E+02  0.00000000000E+00 0. -1.
</event>
<event>
 7    1  0.3151015E-009  0.1170600E+03  0.7561462E-02  0.1248027E+00
          2   -1    0    0  501    0  0.00000000000E+00  0.00000000000E+00  0.26767889167E+03  0.26767889167E+03  0.00000000000E+00 0. -1.
         -2   -1    0    0    0  501 -0.00000000000E+00 -0.00000000000E+00 -0.11613471376E+03  0.11613471376E+03  0.00000000000E+00 0.  1.
         25    2    1    2    0    0 -0.11822674581E+02  0.93512761739E+02  0.18782636035E+03  0.24456402878E+03  0.12509360611E+03 0.  0.
          5    1    3    3  502    0 -0.20407213677E+02  0.31555305265E+02  0.17694256840E+03  0.18093738301E+03  0.41800000000E+01 0. -1.
         -5    1    3    3    0  502  0.85845390958E+01  0.61957456474E+02  0.10883791951E+02  0.63626645766E+02  0.41800000000E+01 0. -1.
        -11    1    1    2    0    0  0.43175569785E+02 -0.98630150094E+01 -0.48676091237E+01  0.44554489223E+02  0.00000000000E+00 0.  1.
         11    1    1    2    0    0 -0.31352895203E+02 -0.83649746729E+02 -0.31414573313E+02  0.94695087423E+02  0.00000000000E+00 0. -1.
</event>
<event>
 7    1  0.3151015E-009  0.1565800E+03  0.7561462E-02  0.1192613E+00
          2   -1    0    0  501    0  0.00000000000E+00  0.00000000000E+00  0.40083396393E+03  0.40083396393E+03  0.00000000000E+00 0. -1.
         -2   -1    0    0    0  501 -0.00000000000E+00 -0.00000000000E+00 -0.72906359675E+02  0.72906359675E+02  0.00000000000E+00 0.  1.
         25    2    1    2    0    0 -0.58791043624E+02 -0.11770359098E+03  0.18666754907E+03  0.26038959092E+03  0.12508973997E+03 0.  0.
          5    1    3    3  502    0  0.87325795994E+01 -0.85419093503E+02  0.38200055487E+02  0.94071228973E+02  0.41800000000E+01 0. -1.
         -5    1    3    3    0  502 -0.67523623224E+02 -0.32284497472E+02  0.14846749358E+03  0.16631836194E+03  0.41800000000E+01 0. -1.
        -11    1    1    2    0    0  0.76966305521E+02  0.83917588223E+02  0.13113398983E+03  0.17367238435E+03  0.00000000000E+00 0.  1.
         11    1    1    2    0    0 -0.18175261897E+02  0.33786002752E+02  0.10126065363E+02  0.39678348337E+02  0.00000000000E+00 0. -1.
</event>
<event>
 7    1  0.3151015E-009  0.1679294E+03  0.7561462E-02  0.1180025E+00
         -1   -1    0    0    0  501 -0.00000000000E+00  0.00000000000E+00  0.37889462137E+02  0.37889462137E+02  0.00000000000E+00 0.  1.
          1   -1    0    0  501    0  0.00000000000E+00 -0.00000000000E+00 -0.10119041366E+04  0.10119041366E+04  0.00000000000E+00 0. -1.
         25    2    1    2    0    0  0.13474565844E+03  0.33885497342E+02 -0.28770572087E+03  0.34311208223E+03  0.12508676890E+03 0.  0.
          5    1    3    3  502    0  0.10061257589E+03  0.68130219283E+02 -0.12949865920E+03  0.17762880493E+03  0.41800000000E+01 0.  1.
         -5    1    3    3    0  502  0.34133082555E+02 -0.34244721941E+02 -0.15820706166E+03  0.16548327730E+03  0.41800000000E+01 0.  1.
        -11    1    1    2    0    0 -0.11372595498E+03 -0.62866303671E+02 -0.58421991799E+03  0.59849701549E+03  0.00000000000E+00 0. -1.
         11    1    1    2    0    0 -0.21019703457E+02  0.28980806330E+02 -0.10208903560E+03  0.10818450101E+03  0.00000000000E+00 0.  1.
</event>
<event>
 7    1  0.3151015E-009  0.1170446E+03  0.7561462E-02  0.1248054E+00
         -2   -1    0    0    0  501 -0.00000000000E+00  0.00000000000E+00  0.30636298604E+02  0.30636298604E+02  0.00000000000E+00 0.  1.
          2   -1    0    0  501    0  0.00000000000E+00 -0.00000000000E+00 -0.60796340645E+03  0.60796340645E+03  0.00000000000E+00 0. -1.
         25    2    1    2    0    0  0.41295444160E+02  0.70683470277E+02 -0.37312457528E+03  0.40195806834E+03  0.12508746278E+03 0.  0.
          5    1    3    3  502    0 -0.42820449229E+02  0.34619962093E+02 -0.10538237272E+03  0.11897499539E+03  0.41800000000E+01 0.  1.
         -5    1    3    3    0  502  0.84115893390E+02  0.36063508185E+02 -0.26774220256E+03  0.28298307295E+03  0.41800000000E+01 0.  1.
        -11    1    1    2    0    0 -0.33804295948E+02 -0.27944011540E+02 -0.18330802958E+03  0.18848191403E+03  0.00000000000E+00 0. -1.
         11    1    1    2    0    0 -0.74911482124E+01 -0.42739458737E+02 -0.20894502979E+02  0.48159722688E+02  0.00000000000E+00 0.  1.
</event>
<event>
 7    1  0.3151015E-009  0.1235144E+03  0.7561462E-02  0.1237409E+00
         -2   -1    0    0    0  501 -0.00000000000E+00  0.00000000000E+00  0.21975922745E+02  0.21975922745E+02  0.00000000000E+00 0.  1.
          2   -1    0    0  501    0  0.00000000000E+00 -0.00000000000E+00 -0.76819120326E+03  0.76819120326E+03  0.00000000000E+00 0. -1.
         25    2    1    2    0    0 -0.57092740620E+02 -0.41517427209E+02 -0.41258621680E+03  0.43687322424E+03  0.12509016736E+03 0.  0.
          5    1    3    3  502    0  0.21925353410E+02  0.22466996901E+02 -0.18335522477E+03  0.18607014248E+03  0.41800000000E+01 0. -1.
         -5    1    3    3    0  502 -0.79018094031E+02 -0.63984424110E+02 -0.22923099203E+03  0.25080308176E+03  0.41800000000E+01 0. -1.
        -11    1    1    2    0    0  0.67672727536E+02 -0.30996734100E+01 -0.23419753745E+03  0.24379846713E+03  0.00000000000E+00 0.  1.
         11    1    1    2    0    0 -0.10579986916E+02  0.44617100619E+02 -0.99431526267E+02  0.10949543464E+03  0.00000000000E+00 0. -1.
</event>
<event>
 7    1  0.3151015E-009  0.1154807E+03  0.7561462E-02  0.1250744E+00
         -3   -1    0    0    0  501 -0.00000000000E+00  0.00000000000E+00  0.56745308869E+02  0.56745308869E+02  0.00000000000E+00 0.  1.
          3   -1    0    0  501    0  0.00000000000E+00 -0.00000000000E+00 -0.29419962458E+03  0.29419962458E+03  0.00000000000E+00 0. -1.
         25    2    1    2    0    0  0.69253334085E+02 -0.54099403031E+01 -0.13321478917E+03  0.19549592955E+03  0.12508871524E+03 0.  0.
          5    1    3    3  502    0 -0.13942735682E+02  0.27674568181E+02  0.40799192634E+01  0.31534104451E+02  0.41800000000E+01 0.  1.
         -5    1    3    3    0  502  0.83196069768E+02 -0.33084508484E+02 -0.13729470843E+03  0.16396182510E+03  0.41800000000E+01 0.  1.
        -11    1    1    2    0    0 -0.37203099050E+02 -0.39905554244E+02 -0.28511332908E+02  0.61558264617E+02  0.00000000000E+00 0.  1.
         11    1    1    2    0    0 -0.32050235035E+02  0.45315494547E+02 -0.75728193635E+02  0.93890739283E+02  0.00000000000E+00 0. -1.
</event>
<event>
 7    1  0.3151015E-009  0.1535828E+03  0.7561462E-02  0.1196138E+00
         -2   -1    0    0    0  501 -0.00000000000E+00  0.00000000000E+00  0.24628429004E+02  0.24628429004E+02  0.00000000000E+00 0. -1.
          2   -1    0    0  501    0  0.00000000000E+00 -0.00000000000E+00 -0.11193627326E+04  0.11193627326E+04  0.00000000000E+00 0.  1.
         25    2    1    2    0    0 -0.11601469311E+03 -0.11674011097E+02 -0.42740921822E+03  0.46035009594E+03  0.12509148436E+03 0.  0.
          5    1    3    3  502    0  0.11754913469E+02 -0.33088472564E+02 -0.49530361381E+02  0.60858476039E+02  0.41800000000E+01 0. -1.
         -5    1    3    3    0  502 -0.12776960658E+03  0.21414461468E+02 -0.37787885684E+03  0.39949161990E+03  0.41800000000E+01 0. -1.
        -11    1    1    2    0    0  0.11685105609E+03 -0.12931398579E+02 -0.61042620635E+03  0.62164422605E+03  0.00000000000E+00 0.  1.
         11    1    1    2    0    0 -0.83636298376E+00  0.24605409676E+02 -0.56898879045E+02  0.61996839637E+02  0.00000000000E+00 0. -1.
</event>
<event>
 7    1  0.3151015E-009  0.8063442E+02  0.7561462E-02  0.1327261E+00
         -2   -1    0    0    0  501 -0.00000000000E+00  0.00000000000E+00  0.58391810670E+02  0.58391810670E+02  0.00000000000E+00 0. -1.
          2   -1    0    0  501    0  0.00000000000E+00 -0.00000000000E+00 -0.23410391265E+03  0.23410391265E+03  0.00000000000E+00 0.  1.
         25    2    1    2    0    0  0.21578995606E+02  0.17790340889E+02 -0.60441773822E+02  0.14171063570E+03  0.12508615817E+03 0.  0.
          5    1    3    3  502    0  0.33819879577E+02  0.33854169370E+02 -0.92130844284E+02  0.10390117375E+03  0.41800000000E+01 0. -1.
         -5    1    3    3    0  502 -0.12240883971E+02 -0.16063828481E+02  0.31689070462E+02  0.37809461945E+02  0.41800000000E+01 0. -1.
        -11    1    1    2    0    0 -0.37774405292E+02 -0.46340470300E+02 -0.50856707858E+02  0.78490442839E+02  0.00000000000E+00 0. -1.
         11    1    1    2    0    0  0.16195409686E+02  0.28550129412E+02 -0.64413620302E+02  0.72294644786E+02  0.00000000000E+00 0.  1.
</event>
<event>
 7    1  0.3151015E-009  0.1061627E+03  0.7561462E-02  0.1267846E+00
          2   -1    0    0  501    0  0.00000000000E+00  0.00000000000E+00  0.47228077862E+02  0.47228077862E+02  0.00000000000E+00 0. -1.
         -2   -1    0    0    0  501 -0.00000000000E+00 -0.00000000000E+00 -0.28702277286E+03  0.28702277286E+03  0.00000000000E+00 0.  1.
         25    2    1    2    0    0  0.12767746572E+02  0.69316714696E+01 -0.17929734535E+03  0.21910287287E+03  0.12508983743E+03 0.  0.
          5    1    3    3  502    0  0.24175167188E+02 -0.55336772999E+02 -0.10683946958E+03  0.12279552848E+03  0.41800000000E+01 0. -1.
         -5    1    3    3    0  502 -0.11407420616E+02  0.62268444469E+02 -0.72457875764E+02  0.96307344382E+02  0.41800000000E+01 0. -1.
        -11    1    1    2    0    0 -0.84920326963E+01  0.40169016020E+02 -0.53345808335E+02  0.67315969385E+02  0.00000000000E+00 0.  1.
         11    1    1    2    0    0 -0.42757138754E+01 -0.47100687490E+02 -0.71515413129E+01  0.47832008470E+02  0.00000000000E+00 0. -1.
</event>
<event>
 7    1  0.3151015E-009  0.7814693E+02  0.7561462E-02  0.1334394E+00
         -2   -1    0    0    0  501 -0.00000000000E+00  0.00000000000E+00  0.58093495714E+02  0.58093495714E+02  0.00000000000E+00 0.  1.
          2   -1    0    0  501    0  0.00000000000E+00 -0.00000000000E+00 -0.26761696395E+03  0.26761696395E+03  0.00000000000E+00 0. -1.
         25    2    1    2    0    0  0.44178713685E+02  0.47591791013E+02 -0.13701556924E+03  0.19656404040E+03  0.12508964166E+03 0.  0.
          5    1    3    3  502    0  0.18509179442E+02  0.33647400873E+02  0.15201672294E+02  0.41512655295E+02  0.41800000000E+01 0.  1.
         -5    1    3    3    0  502  0.25669534243E+02  0.13944390140E+02 -0.15221724153E+03  0.15505138511E+03  0.41800000000E+01 0.  1.
        -11    1    1    2    0    0  0.10612854496E+02 -0.28036560255E+02 -0.63574372205E+02  0.70287852384E+02  0.00000000000E+00 0. -1.
         11    1    1    2    0    0 -0.54791568181E+02 -0.19555230758E+02 -0.89335267931E+01  0.58858566876E+02  0.00000000000E+00 0.  1.
</event>
<event>
 7    1  0.3151015E-009  0.7465602E+02  0.7561462E-02  0.1344940E+00
          1   -1    0    0  501    0  0.00000000000E+00  0.00000000000E+00  0.21689499274E+03  0.21689499274E+03  0.00000000000E+00 0.  1.
         -1   -1    0    0    0  501 -0.00000000000E+00 -0.00000000000E+00 -0.56575217742E+02  0.56575217742E+02  0.00000000000E+00 0. -1.
         25    2    1    2    0    0 -0.29509875444E+01  0.24264590362E+02  0.91573817195E+02  0.15694192534E+03  0.12509006860E+03 0.  0.
          5    1    3    3  502    0  0.32814646934E+02 -0.21329183032E+02 -0.93815687944E+01  0.40462591801E+02  0.41800000000E+01 0. -1.
         -5    1    3    3    0  502 -0.35765634478E+02  0.45593773394E+02  0.10095538599E+03  0.11647933354E+03  0.41800000000E+01 0. -1.
        -11    1    1    2    0    0  0.19924361664E+02  0.25823778856E+01  0.80265207518E+02  0.82741479327E+02  0.00000000000E+00 0.  1.
         11    1    1    2    0    0 -0.16973374119E+02 -0.26846968248E+02 -0.11519249715E+02  0.33786805814E+02  0.00000000000E+00 0. -1.
</event>
<event>
 7    1  0.3151015E-009  0.9742120E+02  0.7561462E-02  0.1285814E+00
          2   -1    0    0  501    0  0.00000000000E+00  0.00000000000E+00  0.40783489774E+03  0.40783489774E+03  0.00000000000E+00 0. -1.
         -2   -1    0    0    0  501 -0.00000000000E+00 -0.00000000000E+00 -0.50294525796E+02  0.50294525796E+02  0.00000000000E+00 0.  1.
         25    2    1    2    0    0  0.97459838639E+01 -0.42251173879E+02  0.64029316654E+02  0.14705255263E+03  0.12507819134E+03 0.  0.
          5    1    3    3  502    0  0.57800360628E+02 -0.33081653802E+02  0.46161682726E+00  0.66730525228E+02  0.41800000000E+01 0.  1.
         -5    1    3    3    0  502 -0.48054376765E+02 -0.91695200761E+01  0.63567699827E+02  0.80322027402E+02  0.41800000000E+01 0.  1.
        -11    1    1    2    0    0  0.28223320684E+02  0.12946756276E+02  0.29792052212E+02  0.43031856844E+02  0.00000000000E+00 0.  1.
         11    1    1    2    0    0 -0.37969304548E+02  0.29304417603E+02  0.26371900308E+03  0.26804501407E+03  0.00000000000E+00 0. -1.
</event>
<event>
 7    1  0.3151015E-009  0.6916516E+02  0.7561462E-02  0.1362955E+00
         -1   -1    0    0    0  501 -0.00000000000E+00  0.00000000000E+00  0.14197153366E+03  0.14197153366E+03  0.00000000000E+00 0.  1.
          1   -1    0    0  501    0  0.00000000000E+00 -0.00000000000E+00 -0.11047825193E+03  0.11047825193E+03  0.00000000000E+00 0. -1.
         25    2    1    2    0    0 -0.17742411189E+02  0.65609879294E+02  0.99282545230E+01  0.14270796212E+03  0.12509013870E+03 0.  0.
          5    1    3    3  502    0 -0.91133108763E+01  0.39208792978E+02  0.67469879213E+02  0.78676800157E+02  0.41800000000E+01 0.  1.
         -5    1    3    3    0  502 -0.86291003131E+01  0.26401086316E+02 -0.57541624690E+02  0.64031161967E+02  0.41800000000E+01 0.  1.
        -11    1    1    2    0    0  0.22792244897E+01 -0.38456424828E+02  0.52931849798E+02  0.65466573133E+02  0.00000000000E+00 0.  1.
         11    1    1    2    0    0  0.15463186700E+02 -0.27153454466E+02 -0.31366822592E+02  0.44275250330E+02  0.00000000000E+00 0. -1.
</event>
<event>
 7    1  0.3151015E-009  0.1327518E+03  0.7561462E-02  0.1223429E+00
          1   -1    0    0  501    0  0.00000000000E+00  0.00000000000E+00  0.29736597402E+03  0.29736597402E+03  0.00000000000E+00 0. -1.
         -1   -1    0    0    0  501 -0.00000000000E+00 -0.00000000000E+00 -0.65178887029E+02  0.65178887029E+02  0.00000000000E+00 0.  1.
         25    2    1    2    0    0 -0.61365387868E+02  0.61261078538E+02  0.12836636187E+03  0.19910438376E+03  0.12508398059E+03 0.  0.
          5    1    3    3  502    0  0.49625063520E+01  0.76512709356E+02  0.97897586067E+02  0.12441957611E+03  0.41800000000E+01 0.  1.
         -5    1    3    3    0  502 -0.66327894220E+02 -0.15251630817E+02  0.30468775807E+02  0.74684807648E+02  0.41800000000E+01 0.  1.
        -11    1    1    2    0    0 -0.17969908563E+02 -0.30577823033E+02  0.10107391885E+02  0.36879265800E+02  0.00000000000E+00 0. -1.
         11    1    1    2    0    0  0.79335296431E+02 -0.30683255505E+02  0.93713333232E+02  0.12656121149E+03  0.00000000000E+00 0.  1.
</event>
<event>
 7    1  0.3151015E-009  0.9027682E+02  0.7561462E-02  0.1302183E+00
          2   -1    0    0  501    0  0.00000000000E+00  0.00000000000E+00  0.83700957327E+03  0.83700957327E+03  0.00000000000E+00 0. -1.
         -2   -1    0    0    0  501 -0.00000000000E+00 -0.00000000000E+00 -0.18033829343E+02  0.18033829343E+02  0.00000000000E+00 0.  1.
         25    2    1    2    0    0  0.27841687299E+02  0.13304705146E+02  0.62543651016E+03  0.63856927079E+03  0.12509080954E+03 0.  0.
          5    1    3    3  502    0 -0.58931587290E+01  0.53386198571E+02  0.13541925269E+03  0.14574176449E+03  0.41800000000E+01 0. -1.
         -5    1    3    3    0  502  0.33734846028E+02 -0.40081493425E+02  0.49001725747E+03  0.49282750630E+03  0.41800000000E+01 0. -1.
        -11    1    1    2    0    0 -0.45299774905E+02 -0.26282670511E+02  0.18634065845E+03  0.19356055736E+03  0.00000000000E+00 0. -1.
         11    1    1    2    0    0  0.17458087606E+02  0.12977965365E+02  0.71985753250E+01  0.22913574461E+02  0.00000000000E+00 0.  1.
</event>
<event>
 7    1  0.3151015E-009  0.8737707E+02  0.7561462E-02  0.1309331E+00
          1   -1    0    0  501    0  0.00000000000E+00  0.00000000000E+00  0.28990688723E+02  0.28990688723E+02  0.00000000000E+00 0. -1.
         -1   -1    0    0    0  501 -0.00000000000E+00 -0.00000000000E+00 -0.41160481888E+03  0.41160481888E+03  0.00000000000E+00 0.  1.
         25    2    1    2    0    0 -0.19682118309E+01  0.10222436178E+02 -0.22082204444E+03  0.25400482143E+03  0.12509077481E+03 0.  0.
          5    1    3    3  502    0  0.40054172040E+02 -0.35115972980E+01 -0.20160541759E+03  0.20561829884E+03  0.41800000000E+01 0. -1.
         -5    1    3    3    0  502 -0.42022383871E+02  0.13734033476E+02 -0.19216626843E+02  0.48386522597E+02  0.41800000000E+01 0. -1.
        -11    1    1    2    0    0  0.45653293070E+02 -0.49738864637E+01 -0.10612161251E+03  0.11563199971E+03  0.00000000000E+00 0.  1.
         11    1    1    2    0    0 -0.43685081239E+02 -0.52485497147E+01 -0.55670473212E+02  0.70958686463E+02  0.00000000000E+00 0. -1.
</event>
<event>
 7    1  0.3151015E-009  0.1134367E+03  0.7561462E-02  0.1254335E+00
         -3   -1    0    0    0  501 -0.00000000000E+00  0.00000000000E+00  0.43953942950E+02  0.43953942950E+02  0.00000000000E+00 0.  1.
          3   -1    0    0  501    0  0.00000000000E+00 -0.00000000000E+00 -0.46765277724E+03  0.46765277724E+03  0.00000000000E+00 0. -1.
         25    2    1    2    0    0 -0.63444396135E+02  0.10434668610E+02 -0.13271960683E+03  0.19337933930E+03  0.12508797353E+03 0.  0.
          5    1    3    3  502    0 -0.62172900155E+02  0.60898331046E+02 -0.10196671676E+03  0.13412218297E+03  0.41800000000E+01 0.  1.
         -5    1    3    3    0  502 -0.12714959803E+01 -0.50463662436E+02 -0.30752890062E+02  0.59257156324E+02  0.41800000000E+01 0.  1.
        -11    1    1    2    0    0  0.13916719294E+02  0.24711341221E+02 -0.89586194577E+01  0.29741928711E+02  0.00000000000E+00 0.  1.
         11    1    1    2    0    0  0.49527676841E+02 -0.35146009831E+02 -0.28202060801E+03  0.28848545218E+03  0.00000000000E+00 0. -1.
</event>
<event>
 7    1  0.4609986E-009  0.1633306E+03  0.7561462E-02  0.1184987E+00
          1   -1    0    0  501    0  0.00000000000E+00  0.00000000000E+00  0.13048935826E+04  0.13048935826E+04  0.00000000000E+00 0. -1.
         -1   -1    0    0    0  501 -0.00000000000E+00 -0.00000000000E+00 -0.22977922112E+02  0.22977922112E+02  0.00000000000E+00 0.  1.
         25    2    1    2    0    0 -0.90615212340E+02  0.82384884663E+02  0.89550413043E+03  0.91245467134E+03  0.12508994250E+03 0.  0.
          5    1    3    3  502    0  0.25871605154E+02  0.45513850510E+02  0.29357437827E+03  0.29823520670E+03  0.41800000000E+01 0. -1.
         -5    1    3    3    0  502 -0.11648681749E+03  0.36871034153E+02  0.60192975216E+03  0.61421946464E+03  0.41800000000E+01 0. -1.
        -11    1    1    2    0    0  0.46305239172E+02 -0.95112404331E+02  0.25134615416E+03  0.27270026374E+03  0.00000000000E+00 0.  1.
         11    1    1    2    0    0  0.44309973168E+02  0.12727519668E+02  0.13506537588E+03  0.14271656960E+03  0.00000000000E+00 0. -1.
</event>
<event>
 7    1  0.3151015E-009  0.1124810E+03  0.7561462E-02  0.1256043E+00
         -2   -1    0    0    0  501 -0.00000000000E+00  0.00000000000E+00  0.77575830976E+02  0.77575830976E+02  0.00000000000E+00 0. -1.
          2   -1    0    0  501    0  0.00000000000E+00 -0.00000000000E+00 -0.22510181343E+03  0.22510181343E+03  0.00000000000E+00 0.  1.
         25    2    1    2    0    0  0.63663189232E+02 -0.11310938634E+02 -0.12374090502E+03  0.18745627892E+03  0.12508839249E+03 0.  0.
          5    1    3    3  502    0  0.26638672357E+02 -0.65880997803E+02 -0.84956305119E+02  0.11083758801E+03  0.41800000000E+01 0. -1.
         -5    1    3    3    0  502  0.37024516875E+02  0.54570059169E+02 -0.38784599903E+02  0.76618690913E+02  0.41800000000E+01 0. -1.
        -11    1    1    2    0    0 -0.15419180059E+02  0.31756319250E+02 -0.46273511269E+02  0.58201827903E+02  0.00000000000E+00 0.  1.
         11    1    1    2    0    0 -0.48244009173E+02 -0.20445380616E+02  0.22488433836E+02  0.57019537581E+02  0.00000000000E+00 0. -1.
</event>
<event>
 7    1  0.3151015E-009  0.1192855E+03  0.7561462E-02  0.1244280E+00
         -1   -1    0    0    0  501 -0.00000000000E+00  0.00000000000E+00  0.87597258934E+02  0.87597258934E+02  0.00000000000E+00 0.  1.
          1   -1    0    0  501    0  0.00000000000E+00 -0.00000000000E+00 -0.31319771255E+03  0.31319771255E+03  0.00000000000E+00 0. -1.
         25    2    1    2    0    0 -0.83734089223E+02  0.43363470972E+02 -0.22172285807E+02  0.15821343081E+03  0.12509233037E+03 0.  0.
          5    1    3    3  502    0 -0.31542865256E+02 -0.35467454317E+02  0.23506609833E+02  0.53131212767E+02  0.41800000000E+01 0. -1.
         -5    1    3    3    0  502 -0.52191223968E+02  0.78830925290E+02 -0.45678895640E+02  0.10508221804E+03  0.41800000000E+01 0. -1.
        -11    1    1    2    0    0  0.54518558693E+02 -0.17469835783E+02 -0.29648576352E+02  0.64470973965E+02  0.00000000000E+00 0.  1.
         11    1    1    2    0    0  0.29215530530E+02 -0.25893635189E+02 -0.17377959145E+03  0.17811056671E+03  0.00000000000E+00 0. -1.
</event>
<event>
 7    1  0.3151015E-009  0.9224313E+02  0.7561462E-02  0.1297509E+00
         -1   -1    0    0    0  501 -0.00000000000E+00  0.00000000000E+00  0.56371451255E+02  0.56371451255E+02  0.00000000000E+00 0.  1.
          1   -1    0    0  501    0  0.00000000000E+00 -0.00000000000E+00 -0.27814423852E+03  0.27814423852E+03  0.00000000000E+00 0. -1.
         25    2    1    2    0    0  0.18461609686E+01 -0.42117869215E+02 -0.62991591227E+02  0.14626262110E+03  0.12508992984E+03 0.  0.
          5    1    3    3  502    0 -0.15786800210E+02 -0.84396657295E+02 -0.42788818783E+02  0.96022779778E+02  0.41800000000E+01 0. -1.
         -5    1    3    3    0  502  0.17632961178E+02  0.42278788080E+02 -0.20202772444E+02  0.50239841320E+02  0.41800000000E+01 0. -1.
        -11    1    1    2    0    0 -0.12824942750E+02  0.39084950836E+02 -0.16839603929E+03  0.17334745047E+03  0.00000000000E+00 0. -1.
         11    1    1    2    0    0  0.10978781782E+02  0.30329183796E+01  0.96148432483E+01  0.14905618202E+02  0.00000000000E+00 0.  1.
</event>
<event>
 7    1  0.3151015E-009  0.1075336E+03  0.7561462E-02  0.1265207E+00
          2   -1    0    0  501    0  0.00000000000E+00  0.00000000000E+00  0.49107182529E+03  0.49107182529E+03  0.00000000000E+00 0. -1.
         -2   -1    0    0    0  501 -0.00000000000E+00 -0.00000000000E+00 -0.55523640507E+02  0.55523640507E+02  0.00000000000E+00 0.  1.
         25    2    1    2    0    0 -0.62183474392E+02  0.52220609322E+02  0.76809440463E+02  0.16774846417E+03  0.12508429383E+03 0.  0.
          5    1    3    3  502    0 -0.34250652463E+02  0.63217386538E+02  0.10435320896E+03  0.12679357151E+03  0.41800000000E+01 0.  1.
         -5    1    3    3    0  502 -0.27932821929E+02 -0.10996777216E+02 -0.27543768501E+02  0.40954892666E+02  0.41800000000E+01 0.  1.
        -11    1    1    2    0    0  0.24668885204E+02 -0.67775543871E+02  0.29154376492E+03  0.30033289049E+03  0.00000000000E+00 0. -1.
         11    1    1    2    0    0  0.37514589187E+02  0.15554934550E+02  0.67194979398E+02  0.78514111133E+02  0.00000000000E+00 0.  1.
</event>
<event>
 7    1  0.3151015E-009  0.1179036E+03  0.7561462E-02  0.1246596E+00
          3   -1    0    0  501    0  0.00000000000E+00  0.00000000000E+00  0.26912042845E+03  0.26912042845E+03  0.00000000000E+00 0. -1.
         -3   -1    0    0    0  501 -0.00000000000E+00 -0.00000000000E+00 -0.64804690808E+02  0.64804690808E+02  0.00000000000E+00 0.  1.
         25    2    1    2    0    0  0.34018385777E+02 -0.66236933481E+02  0.10091341096E+03  0.17713151848E+03  0.12508987329E+03 0.  0.
          5    1    3    3  502    0  0.48540416881E+02 -0.87710726076E+02  0.35137868275E+02  0.10630844617E+03  0.41800000000E+01 0. -1.
         -5    1    3    3    0  502 -0.14522031104E+02  0.21473792595E+02  0.65775542684E+02  0.70823072308E+02  0.41800000000E+01 0. -1.
        -11    1    1    2    0    0  0.12220070390E+02 -0.12768637567E+02 -0.12936654701E+01  0.17721224450E+02  0.00000000000E+00 0.  1.
         11    1    1    2    0    0 -0.46238456167E+02  0.79005571048E+02  0.10469599215E+03  0.13907237633E+03  0.00000000000E+00 0. -1.
</event>
<event>
 7    1  0.3151015E-009  0.1035514E+03  0.7561462E-02  0.1273000E+00
          2   -1    0    0  501    0  0.00000000000E+00  0.00000000000E+00  0.47372110397E+02  0.47372110397E+02  0.00000000000E+00 0. -1.
         -2   -1    0    0    0  501 -0.00000000000E+00 -0.00000000000E+00 -0.29794392912E+03  0.29794392912E+03  0.00000000000E+00 0.  1.
         25    2    1    2    0    0 -0.15662432118E+02  0.33325324360E+02 -0.18860686506E+03  0.22929435418E+03  0.12508981688E+03 0.  0.
          5    1    3    3  502    0  0.54494336335E+02  0.60725579530E+01 -0.77296347867E+02  0.94861511933E+02  0.41800000000E+01 0. -1.
         -5    1    3    3    0  502 -0.70156768452E+02  0.27252766407E+02 -0.11131051719E+03  0.13443284225E+03  0.41800000000E+01 0. -1.
        -11    1    1    2    0    0  0.36599397347E+02  0.89998725541E+00  0.59990586093E+01  0.37098713824E+02  0.00000000000E+00 0. -1.
         11    1    1    2    0    0 -0.20936965229E+02 -0.34225311616E+02 -0.67964012266E+02  0.78922971507E+02  0.00000000000E+00 0.  1.
</event>
<event>
 7    1  0.3151015E-009  0.2318039E+03  0.7561462E-02  0.1125377E+00
          2   -1    0    0  501    0  0.00000000000E+00  0.00000000000E+00  0.11596316452E+04  0.11596316452E+04  0.00000000000E+00 0.  1.
         -2   -1    0    0    0  501 -0.00000000000E+00 -0.00000000000E+00 -0.50560066210E+02  0.50560066210E+02  0.00000000000E+00 0. -1.
         25    2    1    2    0    0  0.19489065464E+03  0.71299223335E+02  0.72403544218E+03  0.76350596989E+03  0.12509235794E+03 0.  0.
          5    1    3    3  502    0  0.15126712294E+03  0.10731512387E+03  0.56219630613E+03  0.59201388271E+03  0.41800000000E+01 0.  1.
         -5    1    3    3    0  502  0.43623531701E+02 -0.36015900535E+02  0.16183913605E+03  0.17149208718E+03  0.41800000000E+01 0.  1.
        -11    1    1    2    0    0 -0.14974214656E+03 -0.16927603787E+02  0.21505733174E+03  0.26260028591E+03  0.00000000000E+00 0. -1.
         11    1    1    2    0    0 -0.45148508082E+02 -0.54371619548E+02  0.16997880512E+03  0.18408545565E+03  0.00000000000E+00 0.  1.
</event>
<event>
 7    1  0.3151015E-009  0.1507924E+03  0.7561462E-02  0.1199503E+00
         -1   -1    0    0    0  501 -0.00000000000E+00  0.00000000000E+00  0.85013266338E+02  0.85013266338E+02  0.00000000000E+00 0.  1.
          1   -1    0    0  501    0  0.00000000000E+00 -0.00000000000E+00 -0.39487998748E+03  0.39487998748E+03  0.00000000000E+00 0. -1.
         25    2    1    2    0    0  0.98208945170E+02 -0.97534120932E+02 -0.86781987765E+02  0.20575827832E+03  0.12508978391E+03 0.  0.
          5    1    3    3  502    0  0.98686267844E+02 -0.10865975571E+03 -0.10741805837E+03  0.18193964284E+03  0.41800000000E+01 0. -1.
         -5    1    3    3    0  502 -0.47732267398E+00  0.11125634776E+02  0.20636070608E+02  0.23818635482E+02  0.41800000000E+01 0. -1.
        -11    1    1    2    0    0 -0.94003227401E+02  0.75938192094E+02 -0.12597855365E+03  0.17456749915E+03  0.00000000000E+00 0.  1.
         11    1    1    2    0    0 -0.42057177694E+01  0.21595928839E+02 -0.97106179736E+02  0.99567476353E+02  0.00000000000E+00 0. -1.
</event>
<event>
 7    1  0.3151015E-009  0.9943774E+02  0.7561462E-02  0.1281483E+00
         -2   -1    0    0    0  501 -0.00000000000E+00  0.00000000000E+00  0.11074486500E+03  0.11074486500E+03  0.00000000000E+00 0.  1.
          2   -1    0    0  501    0  0.00000000000E+00 -0.00000000000E+00 -0.19623117448E+03  0.19623117448E+03  0.00000000000E+00 0. -1.
         25    2    1    2    0    0  0.15182840111E+02 -0.54707050908E+02 -0.13249908412E+03  0.19085828856E+03  0.12508996349E+03 0.  0.
          5    1    3    3  502    0  0.70180213137E+02 -0.36627609894E+02 -0.79130420537E+02  0.11200866028E+03  0.41800000000E+01 0.  1.
         -5    1    3    3    0  502 -0.54997373026E+02 -0.18079441014E+02 -0.53368663586E+02  0.78849628282E+02  0.41800000000E+01 0.  1.
        -11    1    1    2    0    0 -0.16559029367E+02  0.16670883818E+02 -0.25220635084E+02  0.34470280748E+02  0.00000000000E+00 0. -1.
         11    1    1    2    0    0  0.13761892560E+01  0.38036167090E+02  0.72233409730E+02  0.81647470169E+02  0.00000000000E+00 0.  1.
</event>
<event>
 7    1  0.3151015E-009  0.2013083E+03  0.7561462E-02  0.1148640E+00
         -1   -1    0    0    0  501 -0.00000000000E+00  0.00000000000E+00  0.60595886664E+03  0.60595886664E+03  0.00000000000E+00 0.  1.
          1   -1    0    0  501    0  0.00000000000E+00 -0.00000000000E+00 -0.89322669663E+02  0.89322669663E+02  0.00000000000E+00 0. -1.
         25    2    1    2    0    0 -0.15840934356E+03 -0.86418747606E+02  0.11998625776E+03  0.25021083175E+03  0.12508812177E+03 0.  0.
          5    1    3    3  502    0 -0.17979465223E+03 -0.79455841259E+02  0.10946216643E+03  0.22503063338E+03  0.41800000000E+01 0. -1.
         -5    1    3    3    0  502  0.21385308665E+02 -0.69629063467E+01  0.10524091327E+02  0.25180198366E+02  0.41800000000E+01 0. -1.
        -11    1    1    2    0    0  0.10777553572E+03  0.41659134668E+02  0.15008080032E+03  0.18940775123E+03  0.00000000000E+00 0. -1.
         11    1    1    2    0    0  0.50633807840E+02  0.44759612938E+02  0.24656913891E+03  0.25566295333E+03  0.00000000000E+00 0.  1.
</event>
<event>
 7    1  0.3151015E-009  0.1078582E+03  0.7561462E-02  0.1264588E+00
         -2   -1    0    0    0  501 -0.00000000000E+00  0.00000000000E+00  0.11492824525E+02  0.11492824525E+02  0.00000000000E+00 0. -1.
          2   -1    0    0  501    0  0.00000000000E+00 -0.00000000000E+00 -0.10588968809E+04  0.10588968809E+04  0.00000000000E+00 0.  1.
         25    2    1    2    0    0 -0.13232518288E+01  0.14699618801E+02 -0.66455666242E+03  0.67638773430E+03  0.12508788810E+03 0.  0.
          5    1    3    3  502    0 -0.22200364663E+02  0.66200398374E+02 -0.34737724320E+03  0.35434978542E+03  0.41800000000E+01 0. -1.
         -5    1    3    3    0  502  0.20877112834E+02 -0.51500779573E+02 -0.31717941923E+03  0.32203794888E+03  0.41800000000E+01 0. -1.
        -11    1    1    2    0    0 -0.43705581820E+02 -0.51398406724E+01 -0.13739915757E+03  0.14427447573E+03  0.00000000000E+00 0. -1.
         11    1    1    2    0    0  0.45028833649E+02 -0.95597781282E+01 -0.24544823642E+03  0.24972749544E+03  0.00000000000E+00 0.  1.
</event>
<event>
 7    1  0.3151015E-009  0.1000396E+03  0.7561462E-02  0.1280213E+00
         -2   -1    0    0    0  501 -0.00000000000E+00  0.00000000000E+00  0.22680681648E+03  0.22680681648E+03  0.00000000000E+00 0.  1.
          2   -1    0    0  501    0  0.00000000000E+00 -0.00000000000E+00 -0.72384288911E+02  0.72384288911E+02  0.00000000000E+00 0. -1.
         25    2    1    2    0    0  0.61124847019E+02 -0.29389987772E+02  0.67184372811E+02  0.15735420934E+03  0.12508632596E+03 0.  0.
          5    1    3    3  502    0  0.19425231451E+02 -0.55081766637E+02  0.86569101108E+02  0.10451326375E+03  0.41800000000E+01 0.  1.
         -5    1    3    3    0  502  0.41699615567E+02  0.25691778865E+02 -0.19384728297E+02  0.52840945590E+02  0.41800000000E+01 0.  1.
        -11    1    1    2    0    0 -0.62597909969E+00 -0.16450205596E+02  0.58339488146E+02  0.60617629376E+02  0.00000000000E+00 0.  1.
         11    1    1    2    0    0 -0.60498867919E+02  0.45840193369E+02  0.28898666614E+02  0.81219266677E+02  0.00000000000E+00 0. -1.
</event>
<event>
 7    1  0.3151015E-009  0.1169627E+03  0.7561462E-02  0.1248193E+00
         -2   -1    0    0    0  501 -0.00000000000E+00  0.00000000000E+00  0.21017503197E+02  0.21017503197E+02  0.00000000000E+00 0.  1.
          2   -1    0    0  501    0  0.00000000000E+00 -0.00000000000E+00 -0.82295312757E+03  0.82295312757E+03  0.00000000000E+00 0. -1.
         25    2    1    2    0    0  0.46432887717E+02 -0.53873680422E+02 -0.38642955552E+03  0.41235042546E+03  0.12508671191E+03 0.  0.
          5    1    3    3  502    0 -0.35896510989E+02  0.12302171972E+02 -0.10089309316E+03  0.10787396157E+03  0.41800000000E+01 0.  1.
         -5    1    3    3    0  502  0.82329398706E+02 -0.66175852393E+02 -0.28553646236E+03  0.30447646390E+03  0.41800000000E+01 0.  1.
        -11    1    1    2    0    0 -0.22788580823E+02 -0.77215426139E+01 -0.21940345870E+02  0.32562561527E+02  0.00000000000E+00 0.  1.
         11    1    1    2    0    0 -0.23644306894E+02  0.61595223035E+02 -0.39356572298E+03  0.39905764377E+03  0.00000000000E+00 0. -1.
</event>
<event>
 7    1  0.3151015E-009  0.2130433E+03  0.7561462E-02  0.1139178E+00
         -2   -1    0    0    0  501 -0.00000000000E+00  0.00000000000E+00  0.50755844817E+02  0.50755844817E+02  0.00000000000E+00 0.  1.
          2   -1    0    0  501    0  0.00000000000E+00 -0.00000000000E+00 -0.20551429675E+04  0.20551429675E+04  0.00000000000E+00 0. -1.
         25    2    1    2    0    0  0.15038568416E+03  0.12370418821E+03 -0.17804659895E+04  0.17954457375E+04  0.12509067307E+03 0.  0.
          5    1    3    3  502    0  0.31038073560E+02  0.10487477340E+03 -0.93359792691E+03  0.93999183062E+03  0.41800000000E+01 0. -1.
         -5    1    3    3    0  502  0.11934761060E+03  0.18829414812E+02 -0.84686806257E+03  0.85545390690E+03  0.41800000000E+01 0. -1.
        -11    1    1    2    0    0 -0.63826613069E+02 -0.65346266136E+02 -0.41626476780E+02  0.10038293980E+03  0.00000000000E+00 0.  1.
         11    1    1    2    0    0 -0.86559071095E+02 -0.58357922078E+02 -0.18229465640E+03  0.21007013498E+03  0.00000000000E+00 0. -1.
</event>
<event>
 7    1  0.3151015E-009  0.9272243E+02  0.7561462E-02  0.1296390E+00
         -1   -1    0    0    0  501 -0.00000000000E+00  0.00000000000E+00  0.34717715563E+03  0.34717715563E+03  0.00000000000E+00 0.  1.
          1   -1    0    0  501    0  0.00000000000E+00 -0.00000000000E+00 -0.38232070317E+02  0.38232070317E+02  0.00000000000E+00 0. -1.
         25    2    1    2    0    0 -0.19565463106E+02  0.29311459683E+02  0.15753344776E+03  0.20421751217E+03  0.12508411610E+03 0.  0.
          5    1    3    3  502    0  0.30372177851E+02  0.27120420068E+02  0.14748634174E+03  0.15306103284E+03  0.41800000000E+01 0.  1.
         -5    1    3    3    0  502 -0.49937640958E+02  0.21910396149E+01  0.10047106019E+02  0.51156479339E+02  0.41800000000E+01 0.  1.
        -11    1    1    2    0    0 -0.25900716273E+02  0.15770814158E+02  0.24280014320E+02  0.38846940395E+02  0.00000000000E+00 0.  1.
         11    1    1    2    0    0  0.45466179379E+02 -0.45082273841E+02  0.12713162323E+03  0.14234477338E+03  0.00000000000E+00 0. -1.
</event>
<event>
 7    1  0.3151015E-009  0.1172863E+03  0.7561462E-02  0.1247642E+00
          2   -1    0    0  501    0  0.00000000000E+00  0.00000000000E+00  0.19708124945E+04  0.19708124945E+04  0.00000000000E+00 0. -1.
         -2   -1    0    0    0  501 -0.00000000000E+00 -0.00000000000E+00 -0.10031562897E+02  0.10031562897E+02  0.00000000000E+00 0.  1.
         25    2    1    2    0    0 -0.70761032330E+02  0.19832402500E+02  0.14400417293E+04  0.14473316803E+04  0.12509341718E+03 0.  0.
          5    1    3    3  502    0 -0.99323545857E+01 -0.36251817790E+02  0.91615494029E+03  0.91693521744E+03  0.41800000000E+01 0.  1.
         -5    1    3    3    0  502 -0.60828677744E+02  0.56084220290E+02  0.52388678898E+03  0.53039646291E+03  0.41800000000E+01 0.  1.
        -11    1    1    2    0    0  0.80521240005E+02 -0.41177237138E+02  0.44945319033E+03  0.45846199979E+03  0.00000000000E+00 0. -1.
         11    1    1    2    0    0 -0.97602076752E+01  0.21344834638E+02  0.71286012004E+02  0.75050377261E+02  0.00000000000E+00 0.  1.
</event>
<event>
 7    1  0.3151015E-009  0.1072625E+03  0.7561462E-02  0.1265725E+00
         -1   -1    0    0    0  501 -0.00000000000E+00  0.00000000000E+00  0.62155512379E+02  0.62155512379E+02  0.00000000000E+00 0.  1.
          1   -1    0    0  501    0  0.00000000000E+00 -0.00000000000E+00 -0.20145972683E+03  0.20145972683E+03  0.00000000000E+00 0. -1.
         25    2    1    2    0    0 -0.26031594056E+02 -0.19289578498E+01 -0.67588184186E+02  0.14455616100E+03  0.12508779427E+03 0.  0.
          5    1    3    3  502    0  0.21867292277E+02  0.50841825350E+02 -0.21173437902E+02  0.59404179559E+02  0.41800000000E+01 0.  1.
         -5    1    3    3    0  502 -0.47898886333E+02 -0.52770783200E+02 -0.46414746284E+02  0.85151981445E+02  0.41800000000E+01 0.  1.
        -11    1    1    2    0    0  0.53245452758E+02  0.17783868127E+02 -0.22183159669E+02  0.60360887815E+02  0.00000000000E+00 0.  1.
         11    1    1    2    0    0 -0.27213858702E+02 -0.15854910278E+02 -0.49532870597E+02  0.58698190389E+02  0.00000000000E+00 0. -1.
</event>
<event>
 7    1  0.3151015E-009  0.1496630E+03  0.7561462E-02  0.1200888E+00
          1   -1    0    0  501    0  0.00000000000E+00  0.00000000000E+00  0.23265650476E+03  0.23265650476E+03  0.00000000000E+00 0. -1.
         -1   -1    0    0    0  501 -0.00000000000E+00 -0.00000000000E+00 -0.10528792494E+03  0.10528792494E+03  0.00000000000E+00 0.  1.
         25    2    1    2    0    0  0.33951587323E+02  0.10724118142E+03  0.74671709019E+02  0.18406332521E+03  0.12510020897E+03 0.  0.
          5    1    3    3  502    0 -0.22911028660E+02  0.10468305474E+03  0.67063738228E+02  0.12648507647E+03  0.41800000000E+01 0. -1.
         -5    1    3    3    0  502  0.56862615984E+02  0.25581266806E+01  0.76079707906E+01  0.57578248742E+02  0.41800000000E+01 0. -1.
        -11    1    1    2    0    0 -0.16053071327E+02 -0.11455556464E+03  0.22222223535E+02  0.11779009172E+03  0.00000000000E+00 0. -1.
         11    1    1    2    0    0 -0.17898515996E+02  0.73143832170E+01  0.30474647267E+02  0.36091012770E+02  0.00000000000E+00 0.  1.
</event>
<event>
 7    1  0.3151015E-009  0.1013294E+03  0.7561462E-02  0.1277525E+00
          1   -1    0    0  501    0  0.00000000000E+00  0.00000000000E+00  0.13731979985E+04  0.13731979985E+04  0.00000000000E+00 0. -1.
         -1   -1    0    0    0  501 -0.00000000000E+00 -0.00000000000E+00 -0.10916868405E+02  0.10916868405E+02  0.00000000000E+00 0.  1.
         25    2    1    2    0    0 -0.11999714943E+02  0.79466959518E+01  0.10628362858E+04  0.10702687004E+04  0.12508787859E+03 0.  0.
          5    1    3    3  502    0 -0.26840316745E+01 -0.51809981499E+02  0.73737088566E+03  0.73920550162E+03  0.41800000000E+01 0.  1.
         -5    1    3    3    0  502 -0.93156832685E+01  0.59756677451E+02  0.32546540016E+03  0.33106319873E+03  0.41800000000E+01 0.  1.
        -11    1    1    2    0    0  0.50306255290E+02 -0.11220344655E+02  0.12489594319E+03  0.13511333051E+03  0.00000000000E+00 0. -1.
         11    1    1    2    0    0 -0.38306540347E+02  0.32736487029E+01  0.17454890104E+03  0.17873283599E+03  0.00000000000E+00 0.  1.
</event>
<event>
 7    1  0.3151015E-009  0.9520761E+02  0.7561462E-02  0.1290709E+00
         -1   -1    0    0    0  501 -0.00000000000E+00  0.00000000000E+00  0.37473784170E+02  0.37473784170E+02  0.00000000000E+00 0.  1.
          1   -1    0    0  501    0  0.00000000000E+00 -0.00000000000E+00 -0.42485657563E+03  0.42485657563E+03  0.00000000000E+00 0. -1.
         25    2    1    2    0    0 -0.34259963085E+02 -0.61130872989E+02 -0.23324938612E+03  0.27378734379E+03  0.12507399726E+03 0.  0.
          5    1    3    3  502    0 -0.43806084332E+02 -0.14150804769E+02 -0.12543289729E+02  0.47895979136E+02  0.41800000000E+01 0.  1.
         -5    1    3    3    0  502  0.95461212475E+01 -0.46980068220E+02 -0.22070609639E+03  0.22589136465E+03  0.41800000000E+01 0.  1.
        -11    1    1    2    0    0  0.68745735154E+01  0.67584560044E+02 -0.61169142301E+02  0.91414421659E+02  0.00000000000E+00 0.  1.
         11    1    1    2    0    0  0.27385389569E+02 -0.64536870552E+01 -0.92964263041E+02  0.97128594354E+02  0.00000000000E+00 0. -1.
</event>
<event>
 7    1  0.3151015E-009  0.1533715E+03  0.7561462E-02  0.1196390E+00
         -1   -1    0    0    0  501 -0.00000000000E+00  0.00000000000E+00  0.17057767349E+02  0.17057767349E+02  0.00000000000E+00 0.  1.
          1   -1    0    0  501    0  0.00000000000E+00 -0.00000000000E+00 -0.19805658104E+04  0.19805658104E+04  0.00000000000E+00 0. -1.
         25    2    1    2    0    0  0.85646575591E+02  0.70204245271E+02 -0.15722227779E+04  0.15810727827E+04  0.12507081535E+03 0.  0.
          5    1    3    3  502    0 -0.58610343544E+00  0.79839533802E+02 -0.79520747297E+03  0.79921654896E+03  0.41800000000E+01 0. -1.
         -5    1    3    3    0  502  0.86232679026E+02 -0.96352885304E+01 -0.77701530497E+03  0.78185623376E+03  0.41800000000E+01 0.  1.
        -11    1    1    2    0    0 -0.19740051696E+02 -0.71324772924E+02 -0.16450426893E+03  0.18038444326E+03  0.00000000000E+00 0.  1.
         11    1    1    2    0    0 -0.65906523895E+02  0.11205276529E+01 -0.22678099617E+03  0.23616635175E+03  0.00000000000E+00 0. -1.
</event>
<event>
 7    1  0.3151015E-009  0.1037963E+03  0.7561462E-02  0.1272509E+00
          1   -1    0    0  501    0  0.00000000000E+00  0.00000000000E+00  0.12686970032E+03  0.12686970032E+03  0.00000000000E+00 0. -1.
         -1   -1    0    0    0  501 -0.00000000000E+00 -0.00000000000E+00 -0.99974831716E+02  0.99974831716E+02  0.00000000000E+00 0.  1.
         25    2    1    2    0    0 -0.23634967276E+02 -0.62040457515E+01 -0.37850697487E+01  0.12748777149E+03  0.12506679521E+03 0.  0.
          5    1    3    3  502    0  0.48358290561E+02  0.65962573352E+01 -0.19249476160E+02  0.52631260760E+02  0.41800000000E+01 0.  1.
         -5    1    3    3    0  502 -0.71993257836E+02 -0.12800303087E+02  0.15464406411E+02  0.74856510730E+02  0.41800000000E+01 0.  1.
        -11    1    1    2    0    0  0.50598870315E+02  0.20797574201E+02 -0.17416829256E+01  0.54734068269E+02  0.00000000000E+00 0.  1.
         11    1    1    2    0    0 -0.26963903040E+02 -0.14593528450E+02  0.32421621281E+02  0.44622692279E+02  0.00000000000E+00 0. -1.
</event>
<event>
 7    1  0.3151015E-009  0.2074130E+03  0.7561462E-02  0.1143631E+00
          3   -1    0    0  501    0  0.00000000000E+00  0.00000000000E+00  0.48234864935E+02  0.48234864935E+02  0.00000000000E+00 0. -1.
         -3   -1    0    0    0  501 -0.00000000000E+00 -0.00000000000E+00 -0.10312656296E+04  0.10312656296E+04  0.00000000000E+00 0.  1.
         25    2    1    2    0    0  0.18215737240E+03 -0.46774920908E+02 -0.62829721996E+03  0.66766306988E+03  0.12508947488E+03 0.  0.
          5    1    3    3  502    0 -0.18541121443E+02  0.12695932910E+01 -0.42821257651E+02  0.46867019943E+02  0.41800000000E+01 0. -1.
         -5    1    3    3    0  502  0.20069849384E+03 -0.48044514199E+02 -0.58547596231E+03  0.62079604994E+03  0.41800000000E+01 0. -1.
        -11    1    1    2    0    0 -0.78638263396E+02  0.89203769362E+01 -0.24010742397E+03  0.25281440751E+03  0.00000000000E+00 0.  1.
         11    1    1    2    0    0 -0.10351910900E+03  0.37854543971E+02 -0.11462612071E+03  0.15902301713E+03  0.00000000000E+00 0. -1.
</event>
<event>
 7    1  0.3151015E-009  0.8095310E+02  0.7561462E-02  0.1326368E+00
          2   -1    0    0  501    0  0.00000000000E+00  0.00000000000E+00  0.88019417053E+03  0.88019417053E+03  0.00000000000E+00 0. -1.
         -2   -1    0    0    0  501 -0.00000000000E+00 -0.00000000000E+00 -0.21835330325E+02  0.21835330325E+02  0.00000000000E+00 0.  1.
         25    2    1    2    0    0 -0.53381468749E+02  0.55110725594E+02  0.71736742402E+03  0.73222259323E+03  0.12508849550E+03 0.  0.
          5    1    3    3  502    0 -0.25235169769E+02  0.28694135262E+02  0.66943431263E+03  0.67053705231E+03  0.41800000000E+01 0. -1.
         -5    1    3    3    0  502 -0.28146298980E+02  0.26416590331E+02  0.47933111388E+02  0.61685540918E+02  0.41800000000E+01 0. -1.
        -11    1    1    2    0    0  0.30833842199E+02 -0.71635005973E+01  0.19283725291E+02  0.37066205992E+02  0.00000000000E+00 0.  1.
         11    1    1    2    0    0  0.22547626550E+02 -0.47947224996E+02  0.12170769090E+03  0.13274070164E+03  0.00000000000E+00 0. -1.
</event>
<event>
 7    1  0.3151015E-009  0.7514737E+02  0.7561462E-02  0.1343415E+00
          2   -1    0    0  501    0  0.00000000000E+00  0.00000000000E+00  0.28771664959E+03  0.28771664959E+03  0.00000000000E+00 0. -1.
         -2   -1    0    0    0  501 -0.00000000000E+00 -0.00000000000E+00 -0.47197211150E+02  0.47197211150E+02  0.00000000000E+00 0.  1.
         25    2    1    2    0    0  0.22885614043E+02  0.44733273537E+01  0.87490988589E+02  0.15439664931E+03  0.12505954680E+03 0.  0.
          5    1    3    3  502    0  0.22397159839E+02  0.33567994719E+02  0.11008304449E+03  0.11732089380E+03  0.41800000000E+01 0. -1.
         -5    1    3    3    0  502  0.48845420473E+00 -0.29094667365E+02 -0.22592055899E+02  0.37075755506E+02  0.41800000000E+01 0. -1.
        -11    1    1    2    0    0  0.22844885358E+02  0.18271410154E+02  0.10972057717E+03  0.11355323981E+03  0.00000000000E+00 0. -1.
         11    1    1    2    0    0 -0.45730499402E+02 -0.22744737507E+02  0.43307872680E+02  0.66963971625E+02  0.00000000000E+00 0.  1.
</event>
<event>
 7    1  0.3151015E-009  0.1072920E+03  0.7561462E-02  0.1265668E+00
         -1   -1    0    0    0  501 -0.00000000000E+00  0.00000000000E+00  0.56039886231E+02  0.56039886231E+02  0.00000000000E+00 0. -1.
          1   -1    0    0  501    0  0.00000000000E+00 -0.00000000000E+00 -0.42256386144E+03  0.42256386144E+03  0.00000000000E+00 0.  1.
         25    2    1    2    0    0 -0.14709401944E+02  0.64778283222E+02 -0.66532616360E+02  0.15648011583E+03  0.12508734999E+03 0.  0.
          5    1    3    3  502    0  0.24914925394E+02  0.64970050557E+02 -0.87164313727E+02  0.11161071169E+03  0.41800000000E+01 0.  1.
         -5    1    3    3    0  502 -0.39624327338E+02 -0.19176733432E+00  0.20631697367E+02  0.44869404141E+02  0.41800000000E+01 0.  1.
        -11    1    1    2    0    0  0.24821107583E+02  0.12013676864E+02 -0.15792819480E+03  0.16031759269E+03  0.00000000000E+00 0.  1.
         11    1    1    2    0    0 -0.10111705639E+02 -0.76791960086E+02 -0.14206316405E+03  0.16180603915E+03  0.00000000000E+00 0. -1.
</event>
<event>
 7    1  0.3151015E-009  0.1164309E+03  0.7561462E-02  0.1249104E+00
          1   -1    0    0  501    0  0.00000000000E+00  0.00000000000E+00  0.84176842861E+02  0.84176842861E+02  0.00000000000E+00 0. -1.
         -1   -1    0    0    0  501 -0.00000000000E+00 -0.00000000000E+00 -0.23695528885E+03  0.23695528885E+03  0.00000000000E+00 0.  1.
         25    2    1    2    0    0 -0.93472716344E+02 -0.13630728186E+01 -0.78230938215E+02  0.17465264232E+03  0.12507781221E+03 0.  0.
          5    1    3    3  502    0 -0.60131592458E+01 -0.30495312773E+02  0.22078254420E+02  0.38354190168E+02  0.41800000000E+01 0. -1.
         -5    1    3    3    0  502 -0.87459557098E+02  0.29132239955E+02 -0.10030919263E+03  0.13629845215E+03  0.41800000000E+01 0. -1.
        -11    1    1    2    0    0  0.16926602175E+02 -0.23300270898E+02 -0.57444730630E+02  0.64259704032E+02  0.00000000000E+00 0.  1.
         11    1    1    2    0    0  0.76546114169E+02  0.24663343716E+02 -0.17102777140E+02  0.82219785353E+02  0.00000000000E+00 0. -1.
</event>
<event>
 7    1  0.3151015E-009  0.1234038E+03  0.7561462E-02  0.1237585E+00
          4   -1    0    0  501    0  0.00000000000E+00  0.00000000000E+00  0.93772023049E+02  0.93772023049E+02  0.00000000000E+00 0. -1.
         -4   -1    0    0    0  501 -0.00000000000E+00 -0.00000000000E+00 -0.35689961275E+03  0.35689961275E+03  0.00000000000E+00 0.  1.
         25    2    1    2    0    0  0.72220457797E+02  0.54275438379E+02 -0.27822618380E+03  0.31814945829E+03  0.12509057008E+03 0.  0.
          5    1    3    3  502    0 -0.18546672579E+02  0.60004110834E+02 -0.12381744767E+03  0.13889818259E+03  0.41800000000E+01 0.  1.
         -5    1    3    3    0  502  0.90767130377E+02 -0.57286724553E+01 -0.15440873613E+03  0.17925127570E+03  0.41800000000E+01 0.  1.
        -11    1    1    2    0    0 -0.26925257555E+02 -0.33522379152E+02 -0.39656249320E+02  0.58492200408E+02  0.00000000000E+00 0.  1.
         11    1    1    2    0    0 -0.45295200243E+02 -0.20753059226E+02  0.54754843418E+02  0.74029977104E+02  0.00000000000E+00 0. -1.
</event>
<event>
 7    1  0.3151015E-009  0.9062917E+02  0.7561462E-02  0.1301335E+00
          1   -1    0    0  501    0  0.00000000000E+00  0.00000000000E+00  0.30970435185E+02  0.30970435185E+02  0.00000000000E+00 0. -1.
         -1   -1    0    0    0  501 -0.00000000000E+00 -0.00000000000E+00 -0.56234971181E+03  0.56234971181E+03  0.00000000000E+00 0.  1.
         25    2    1    2    0    0  0.44332094357E+01 -0.65730429935E+02 -0.27574484819E+03  0.30988425387E+03  0.12511149718E+03 0.  0.
          5    1    3    3  502    0 -0.21767436602E+02 -0.16410388857E+02  0.93365088314E+00  0.27594678158E+02  0.41800000000E+01 0.  1.
         -5    1    3    3    0  502  0.26200646038E+02 -0.49320041079E+02 -0.27667849908E+03  0.28228957571E+03  0.41800000000E+01 0.  1.
        -11    1    1    2    0    0 -0.32677719909E+02  0.83609061308E+01 -0.19857647202E+02  0.39141592740E+02  0.00000000000E+00 0. -1.
         11    1    1    2    0    0  0.28244510474E+02  0.57369523805E+02 -0.23577678123E+03  0.24429430038E+03  0.00000000000E+00 0.  1.
</event>
<event>
 7    1  0.3151015E-009  0.9572398E+02  0.7561462E-02  0.1289554E+00
          1   -1    0    0  501    0  0.00000000000E+00  0.00000000000E+00  0.10920056884E+03  0.10920056884E+03  0.00000000000E+00 0. -1.
         -1   -1    0    0    0  501 -0.00000000000E+00 -0.00000000000E+00 -0.14772934811E+03  0.14772934811E+03  0.00000000000E+00 0.  1.
         25    2    1    2    0    0  0.29106078718E+02  0.56363856633E+02 -0.15976332962E+02  0.14116378617E+03  0.12509165902E+03 0.  0.
          5    1    3    3  502    0 -0.97229247877E+01  0.37967483959E+02 -0.64891279576E+02  0.75923749049E+02  0.41800000000E+01 0.  1.
         -5    1    3    3    0  502  0.38829003506E+02  0.18396372673E+02  0.48914946615E+02  0.65240037117E+02  0.41800000000E+01 0.  1.
        -11    1    1    2    0    0  0.26729522310E+02 -0.44300575602E+02 -0.27199438265E+02  0.58453552531E+02  0.00000000000E+00 0.  1.
         11    1    1    2    0    0 -0.55835601028E+02 -0.12063281031E+02  0.46469919599E+01  0.57312578250E+02  0.00000000000E+00 0. -1.
</event>
<event>
 7    1  0.3151015E-009  0.9327095E+02  0.7561462E-02  0.1295119E+00
         -1   -1    0    0    0  501 -0.00000000000E+00  0.00000000000E+00  0.18770580021E+03  0.18770580021E+03  0.00000000000E+00 0.  1.
          1   -1    0    0  501    0  0.00000000000E+00 -0.00000000000E+00 -0.73402576260E+02  0.73402576260E+02  0.00000000000E+00 0. -1.
         25    2    1    2    0    0 -0.30120178437E+02 -0.99795401915E+00  0.10249825266E+03  0.16450497997E+03  0.12509106912E+03 0.  0.
          5    1    3    3  502    0  0.42550901844E+02 -0.14190069412E+02  0.10146824675E+02  0.46177567808E+02  0.41800000000E+01 0.  1.
         -5    1    3    3    0  502 -0.72671080281E+02  0.13192115393E+02  0.92351427984E+02  0.11832741216E+03  0.41800000000E+01 0.  1.
        -11    1    1    2    0    0 -0.18090680745E+02 -0.54071896335E+01  0.37215069226E+02  0.41730945437E+02  0.00000000000E+00 0.  1.
         11    1    1    2    0    0  0.48210859182E+02  0.64051436526E+01 -0.25410097939E+02  0.54872451062E+02  0.00000000000E+00 0. -1.
</event>
<event>
 7    1  0.3151015E-009  0.1023857E+03  0.7561462E-02  0.1275358E+00
          2   -1    0    0  501    0  0.00000000000E+00  0.00000000000E+00  0.69150942584E+03  0.69150942584E+03  0.00000000000E+00 0. -1.
         -2   -1    0    0    0  501 -0.00000000000E+00 -0.00000000000E+00 -0.18342130471E+02  0.18342130471E+02  0.00000000000E+00 0.  1.
         25    2    1    2    0    0 -0.33225176201E+01  0.72366208657E+01  0.48248385693E+03  0.49849938981E+03  0.12509021402E+03 0.  0.
          5    1    3    3  502    0  0.56713084461E+02  0.18507350870E+02  0.30341517652E+03  0.30925254684E+03  0.41800000000E+01 0. -1.
         -5    1    3    3    0  502 -0.60035602081E+02 -0.11270730004E+02  0.17906868041E+03  0.18924684297E+03  0.41800000000E+01 0. -1.
        -11    1    1    2    0    0 -0.87543654215E+01  0.36929971105E+02  0.46219346647E+02  0.59805431895E+02  0.00000000000E+00 0.  1.
         11    1    1    2    0    0  0.12076883042E+02 -0.44166591970E+02  0.14446409179E+03  0.15154673460E+03  0.00000000000E+00 0. -1.
</event>
<event>
 6    1  0.3151015E-009  0.1872618E+03  0.7561462E-02  0.1160954E+00
          2   -1    0    0  501    0  0.00000000000E+00  0.00000000000E+00  0.13720534136E+04  0.13720534136E+04  0.00000000000E+00 0. -1.
         -2   -1    0    0    0  501 -0.00000000000E+00 -0.00000000000E+00 -0.27133725532E+02  0.27133725532E+02  0.00000000000E+00 0.  1.
          5    1    1    2  502    0 -0.28679579650E+02 -0.17268992801E+02  0.24092153439E+03  0.24327226421E+03  0.41800000000E+01 0.  1.
         -5    1    1    2    0  502 -0.51209719860E+02  0.15173313322E+03  0.57658950296E+03  0.59842986761E+03  0.41800000000E+01 0.  1.
        -11    1    1    2    0    0  0.87950305717E+02 -0.61828105961E+02  0.30771882694E+03  0.32595835227E+03  0.00000000000E+00 0.  1.
         11    1    1    2    0    0 -0.80610062066E+01 -0.72636034455E+02  0.21968982378E+03  0.23152665504E+03  0.00000000000E+00 0. -1.
</event>
<event>
 6    1  0.3151015E-009  0.1521692E+03  0.7561462E-02  0.1197833E+00
          1   -1    0    0  501    0  0.00000000000E+00  0.00000000000E+00  0.21461674251E+03  0.21461674251E+03  0.00000000000E+00 0. -1.
         -1   -1    0    0    0  501 -0.00000000000E+00 -0.00000000000E+00 -0.11772827793E+03  0.11772827793E+03  0.00000000000E+00 0.  1.
          5    1    1    2  502    0 -0.42634029347E+02  0.24191292860E+02  0.11984479642E+02  0.50635750818E+02  0.41800000000E+01 0.  1.
         -5    1    1    2    0  502  0.87897219256E+02  0.76143526791E+02  0.18174888533E+01  0.11638098423E+03  0.41800000000E+01 0.  1.
        -11    1    1    2    0    0  0.25032261089E+02 -0.33121296025E+02  0.44042671160E+02  0.60525954998E+02  0.00000000000E+00 0. -1.
         11    1    1    2    0    0 -0.70295450998E+02 -0.67213523626E+02  0.39043824924E+02  0.10480233038E+03  0.00000000000E+00 0.  1.
</event>
<event>
 7    1  0.3151015E-009  0.1097930E+03  0.7561462E-02  0.1260954E+00
          1   -1    0    0  501    0  0.00000000000E+00  0.00000000000E+00  0.13618151761E+03  0.13618151761E+03  0.00000000000E+00 0. -1.
         -1   -1    0    0    0  501 -0.00000000000E+00 -0.00000000000E+00 -0.15564553230E+03  0.15564553230E+03  0.00000000000E+00 0.  1.
         25    2    1    2    0    0 -0.15156093240E+02  0.61796944673E+02  0.54732098195E+02  0.15063697554E+03  0.12508927330E+03 0.  0.
          5    1    3    3  502    0 -0.21539349704E+02  0.81832432157E+02 -0.72687009273E+01  0.85034092878E+02  0.41800000000E+01 0. -1.
         -5    1    3    3    0  502  0.63832564636E+01 -0.20035487484E+02  0.62000799123E+02  0.65602882663E+02  0.41800000000E+01 0. -1.
        -11    1    1    2    0    0  0.53090328645E+02 -0.51845519611E+02 -0.69539065493E+02  0.10169671838E+03  0.00000000000E+00 0.  1.
         11    1    1    2    0    0 -0.37934235405E+02 -0.99514250628E+01 -0.46570473950E+01  0.39493355986E+02  0.00000000000E+00 0. -1.
</event>
<event>
 7    1  0.3151015E-009  0.1654118E+03  0.7561462E-02  0.1182719E+00
         -1   -1    0    0    0  501 -0.00000000000E+00  0.00000000000E+00  0.33306668982E+03  0.33306668982E+03  0.00000000000E+00 0.  1.
          1   -1    0    0  501    0  0.00000000000E+00 -0.00000000000E+00 -0.13241333583E+03  0.13241333583E+03  0.00000000000E+00 0. -1.
         25    2    1    2    0    0 -0.10759502057E+03 -0.11412526142E+03  0.20063927235E+03  0.28373192577E+03  0.12508566803E+03 0.  0.
          5    1    3    3  502    0 -0.37137766662E+02 -0.43914618990E+02 -0.22769465627E+01  0.57709309122E+02  0.41800000000E+01 0.  1.
         -5    1    3    3    0  502 -0.70457253910E+02 -0.70210642431E+02  0.20291621891E+03  0.22602261665E+03  0.41800000000E+01 0.  1.
        -11    1    1    2    0    0  0.11669241518E+03  0.88630943298E+02 -0.20259208705E+02  0.14792903504E+03  0.00000000000E+00 0. -1.
         11    1    1    2    0    0 -0.90973946097E+01  0.25494318123E+02  0.20273290349E+02  0.33819064843E+02  0.00000000000E+00 0.  1.
</event>
<event>
 7    1  0.3151015E-009  0.1015089E+03  0.7561462E-02  0.1277155E+00
         -3   -1    0    0    0  501 -0.00000000000E+00  0.00000000000E+00  0.28874152702E+03  0.28874152702E+03  0.00000000000E+00 0.  1.
          3   -1    0    0  501    0  0.00000000000E+00 -0.00000000000E+00 -0.84355084768E+02  0.84355084768E+02  0.00000000000E+00 0. -1.
         25    2    1    2    0    0 -0.31520135744E+02 -0.10317175958E+02  0.23555751492E+03  0.26876602401E+03  0.12509144555E+03 0.  0.
          5    1    3    3  502    0 -0.59934940461E+02  0.33990475157E+02  0.86716829649E+02  0.11083695428E+03  0.41800000000E+01 0. -1.
         -5    1    3    3    0  502  0.28414804717E+02 -0.44307651114E+02  0.14884068527E+03  0.15792906973E+03  0.41800000000E+01 0. -1.
        -11    1    1    2    0    0 -0.24330846855E+02  0.66109772281E+01  0.17060904500E+02  0.30442890648E+02  0.00000000000E+00 0.  1.
         11    1    1    2    0    0  0.55850982599E+02  0.37061987294E+01 -0.48231977165E+02  0.73887697133E+02  0.00000000000E+00 0. -1.
</event>
<event>
 7    1  0.3151015E-009  0.9840069E+02  0.7561462E-02  0.1283695E+00
          2   -1    0    0  501    0  0.00000000000E+00  0.00000000000E+00  0.24002732010E+03  0.24002732010E+03  0.00000000000E+00 0. -1.
         -2   -1    0    0    0  501 -0.00000000000E+00 -0.00000000000E+00 -0.62094782830E+02  0.62094782830E+02  0.00000000000E+00 0.  1.
         25    2    1    2    0    0 -0.53269871902E+02  0.14075571507E+02  0.11911739036E+03  0.18130809182E+03  0.12509144859E+03 0.  0.
          5    1    3    3  502    0 -0.89328943505E+02 -0.68939653903E+01  0.56672633964E+02  0.10609640308E+03  0.41800000000E+01 0.  1.
         -5    1    3    3    0  502  0.36059071603E+02  0.20969536897E+02  0.62444756393E+02  0.75211688743E+02  0.41800000000E+01 0.  1.
        -11    1    1    2    0    0  0.17929014456E+02 -0.22585210415E+02 -0.19269844745E+02  0.34682390421E+02  0.00000000000E+00 0.  1.
         11    1    1    2    0    0  0.35340857446E+02  0.85096389080E+01  0.78084991657E+02  0.86131620682E+02  0.00000000000E+00 0. -1.
</event>
<event>
 7    1  0.3151015E-009  0.1225786E+03  0.7561462E-02  0.1238903E+00
         -1   -1    0    0    0  501 -0.00000000000E+00  0.00000000000E+00  0.18627505783E+03  0.18627505783E+03  0.00000000000E+00 0.  1.
          1   -1    0    0  501    0  0.00000000000E+00 -0.00000000000E+00 -0.91153078115E+02  0.91153078115E+02  0.00000000000E+00 0. -1.
         25    2    1    2    0    0  0.28192701622E+02  0.65297204095E+02  0.55700168236E+02  0.15429306403E+03  0.12508112399E+03 0.  0.
          5    1    3    3  502    0 -0.42642222492E+02  0.23395587666E+02 -0.88515939650E+01  0.49613866781E+02  0.41800000000E+01 0. -1.
         -5    1    3    3    0  502  0.70834924114E+02  0.41901616429E+02  0.64551762201E+02  0.10467919725E+03  0.41800000000E+01 0. -1.
        -11    1    1    2    0    0  0.13607982220E+02  0.16911996867E+02 -0.24577042149E+01  0.21845666118E+02  0.00000000000E+00 0.  1.
         11    1    1    2    0    0 -0.41800683842E+02 -0.82209200961E+02  0.41879515698E+02  0.10128940580E+03  0.00000000000E+00 0. -1.
</event>
<event>
 7    1  0.3151015E-009  0.9803791E+02  0.7561462E-02  0.1284477E+00
         -2   -1    0    0    0  501 -0.00000000000E+00  0.00000000000E+00  0.44422665468E+03  0.44422665468E+03  0.00000000000E+00 0.  1.
          2   -1    0    0  501    0  0.00000000000E+00 -0.00000000000E+00 -0.34211728585E+02  0.34211728585E+02  0.00000000000E+00 0. -1.
         25    2    1    2    0    0 -0.37017810086E+02 -0.44779507531E+02  0.23325434813E+03  0.27098047255E+03  0.12508918028E+03 0.  0.
          5    1    3    3  502    0 -0.67917167507E+02 -0.23531643123E+02  0.60171728410E+02  0.93832772367E+02  0.41800000000E+01 0. -1.
         -5    1    3    3    0  502  0.30899357421E+02 -0.21247864407E+02  0.17308261972E+03  0.17714770018E+03  0.41800000000E+01 0. -1.
        -11    1    1    2    0    0  0.13848247233E+02  0.58025652343E+02  0.16965769817E+03  0.17984016467E+03  0.00000000000E+00 0.  1.
         11    1    1    2    0    0  0.23169562853E+02 -0.13246144813E+02  0.71028797983E+01  0.27617746046E+02  0.00000000000E+00 0. -1.
</event>
<event>
 7    1  0.3151015E-009  0.1191780E+03  0.7561462E-02  0.1244459E+00
          2   -1    0    0  501    0  0.00000000000E+00  0.00000000000E+00  0.67643767413E+03  0.67643767413E+03  0.00000000000E+00 0. -1.
         -2   -1    0    0    0  501 -0.00000000000E+00 -0.00000000000E+00 -0.26732818439E+02  0.26732818439E+02  0.00000000000E+00 0.  1.
         25    2    1    2    0    0  0.75406523130E+02 -0.10484752570E+02  0.29436237492E+03  0.32877302872E+03  0.12508566218E+03 0.  0.
          5    1    3    3  502    0  0.64859004430E+02  0.36908086048E+02  0.25619071615E+03  0.26687085400E+03  0.41800000000E+01 0. -1.
         -5    1    3    3    0  502  0.10547518700E+02 -0.47392838619E+02  0.38171658766E+02  0.61902174728E+02  0.41800000000E+01 0. -1.
        -11    1    1    2    0    0 -0.92438421739E+02  0.21095835902E+02  0.25473876603E+03  0.27181194791E+03  0.00000000000E+00 0. -1.
         11    1    1    2    0    0  0.17031898610E+02 -0.10611083332E+02  0.10060371474E+03  0.10258551594E+03  0.00000000000E+00 0.  1.
</event>
<event>
 7    1  0.3151015E-009  0.1285226E+03  0.7561462E-02  0.1229664E+00
         -4   -1    0    0    0  501 -0.00000000000E+00  0.00000000000E+00  0.14791090715E+03  0.14791090715E+03  0.00000000000E+00 0.  1.
          4   -1    0    0  501    0  0.00000000000E+00 -0.00000000000E+00 -0.13079463461E+03  0.13079463461E+03  0.00000000000E+00 0. -1.
         25    2    1    2    0    0 -0.56234005013E+02  0.41045629933E+02 -0.42199969171E+02  0.14925999445E+03  0.12510276372E+03 0.  0.
          5    1    3    3  502    0 -0.15162408583E+02  0.82203639291E+02 -0.34223777434E+02  0.90421658294E+02  0.41800000000E+01 0. -1.
         -5    1    3    3    0  502 -0.41071596430E+02 -0.41158009358E+02 -0.79761917366E+01  0.58838336161E+02  0.41800000000E+01 0. -1.
        -11    1    1    2    0    0  0.79344619528E+02 -0.45579154055E+02  0.47203793848E+02  0.10296225564E+03  0.00000000000E+00 0. -1.
         11    1    1    2    0    0 -0.23110614515E+02  0.45335241219E+01  0.12112447870E+02  0.26483291669E+02  0.00000000000E+00 0.  1.
</event>
<event>
 7    1  0.3151015E-009  0.1684019E+03  0.7561462E-02  0.1179525E+00
         -1   -1    0    0    0  501 -0.00000000000E+00  0.00000000000E+00  0.14741060328E+02  0.14741060328E+02  0.00000000000E+00 0.  1.
          1   -1    0    0  501    0  0.00000000000E+00 -0.00000000000E+00 -0.28614957065E+04  0.28614957065E+04  0.00000000000E+00 0. -1.
         25    2    1    2    0    0  0.75789892354E+02  0.12835542671E+03 -0.21096428645E+04  0.21185985831E+04  0.12509083612E+03 0.  0.
          5    1    3    3  502    0 -0.22208184170E+02  0.31416567805E+02 -0.18409830526E+03  0.18812193539E+03  0.41800000000E+01 0.  1.
         -5    1    3    3    0  502  0.97998076524E+02  0.96938858901E+02 -0.19255445592E+04  0.19304766477E+04  0.41800000000E+01 0.  1.
        -11    1    1    2    0    0 -0.51254554311E+02 -0.31226825796E+02 -0.14214472066E+03  0.15429603235E+03  0.00000000000E+00 0.  1.
         11    1    1    2    0    0 -0.24535338043E+02 -0.97128600910E+02 -0.59496706105E+03  0.60334215140E+03  0.00000000000E+00 0. -1.
</event>
<event>
 7    1  0.3151015E-009  0.1686370E+03  0.7561462E-02  0.1179277E+00
         -2   -1    0    0    0  501 -0.00000000000E+00  0.00000000000E+00  0.14334277855E+03  0.14334277855E+03  0.00000000000E+00 0.  1.
          2   -1    0    0  501    0  0.00000000000E+00 -0.00000000000E+00 -0.29112340175E+03  0.29112340175E+03  0.00000000000E+00 0. -1.
         25    2    1    2    0    0 -0.10063664143E+03  0.12755100688E+03 -0.14399867942E+02  0.20555973015E+03  0.12510177261E+03 0.  0.
          5    1    3    3  502    0  0.23899981732E+01  0.30894722453E+02  0.42874223650E+02  0.53064747434E+02  0.41800000000E+01 0.  1.
         -5    1    3    3    0  502 -0.10302663960E+03  0.96656284425E+02 -0.57274091592E+02  0.15249498272E+03  0.41800000000E+01 0.  1.
        -11    1    1    2    0    0  0.32952700850E+02 -0.23216555352E+02  0.74829243346E+01  0.40998574272E+02  0.00000000000E+00 0.  1.
         11    1    1    2    0    0  0.67683940579E+02 -0.10433445153E+03 -0.14086367959E+03  0.18790787587E+03  0.00000000000E+00 0. -1.
</event>
<event>
 7    1  0.3151015E-009  0.9868015E+02  0.7561462E-02  0.1283096E+00
         -2   -1    0    0    0  501 -0.00000000000E+00  0.00000000000E+00  0.24066068143E+02  0.24066068143E+02  0.00000000000E+00 0.  1.
          2   -1    0    0  501    0  0.00000000000E+00 -0.00000000000E+00 -0.14386387069E+04  0.14386387069E+04  0.00000000000E+00 0. -1.
         25    2    1    2    0    0 -0.28247244277E+02 -0.69657287123E+02 -0.12602921452E+04  0.12687134192E+04  0.12508958539E+03 0.  0.
          5    1    3    3  502    0 -0.50364210551E+02 -0.36148232270E+02 -0.24967306618E+03  0.25728847774E+03  0.41800000000E+01 0. -1.
         -5    1    3    3    0  502  0.22116966273E+02 -0.33509054853E+02 -0.10106190790E+04  0.10114249414E+04  0.41800000000E+01 0. -1.
        -11    1    1    2    0    0  0.87237809130E+01  0.74283979205E+02 -0.55351948445E+02  0.93048654566E+02  0.00000000000E+00 0.  1.
         11    1    1    2    0    0  0.19523463364E+02 -0.46266920820E+01 -0.98928545184E+02  0.10094270134E+03  0.00000000000E+00 0. -1.
</event>
<event>
 7    1  0.3151015E-009  0.1454331E+03  0.7561462E-02  0.1206200E+00
         -1   -1    0    0    0  501 -0.00000000000E+00  0.00000000000E+00  0.27955948944E+03  0.27955948944E+03  0.00000000000E+00 0.  1.
          1   -1    0    0  501    0  0.00000000000E+00 -0.00000000000E+00 -0.98365276832E+02  0.98365276832E+02  0.00000000000E+00 0. -1.
         25    2    1    2    0    0  0.94153089295E+02 -0.81969034014E+02  0.87155155570E+02  0.19707580322E+03  0.12513642281E+03 0.  0.
          5    1    3    3  502    0  0.83247525414E+02 -0.38190473003E+02  0.11252406277E+03  0.14514751055E+03  0.41800000000E+01 0. -1.
         -5    1    3    3    0  502  0.10905563882E+02 -0.43778561011E+02 -0.25368907201E+02  0.51928292677E+02  0.41800000000E+01 0. -1.
        -11    1    1    2    0    0 -0.76716262272E+02  0.10179664065E+03  0.71613910631E+02  0.14620702152E+03  0.00000000000E+00 0. -1.
         11    1    1    2    0    0 -0.17436827023E+02 -0.19827606639E+02  0.22425146410E+02  0.34641941533E+02  0.00000000000E+00 0.  1.
</event>
<event>
 7    1  0.3151015E-009  0.1740940E+03  0.7561462E-02  0.1173644E+00
          2   -1    0    0  501    0  0.00000000000E+00  0.00000000000E+00  0.18385243074E+04  0.18385243074E+04  0.00000000000E+00 0.  1.
         -2   -1    0    0    0  501 -0.00000000000E+00 -0.00000000000E+00 -0.23641188860E+02  0.23641188860E+02  0.00000000000E+00 0. -1.
         25    2    1    2    0    0  0.11849327837E+03  0.11493299767E+03  0.12311884936E+04  0.12484883420E+04  0.12509109642E+03 0.  0.
          5    1    3    3  502    0  0.19632999811E+01  0.27648989744E+02  0.42517797508E+02  0.50926974048E+02  0.41800000000E+01 0. -1.
         -5    1    3    3    0  502  0.11652997838E+03  0.87284007928E+02  0.11886706961E+04  0.11975613680E+04  0.41800000000E+01 0. -1.
        -11    1    1    2    0    0 -0.20670797438E+02 -0.57414287180E+02  0.10255799787E+03  0.11933911834E+03  0.00000000000E+00 0. -1.
         11    1    1    2    0    0 -0.97822480927E+02 -0.57518710492E+02  0.48113662702E+03  0.49433803585E+03  0.00000000000E+00 0.  1.
</event>
<event>
 7    1  0.3151015E-009  0.1292628E+03  0.7561462E-02  0.1228554E+00
          2   -1    0    0  501    0  0.00000000000E+00  0.00000000000E+00  0.13440062035E+04  0.13440062035E+04  0.00000000000E+00 0. -1.
         -2   -1    0    0    0  501 -0.00000000000E+00 -0.00000000000E+00 -0.38392689889E+02  0.38392689889E+02  0.00000000000E+00 0.  1.
         25    2    1    2    0    0  0.40627827292E+02  0.11591356512E+03  0.11534904348E+04  0.11667368699E+04  0.12509262721E+03 0.  0.
          5    1    3    3  502    0  0.49577598608E+02  0.90782183907E+02  0.11145652080E+04  0.11193625053E+04  0.41800000000E+01 0.  1.
         -5    1    3    3    0  502 -0.89497713161E+01  0.25131381214E+02  0.38925226889E+02  0.47374364552E+02  0.41800000000E+01 0.  1.
        -11    1    1    2    0    0 -0.20669887870E+02 -0.10098105675E+03  0.15928605802E+03  0.18972734744E+03  0.00000000000E+00 0. -1.
         11    1    1    2    0    0 -0.19957939421E+02 -0.14932508375E+02 -0.71629792190E+01  0.25934676084E+02  0.00000000000E+00 0.  1.
</event>
<event>
 7    1  0.4106895E-009  0.1983951E+03  0.7561462E-02  0.1151100E+00
          2   -1    0    0  501    0  0.00000000000E+00  0.00000000000E+00  0.27777796992E+03  0.27777796992E+03  0.00000000000E+00 0.  1.
         -2   -1    0    0    0  501 -0.00000000000E+00 -0.00000000000E+00 -0.15840948152E+03  0.15840948152E+03  0.00000000000E+00 0. -1.
         25    2    1    2    0    0 -0.68273843856E+02  0.16535499587E+03  0.53644237057E+02  0.22478622890E+03  0.12509017596E+03 0.  0.
          5    1    3    3  502    0  0.22631060697E+02  0.42535039769E+02  0.53240614311E+02  0.71926559271E+02  0.41800000000E+01 0. -1.
         -5    1    3    3    0  502 -0.90904904553E+02  0.12281995610E+03  0.40362274673E+00  0.15285966963E+03  0.41800000000E+01 0. -1.
        -11    1    1    2    0    0  0.75731360238E+02 -0.81011971582E+02  0.13002448306E+02  0.11165680510E+03  0.00000000000E+00 0. -1.
         11    1    1    2    0    0 -0.74575163822E+01 -0.84343024284E+02  0.52721803034E+02  0.99744417443E+02  0.00000000000E+00 0.  1.
</event>
<event>
 7    1  0.3151015E-009  0.2430087E+03  0.7561462E-02  0.1117805E+00
          1   -1    0    0  501    0  0.00000000000E+00  0.00000000000E+00  0.18358535510E+04  0.18358535510E+04  0.00000000000E+00 0. -1.
         -1   -1    0    0    0  501 -0.00000000000E+00 -0.00000000000E+00 -0.39572909463E+02  0.39572909463E+02  0.00000000000E+00 0.  1.
         25    2    1    2    0    0  0.17062782614E+03 -0.15942053671E+03  0.11976179419E+04  0.12265661677E+04  0.12508823437E+03 0.  0.
          5    1    3    3  502    0  0.17105364205E+02 -0.65006905252E+02  0.16311283771E+03  0.17647028487E+03  0.41800000000E+01 0. -1.
         -5    1    3    3    0  502  0.15352246194E+03 -0.94413631461E+02  0.10345051042E+04  0.10500958828E+04  0.41800000000E+01 0. -1.
        -11    1    1    2    0    0 -0.15148925443E+03  0.11555749915E+03  0.38083834415E+03  0.42584078503E+03  0.00000000000E+00 0.  1.
         11    1    1    2    0    0 -0.19138571710E+02  0.43863037559E+02  0.21782435548E+03  0.22301950774E+03  0.00000000000E+00 0. -1.
</event>
<event>
 7    1  0.3151015E-009  0.2552149E+03  0.7561462E-02  0.1110053E+00
         -1   -1    0    0    0  501 -0.00000000000E+00  0.00000000000E+00  0.77620038301E+02  0.77620038301E+02  0.00000000000E+00 0.  1.
          1   -1    0    0  501    0  0.00000000000E+00 -0.00000000000E+00 -0.94902872534E+03  0.94902872534E+03  0.00000000000E+00 0. -1.
         25    2    1    2    0    0 -0.90673121597E+02 -0.22596056655E+03 -0.52441243748E+03  0.59155433187E+03  0.12509328663E+03 0.  0.
          5    1    3    3  502    0  0.11376140153E+01 -0.13500261377E+03 -0.34417670660E+03  0.36973244063E+03  0.41800000000E+01 0. -1.
         -5    1    3    3    0  502 -0.91810735613E+02 -0.90957952781E+02 -0.18023573088E+03  0.22182189124E+03  0.41800000000E+01 0. -1.
        -11    1    1    2    0    0  0.52789439451E+02  0.17342638920E+03 -0.31358889086E+03  0.36221737929E+03  0.00000000000E+00 0. -1.
         11    1    1    2    0    0  0.37883682146E+02  0.52534177354E+02 -0.33407358701E+02  0.72877052483E+02  0.00000000000E+00 0.  1.
</event>
<event>
 7    1  0.3151015E-009  0.1078609E+03  0.7561462E-02  0.1264583E+00
          1   -1    0    0  501    0  0.00000000000E+00  0.00000000000E+00  0.24279410021E+03  0.24279410021E+03  0.00000000000E+00 0.  1.
         -1   -1    0    0    0  501 -0.00000000000E+00 -0.00000000000E+00 -0.53478207024E+02  0.53478207024E+02  0.00000000000E+00 0. -1.
         25    2    1    2    0    0  0.21249058829E+02 -0.26061078769E+02  0.11359199860E+03  0.17228081393E+03  0.12508730702E+03 0.  0.
          5    1    3    3  502    0 -0.50217125237E+02  0.48872325721E+00  0.28260707952E+02  0.57776626169E+02  0.41800000000E+01 0.  1.
         -5    1    3    3    0  502  0.71466184065E+02 -0.26549802026E+02  0.85331290645E+02  0.11450418776E+03  0.41800000000E+01 0.  1.
        -11    1    1    2    0    0 -0.31387747005E+02 -0.22977849112E+02  0.79152479277E+01  0.39696641692E+02  0.00000000000E+00 0. -1.
         11    1    1    2    0    0  0.10138688176E+02  0.49038927881E+02  0.67808646661E+02  0.84294851608E+02  0.00000000000E+00 0.  1.
</event>
<event>
 7    1  0.3151015E-009  0.1091195E+03  0.7561462E-02  0.1262209E+00
         -2   -1    0    0    0  501 -0.00000000000E+00  0.00000000000E+00  0.18801313373E+03  0.18801313373E+03  0.00000000000E+00 0. -1.
          2   -1    0    0  501    0  0.00000000000E+00 -0.00000000000E+00 -0.12140507077E+03  0.12140507077E+03  0.00000000000E+00 0.  1.
         25    2    1    2    0    0 -0.40105751417E+02 -0.38207953043E+02 -0.41755246684E+02  0.14303603217E+03  0.12508991527E+03 0.  0.
          5    1    3    3  502    0  0.36679389777E+02  0.17199147371E+02 -0.36768272537E+01  0.40892294670E+02  0.41800000000E+01 0.  1.
         -5    1    3    3    0  502 -0.76785141194E+02 -0.55407100414E+02 -0.38078419431E+02  0.10214373750E+03  0.41800000000E+01 0.  1.
        -11    1    1    2    0    0  0.35218280708E+02 -0.81236573487E+01 -0.11382161947E+02  0.37892937539E+02  0.00000000000E+00 0.  1.
         11    1    1    2    0    0  0.48874707090E+01  0.46331610392E+02  0.11974547159E+03  0.12848923479E+03  0.00000000000E+00 0. -1.
</event>
<event>
 7    1  0.3151015E-009  0.1799306E+03  0.7561462E-02  0.1167870E+00
          1   -1    0    0  501    0  0.00000000000E+00  0.00000000000E+00  0.42141655359E+03  0.42141655359E+03  0.00000000000E+00 0. -1.
         -1   -1    0    0    0  501 -0.00000000000E+00 -0.00000000000E+00 -0.78754545009E+02  0.78754545009E+02  0.00000000000E+00 0.  1.
         25    2    1    2    0    0 -0.14272188894E+03  0.38526182389E+02  0.16191071334E+03  0.25241388542E+03  0.12507552177E+03 0.  0.
          5    1    3    3  502    0 -0.86307971220E+02 -0.40351877862E+02  0.66158830882E+02  0.11606809746E+03  0.41800000000E+01 0. -1.
         -5    1    3    3    0  502 -0.56413917720E+02  0.78878060251E+02  0.95751882456E+02  0.13634578796E+03  0.41800000000E+01 0. -1.
        -11    1    1    2    0    0  0.85846942874E+02  0.17478854946E+02  0.11352629243E+03  0.14339953641E+03  0.00000000000E+00 0. -1.
         11    1    1    2    0    0  0.56874946066E+02 -0.56005037335E+02  0.67225002816E+02  0.10435767677E+03  0.00000000000E+00 0.  1.
</event>
<event>
 7    1  0.3151015E-009  0.1069429E+03  0.7561462E-02  0.1266338E+00
          1   -1    0    0  501    0  0.00000000000E+00  0.00000000000E+00  0.21796791551E+03  0.21796791551E+03  0.00000000000E+00 0. -1.
         -1   -1    0    0    0  501 -0.00000000000E+00 -0.00000000000E+00 -0.61345251382E+02  0.61345251382E+02  0.00000000000E+00 0.  1.
         25    2    1    2    0    0  0.21246169473E+02 -0.19469704580E+02  0.12542711528E+03  0.17946788062E+03  0.12508513026E+03 0.  0.
          5    1    3    3  502    0 -0.50547038654E+02 -0.24246807630E+02  0.52004359406E+02  0.76582221137E+02  0.41800000000E+01 0.  1.
         -5    1    3    3    0  502  0.71793208128E+02  0.47771030493E+01  0.73422755878E+02  0.10288565948E+03  0.41800000000E+01 0.  1.
        -11    1    1    2    0    0 -0.73706327092E-01 -0.30929356248E+02  0.32896428373E+02  0.45153134003E+02  0.00000000000E+00 0.  1.
         11    1    1    2    0    0 -0.21172463146E+02  0.50399060829E+02 -0.17008795341E+01  0.54692152264E+02  0.00000000000E+00 0. -1.
</event>
<event>
 7    1  0.3151015E-009  0.1287923E+03  0.7561462E-02  0.1229259E+00
          2   -1    0    0  501    0  0.00000000000E+00  0.00000000000E+00  0.67106681517E+02  0.67106681517E+02  0.00000000000E+00 0. -1.
         -2   -1    0    0    0  501 -0.00000000000E+00 -0.00000000000E+00 -0.32405278776E+03  0.32405278776E+03  0.00000000000E+00 0.  1.
         25    2    1    2    0    0 -0.56639996171E+02 -0.79860623654E+02 -0.15538572361E+03  0.22221095380E+03  0.12508867459E+03 0.  0.
          5    1    3    3  502    0  0.24847105980E+02 -0.14694497447E+02  0.62004294081E+01  0.29819870148E+02  0.41800000000E+01 0. -1.
         -5    1    3    3    0  502 -0.81487102151E+02 -0.65166126207E+02 -0.16158615302E+03  0.19239108365E+03  0.41800000000E+01 0. -1.
        -11    1    1    2    0    0  0.48850975590E+02  0.95080560293E+02 -0.10676055550E+03  0.15107794999E+03  0.00000000000E+00 0.  1.
         11    1    1    2    0    0  0.77890205811E+01 -0.15219936640E+02  0.52001728702E+01  0.17870565486E+02  0.00000000000E+00 0. -1.
</event>
<event>
 7    1  0.3151015E-009  0.1881731E+03  0.7561462E-02  0.1160119E+00
          2   -1    0    0  501    0  0.00000000000E+00  0.00000000000E+00  0.27979281614E+04  0.27979281614E+04  0.00000000000E+00 0. -1.
         -2   -1    0    0    0  501 -0.00000000000E+00 -0.00000000000E+00 -0.21648502132E+02  0.21648502132E+02  0.00000000000E+00 0.  1.
         25    2    1    2    0    0  0.12847877418E+03  0.10669165075E+03  0.22439514135E+04  0.22536312087E+04  0.12508307222E+03 0.  0.
          5    1    3    3  502    0 -0.24365225875E+02  0.25558302690E+02  0.38444805290E+03  0.38608893904E+03  0.41800000000E+01 0. -1.
         -5    1    3    3    0  502  0.15284400006E+03  0.81133348065E+02  0.18595033606E+04  0.18675422697E+04  0.41800000000E+01 0. -1.
        -11    1    1    2    0    0 -0.52058132068E+02 -0.33683108222E+02  0.78825439060E+02  0.10028983367E+03  0.00000000000E+00 0.  1.
         11    1    1    2    0    0 -0.76420642114E+02 -0.73008542532E+02  0.45350280669E+03  0.46565562114E+03  0.00000000000E+00 0. -1.
</event>
<event>
 7    1  0.3151015E-009  0.9708995E+02  0.7561462E-02  0.1286537E+00
         -1   -1    0    0    0  501 -0.00000000000E+00  0.00000000000E+00  0.74187979019E+02  0.74187979019E+02  0.00000000000E+00 0.  1.
          1   -1    0    0  501    0  0.00000000000E+00 -0.00000000000E+00 -0.19968150750E+03  0.19968150750E+03  0.00000000000E+00 0. -1.
         25    2    1    2    0    0  0.45843483694E+02 -0.97958617533E+01 -0.99205558954E+02  0.16639308085E+03  0.12508929020E+03 0.  0.
          5    1    3    3  502    0 -0.11420214222E+02  0.34883068872E+02 -0.84426988463E+02  0.92155512954E+02  0.41800000000E+01 0. -1.
         -5    1    3    3    0  502  0.57263697916E+02 -0.44678930626E+02 -0.14778570491E+02  0.74237567893E+02  0.41800000000E+01 0. -1.
        -11    1    1    2    0    0 -0.54807215568E+02  0.29929747603E+02  0.11723512099E+02  0.63537873791E+02  0.00000000000E+00 0.  1.
         11    1    1    2    0    0  0.89637318746E+01 -0.20133885850E+02 -0.38011481623E+02  0.43938531879E+02  0.00000000000E+00 0. -1.
</event>
<event>
 7    1  0.3151015E-009  0.1163467E+03  0.7561462E-02  0.1249248E+00
          2   -1    0    0  501    0  0.00000000000E+00  0.00000000000E+00  0.50588560963E+03  0.50588560963E+03  0.00000000000E+00 0.  1.
         -2   -1    0    0    0  501 -0.00000000000E+00 -0.00000000000E+00 -0.45826037576E+02  0.45826037576E+02  0.00000000000E+00 0. -1.
         25    2    1    2    0    0 -0.24242385636E+02 -0.91106285844E+02  0.15906376375E+03  0.22324090549E+03  0.12508865801E+03 0.  0.
          5    1    3    3  502    0  0.86095664756E+01 -0.42989235440E+02  0.15883549958E+03  0.16482835716E+03  0.41800000000E+01 0. -1.
         -5    1    3    3    0  502 -0.32851952112E+02 -0.48117050404E+02  0.22826416759E+00  0.58412548323E+02  0.41800000000E+01 0. -1.
        -11    1    1    2    0    0 -0.33937247303E+02  0.24835156055E+02  0.11952996244E+03  0.12671201069E+03  0.00000000000E+00 0.  1.
         11    1    1    2    0    0  0.58179632939E+02  0.66271129788E+02  0.18146584586E+03  0.20175873103E+03  0.00000000000E+00 0. -1.
</event>
<event>
 7    1  0.3151015E-009  0.1552008E+03  0.7561462E-02  0.1194224E+00
         -2   -1    0    0    0  501 -0.00000000000E+00  0.00000000000E+00  0.33486055491E+02  0.33486055491E+02  0.00000000000E+00 0.  1.
          2   -1    0    0  501    0  0.00000000000E+00 -0.00000000000E+00 -0.92808652830E+03  0.92808652830E+03  0.00000000000E+00 0. -1.
         25    2    1    2    0    0 -0.42308495422E+02 -0.10635112537E+03 -0.26098708900E+03  0.31122664437E+03  0.12508874007E+03 0.  0.
          5    1    3    3  502    0 -0.80994611857E+02 -0.49540972438E+02 -0.11058600546E+03  0.14581211234E+03  0.41800000000E+01 0.  1.
         -5    1    3    3    0  502  0.38686116434E+02 -0.56810152932E+02 -0.15040108353E+03  0.16541453204E+03  0.41800000000E+01 0.  1.
        -11    1    1    2    0    0 -0.18020765623E+02  0.77621668443E+02 -0.35440860220E+03  0.36325656046E+03  0.00000000000E+00 0.  1.
         11    1    1    2    0    0  0.60329261046E+02  0.28729456926E+02 -0.27920478161E+03  0.28708937895E+03  0.00000000000E+00 0. -1.
</event>
<event>
 7    1  0.3151015E-009  0.1073860E+03  0.7561462E-02  0.1265489E+00
         -2   -1    0    0    0  501 -0.00000000000E+00  0.00000000000E+00  0.19942528336E+03  0.19942528336E+03  0.00000000000E+00 0.  1.
          2   -1    0    0  501    0  0.00000000000E+00 -0.00000000000E+00 -0.71966653266E+02  0.71966653266E+02  0.00000000000E+00 0. -1.
         25    2    1    2    0    0 -0.99523324905E+01 -0.44395908236E+02  0.41006696557E+02  0.13928058191E+03  0.12508991064E+03 0.  0.
          5    1    3    3  502    0 -0.33464456101E+02 -0.75667976117E+02  0.52757534366E+02  0.98215794372E+02  0.41800000000E+01 0. -1.
         -5    1    3    3    0  502  0.23512123611E+02  0.31272067881E+02 -0.11750837809E+02  0.41064787537E+02  0.41800000000E+01 0. -1.
        -11    1    1    2    0    0  0.24557186369E+02 -0.16743240383E+02  0.53345828998E+02  0.61066922080E+02  0.00000000000E+00 0. -1.
         11    1    1    2    0    0 -0.14604853879E+02  0.61139148619E+02  0.33106104534E+02  0.71044432632E+02  0.00000000000E+00 0.  1.
</event>
<event>
 7    1  0.3151015E-009  0.1110818E+03  0.7561462E-02  0.1258580E+00
         -1   -1    0    0    0  501 -0.00000000000E+00  0.00000000000E+00  0.34992853398E+02  0.34992853398E+02  0.00000000000E+00 0.  1.
          1   -1    0    0  501    0  0.00000000000E+00 -0.00000000000E+00 -0.47794288027E+03  0.47794288027E+03  0.00000000000E+00 0. -1.
         25    2    1    2    0    0 -0.65524655134E+02  0.29254791334E+01 -0.19385209721E+03  0.23985184834E+03  0.12509290428E+03 0.  0.
          5    1    3    3  502    0 -0.75980685726E+02 -0.46039836998E+02 -0.14273146970E+03  0.16817394577E+03  0.41800000000E+01 0.  1.
         -5    1    3    3    0  502  0.10456030592E+02  0.48965316131E+02 -0.51120627505E+02  0.71677902565E+02  0.41800000000E+01 0.  1.
        -11    1    1    2    0    0  0.13948246951E+02  0.21724331754E+02 -0.10730564982E+02  0.27957918520E+02  0.00000000000E+00 0.  1.
         11    1    1    2    0    0  0.51576408183E+02 -0.24649810887E+02 -0.23836736469E+03  0.24512596681E+03  0.00000000000E+00 0. -1.
</event>
<event>
 7    1  0.3151015E-009  0.1179053E+03  0.7561462E-02  0.1246593E+00
          1   -1    0    0  501    0  0.00000000000E+00  0.00000000000E+00  0.14036046509E+03  0.14036046509E+03  0.00000000000E+00 0. -1.
         -1   -1    0    0    0  501 -0.00000000000E+00 -0.00000000000E+00 -0.16799794746E+03  0.16799794746E+03  0.00000000000E+00 0.  1.
         25    2    1    2    0    0 -0.10277411832E+03 -0.32413099620E+02 -0.12687077279E+02  0.16559270737E+03  0.12508738698E+03 0.  0.
          5    1    3    3  502    0 -0.42648230481E+02 -0.39469278649E+02 -0.63694531380E+02  0.86320109175E+02  0.41800000000E+01 0. -1.
         -5    1    3    3    0  502 -0.60125887836E+02  0.70561790289E+01  0.51007454102E+02  0.79272598194E+02  0.41800000000E+01 0. -1.
        -11    1    1    2    0    0  0.76000375054E+02  0.43862287587E+02  0.26901488811E+02  0.91780430272E+02  0.00000000000E+00 0. -1.
         11    1    1    2    0    0  0.26773743263E+02 -0.11449187967E+02 -0.41851893909E+02  0.50985274906E+02  0.00000000000E+00 0.  1.
</event>
<event>
 7    1  0.3151015E-009  0.1520743E+03  0.7561462E-02  0.1197947E+00
         -2   -1    0    0    0  501 -0.00000000000E+00  0.00000000000E+00  0.35176500950E+03  0.35176500950E+03  0.00000000000E+00 0.  1.
          2   -1    0    0  501    0  0.00000000000E+00 -0.00000000000E+00 -0.75368478596E+02  0.75368478596E+02  0.00000000000E+00 0. -1.
         25    2    1    2    0    0 -0.41500982849E+02  0.11561580132E+03  0.18593905396E+03  0.25555809030E+03  0.12508901086E+03 0.  0.
          5    1    3    3  502    0  0.73161220463E+00 -0.26183589706E+02  0.20154653789E+02  0.33313632280E+02  0.41800000000E+01 0. -1.
         -5    1    3    3    0  502 -0.42232595054E+02  0.14179939103E+03  0.16578440017E+03  0.22224445802E+03  0.41800000000E+01 0. -1.
        -11    1    1    2    0    0  0.14105908017E+02 -0.93061383362E+02  0.25435173921E+02  0.97500491213E+02  0.00000000000E+00 0. -1.
         11    1    1    2    0    0  0.27395074832E+02 -0.22554417961E+02  0.65022303023E+02  0.74074906581E+02  0.00000000000E+00 0.  1.
</event>
<event>
 7    1  0.3151015E-009  0.9462171E+02  0.7561462E-02  0.1292030E+00
          1   -1    0    0  501    0  0.00000000000E+00  0.00000000000E+00  0.17471852790E+03  0.17471852790E+03  0.00000000000E+00 0. -1.
         -1   -1    0    0    0  501 -0.00000000000E+00 -0.00000000000E+00 -0.76009637291E+02  0.76009637291E+02  0.00000000000E+00 0.  1.
         25    2    1    2    0    0 -0.15470471054E+02  0.33565714431E+02  0.33343464357E+02  0.13462632640E+03  0.12508584447E+03 0.  0.
          5    1    3    3  502    0 -0.60155327888E+02  0.95907158571E+01  0.52232127949E+02  0.80351184771E+02  0.41800000000E+01 0. -1.
         -5    1    3    3    0  502  0.44684856834E+02  0.23974998574E+02 -0.18888663592E+02  0.54275141632E+02  0.41800000000E+01 0. -1.
        -11    1    1    2    0    0 -0.25278602194E+02 -0.25219882571E+02  0.65392850506E+02  0.74506879569E+02  0.00000000000E+00 0. -1.
         11    1    1    2    0    0  0.40749073248E+02 -0.83458318607E+01 -0.27424257211E-01  0.41594959216E+02  0.00000000000E+00 0.  1.
</event>
<event>
 7    1  0.3151015E-009  0.9186169E+02  0.7561462E-02  0.1298405E+00
         -3   -1    0    0    0  501 -0.00000000000E+00  0.00000000000E+00  0.33697318019E+03  0.33697318019E+03  0.00000000000E+00 0.  1.
          3   -1    0    0  501    0  0.00000000000E+00 -0.00000000000E+00 -0.42777459848E+02  0.42777459848E+02  0.00000000000E+00 0. -1.
         25    2    1    2    0    0  0.33202019837E+02 -0.36474416844E+02  0.15587533861E+03  0.20585819140E+03  0.12509083330E+03 0.  0.
          5    1    3    3  502    0  0.80159364634E+02 -0.19806738558E+02  0.11283891312E+03  0.13988539361E+03  0.41800000000E+01 0.  1.
         -5    1    3    3    0  502 -0.46957344798E+02 -0.16667678286E+02  0.43036425494E+02  0.65972797797E+02  0.41800000000E+01 0.  1.
        -11    1    1    2    0    0 -0.14503828304E+02  0.69151524759E+01 -0.11682260814E+02  0.19865940374E+02  0.00000000000E+00 0. -1.
         11    1    1    2    0    0 -0.18698191533E+02  0.29559264368E+02  0.15000264254E+03  0.15402650826E+03  0.00000000000E+00 0.  1.
</event>
<event>
 6    1  0.3151015E-009  0.1679289E+03  0.7561462E-02  0.1180025E+00
          1   -1    0    0  501    0  0.00000000000E+00  0.00000000000E+00  0.91776768130E+03  0.91776768130E+03  0.00000000000E+00 0. -1.
         -1   -1    0    0    0  501 -0.00000000000E+00 -0.00000000000E+00 -0.43093306120E+02  0.43093306120E+02  0.00000000000E+00 0.  1.
          5    1    1    2  502    0  0.23567873830E+02 -0.77187494365E+02  0.10698042343E+03  0.13407325371E+03  0.41800000000E+01 0.  1.
         -5    1    1    2    0  502  0.69846135416E+01 -0.77546910121E+02  0.47993856938E+03  0.48623123190E+03  0.41800000000E+01 0.  1.
        -11    1    1    2    0    0 -0.34590650161E+02  0.15714659517E+02  0.33061863303E+02  0.50364177819E+02  0.00000000000E+00 0. -1.
         11    1    1    2    0    0  0.40381627890E+01  0.13901974497E+03  0.25469351907E+03  0.29019232400E+03  0.00000000000E+00 0.  1.
</event>
<event>
 7    1  0.3151015E-009  0.1345774E+03  0.7561462E-02  0.1220817E+00
         -1   -1    0    0    0  501 -0.00000000000E+00  0.00000000000E+00  0.21958282060E+03  0.21958282060E+03  0.00000000000E+00 0.  1.
          1   -1    0    0  501    0  0.00000000000E+00 -0.00000000000E+00 -0.12314393589E+03  0.12314393589E+03  0.00000000000E+00 0. -1.
         25    2    1    2    0    0 -0.65171654356E+02 -0.10379917364E+03  0.70743190108E+02  0.18887476964E+03  0.12508983444E+03 0.  0.
          5    1    3    3  502    0 -0.40730165330E+02 -0.33063854630E+02  0.96249917447E+02  0.10969814884E+03  0.41800000000E+01 0.  1.
         -5    1    3    3    0  502 -0.24441489026E+02 -0.70735319008E+02 -0.25506727339E+02  0.79176620795E+02  0.41800000000E+01 0.  1.
        -11    1    1    2    0    0  0.69063352406E+02  0.44528986359E+02 -0.12664282836E+02  0.83144220073E+02  0.00000000000E+00 0. -1.
         11    1    1    2    0    0 -0.38916980505E+01  0.59270187278E+02  0.38359977437E+02  0.70707766778E+02  0.00000000000E+00 0.  1.
</event>
<event>
 7    1  0.3151015E-009  0.1039420E+03  0.7561462E-02  0.1272218E+00
         -1   -1    0    0    0  501 -0.00000000000E+00  0.00000000000E+00  0.12722403405E+03  0.12722403405E+03  0.00000000000E+00 0.  1.
          1   -1    0    0  501    0  0.00000000000E+00 -0.00000000000E+00 -0.97955161565E+02  0.97955161565E+02  0.00000000000E+00 0. -1.
         25    2    1    2    0    0  0.13179123113E+02 -0.30442231802E+02  0.11398368597E+02  0.12994554416E+03  0.12512195202E+03 0.  0.
          5    1    3    3  502    0  0.28800413681E+02 -0.68254043047E+02 -0.21532834148E+02  0.77260685778E+02  0.41800000000E+01 0. -1.
         -5    1    3    3    0  502 -0.15621290568E+02  0.37811811245E+02  0.32931202745E+02  0.52684858383E+02  0.41800000000E+01 0. -1.
        -11    1    1    2    0    0 -0.43748088502E+02  0.41257840777E+02  0.49815552212E+01  0.60340041147E+02  0.00000000000E+00 0.  1.
         11    1    1    2    0    0  0.30568965389E+02 -0.10815608975E+02  0.12888948666E+02  0.34893610306E+02  0.00000000000E+00 0. -1.
</event>
<event>
 7    1  0.3151015E-009  0.1224515E+03  0.7561462E-02  0.1239107E+00
         -3   -1    0    0    0  501 -0.00000000000E+00  0.00000000000E+00  0.14038516109E+02  0.14038516109E+02  0.00000000000E+00 0.  1.
          3   -1    0    0  501    0  0.00000000000E+00 -0.00000000000E+00 -0.11933307580E+04  0.11933307580E+04  0.00000000000E+00 0. -1.
         25    2    1    2    0    0  0.86994215958E+01 -0.65358513588E+02 -0.77815937820E+03  0.79090210630E+03  0.12508680441E+03 0.  0.
          5    1    3    3  502    0 -0.52319700563E+01  0.36669262919E+02 -0.16654034426E+03  0.17066097099E+03  0.41800000000E+01 0. -1.
         -5    1    3    3    0  502  0.13931391652E+02 -0.10202777651E+03 -0.61161903394E+03  0.62024113531E+03  0.41800000000E+01 0. -1.
        -11    1    1    2    0    0  0.32822738951E+02  0.50968925807E+02 -0.30209125851E+03  0.30811408936E+03  0.00000000000E+00 0. -1.
         11    1    1    2    0    0 -0.41522160547E+02  0.14389587782E+02 -0.99041605161E+02  0.10835307843E+03  0.00000000000E+00 0.  1.
</event>
<event>
 7    1  0.3151015E-009  0.1406532E+03  0.7561462E-02  0.1212453E+00
         -2   -1    0    0    0  501 -0.00000000000E+00  0.00000000000E+00  0.43530027835E+03  0.43530027835E+03  0.00000000000E+00 0.  1.
          2   -1    0    0  501    0  0.00000000000E+00 -0.00000000000E+00 -0.53947968572E+02  0.53947968572E+02  0.00000000000E+00 0. -1.
         25    2    1    2    0    0 -0.69103069552E+02 -0.73572868426E+02  0.14721763311E+03  0.21796458549E+03  0.12508927947E+03 0.  0.
          5    1    3    3  502    0  0.18758157845E+02 -0.55074518405E+02  0.10163002982E+03  0.11718023052E+03  0.41800000000E+01 0. -1.
         -5    1    3    3    0  502 -0.87861227397E+02 -0.18498350021E+02  0.45587603290E+02  0.10078435497E+03  0.41800000000E+01 0. -1.
        -11    1    1    2    0    0  0.78199991092E+02  0.86931397524E+02  0.17881814765E+03  0.21365447903E+03  0.00000000000E+00 0. -1.
         11    1    1    2    0    0 -0.90969215400E+01 -0.13358529098E+02  0.55316529021E+02  0.57629182400E+02  0.00000000000E+00 0.  1.
</event>
<event>
 7    1  0.3151015E-009  0.1487851E+03  0.7561462E-02  0.1201974E+00
          2   -1    0    0  501    0  0.00000000000E+00  0.00000000000E+00  0.14759492990E+03  0.14759492990E+03  0.00000000000E+00 0. -1.
         -2   -1    0    0    0  501 -0.00000000000E+00 -0.00000000000E+00 -0.25639419322E+03  0.25639419322E+03  0.00000000000E+00 0.  1.
         25    2    1    2    0    0 -0.86770007693E+02 -0.10690224724E+03  0.30428801032E+02  0.18849542073E+03  0.12508991568E+03 0.  0.
          5    1    3    3  502    0 -0.59482246676E+02 -0.10570813464E+03  0.70094769340E+02  0.14015383151E+03  0.41800000000E+01 0. -1.
         -5    1    3    3    0  502 -0.27287761017E+02 -0.11941125949E+01 -0.39665968308E+02  0.48341589217E+02  0.41800000000E+01 0. -1.
        -11    1    1    2    0    0  0.62033150238E+02  0.32224608734E+02 -0.11242396086E+03  0.13238460678E+03  0.00000000000E+00 0.  1.
         11    1    1    2    0    0  0.24736857455E+02  0.74677638503E+02 -0.26804103492E+02  0.83109095610E+02  0.00000000000E+00 0. -1.
</event>
<event>
 7    1  0.3151015E-009  0.1195612E+03  0.7561462E-02  0.1243823E+00
          1   -1    0    0  501    0  0.00000000000E+00  0.00000000000E+00  0.52111328931E+03  0.52111328931E+03  0.00000000000E+00 0. -1.
         -1   -1    0    0    0  501 -0.00000000000E+00 -0.00000000000E+00 -0.40000329114E+02  0.40000329114E+02  0.00000000000E+00 0.  1.
         25    2    1    2    0    0  0.62012994460E+02  0.67505864453E+02  0.26638195797E+03  0.30823589451E+03  0.12508943168E+03 0.  0.
          5    1    3    3  502    0  0.35671719990E+02  0.97176091851E+02  0.23710462633E+03  0.25875034428E+03  0.41800000000E+01 0. -1.
         -5    1    3    3    0  502  0.26341274470E+02 -0.29670227398E+02  0.29277331638E+02  0.49485550239E+02  0.41800000000E+01 0. -1.
        -11    1    1    2    0    0 -0.18765500876E+02 -0.40507761235E+02  0.15547713046E+02  0.47273186103E+02  0.00000000000E+00 0.  1.
         11    1    1    2    0    0 -0.43247493583E+02 -0.26998103218E+02  0.19918328918E+03  0.20560453781E+03  0.00000000000E+00 0. -1.
</event>
<event>
 7    1  0.3151015E-009  0.1028496E+03  0.7561462E-02  0.1274415E+00
          1   -1    0    0  501    0  0.00000000000E+00  0.00000000000E+00  0.55535747545E+03  0.55535747545E+03  0.00000000000E+00 0. -1.
         -1   -1    0    0    0  501 -0.00000000000E+00 -0.00000000000E+00 -0.24466182785E+02  0.24466182785E+02  0.00000000000E+00 0.  1.
         25    2    1    2    0    0  0.48235215144E+01  0.30994268106E+02  0.36683200820E+03  0.38884110670E+03  0.12509105887E+03 0.  0.
          5    1    3    3  502    0 -0.29216101425E+02 -0.27412649836E+02  0.25451128289E+03  0.25767906293E+03  0.41800000000E+01 0.  1.
         -5    1    3    3    0  502  0.34039622940E+02  0.58406917942E+02  0.11232072531E+03  0.13116204378E+03  0.41800000000E+01 0.  1.
        -11    1    1    2    0    0  0.15848873089E+02  0.29648167443E+02  0.60217719081E+02  0.68966472306E+02  0.00000000000E+00 0. -1.
         11    1    1    2    0    0 -0.20672394603E+02 -0.60642435549E+02  0.10384156539E+03  0.12201607923E+03  0.00000000000E+00 0.  1.
</event>
<event>
 7    1  0.3151015E-009  0.4803707E+02  0.7561462E-02  0.1456226E+00
          1   -1    0    0  501    0  0.00000000000E+00  0.00000000000E+00  0.12820477844E+03  0.12820477844E+03  0.00000000000E+00 0. -1.
         -1   -1    0    0    0  501 -0.00000000000E+00 -0.00000000000E+00 -0.11387470861E+03  0.11387470861E+03  0.00000000000E+00 0.  1.
         25    2    1    2    0    0  0.17352192870E+02 -0.15788038800E+02 -0.38208471889E+02  0.13288086075E+03  0.12508826909E+03 0.  0.
          5    1    3    3  502    0  0.11768316322E+02 -0.67164523908E+01  0.45877936545E+02  0.48019386329E+02  0.41800000000E+01 0. -1.
         -5    1    3    3    0  502  0.55838765471E+01 -0.90715864089E+01 -0.84086408434E+02  0.84861474419E+02  0.41800000000E+01 0. -1.
        -11    1    1    2    0    0 -0.97033720563E+01 -0.26112909912E+02 -0.13232332511E+02  0.30840462334E+02  0.00000000000E+00 0.  1.
         11    1    1    2    0    0 -0.76488208133E+01  0.41900948711E+02  0.65770874229E+02  0.78358163963E+02  0.00000000000E+00 0. -1.
</event>
<event>
 7    1  0.3151015E-009  0.1013371E+03  0.7561462E-02  0.1277509E+00
         -1   -1    0    0    0  501 -0.00000000000E+00  0.00000000000E+00  0.83909793942E+02  0.83909793942E+02  0.00000000000E+00 0.  1.
          1   -1    0    0  501    0  0.00000000000E+00 -0.00000000000E+00 -0.18480063187E+03  0.18480063187E+03  0.00000000000E+00 0. -1.
         25    2    1    2    0    0 -0.58063533524E+02 -0.35403939823E+02 -0.67168112833E+02  0.15742917133E+03  0.12509027030E+03 0.  0.
          5    1    3    3  502    0 -0.79655388899E+02 -0.44008174462E+01  0.41778509482E+00  0.79887390239E+02  0.41800000000E+01 0.  1.
         -5    1    3    3    0  502  0.21591855375E+02 -0.31003122376E+02 -0.67585897928E+02  0.77541781088E+02  0.41800000000E+01 0.  1.
        -11    1    1    2    0    0  0.24108118003E+02  0.43622075823E+02 -0.51852039506E+02  0.71921629943E+02  0.00000000000E+00 0. -1.
         11    1    1    2    0    0  0.33955415521E+02 -0.82181360007E+01  0.18129314415E+02  0.39359624537E+02  0.00000000000E+00 0.  1.
</event>
<event>
 7    1  0.3151015E-009  0.8809145E+02  0.7561462E-02  0.1307540E+00
          2   -1    0    0  501    0  0.00000000000E+00  0.00000000000E+00  0.86736420567E+03  0.86736420567E+03  0.00000000000E+00 0. -1.
         -2   -1    0    0    0  501 -0.00000000000E+00 -0.00000000000E+00 -0.18950694425E+02  0.18950694425E+02  0.00000000000E+00 0.  1.
         25    2    1    2    0    0  0.35534716172E+01  0.18873572685E+02  0.69517024241E+03  0.70659770818E+03  0.12509922606E+03 0.  0.
          5    1    3    3  502    0  0.83884612128E+01 -0.52841589936E+02  0.25600049038E+03  0.26156514176E+03  0.41800000000E+01 0. -1.
         -5    1    3    3    0  502 -0.48349895956E+01  0.71715162621E+02  0.43916975203E+03  0.44503256642E+03  0.41800000000E+01 0. -1.
        -11    1    1    2    0    0 -0.23713273961E+02 -0.12599398562E+01 -0.40903653714E+00  0.23750244658E+02  0.00000000000E+00 0.  1.
         11    1    1    2    0    0  0.20159802344E+02 -0.17613632829E+02  0.15365230537E+03  0.15596694725E+03  0.00000000000E+00 0. -1.
</event>
<event>
 7    1  0.3151015E-009  0.2204647E+03  0.7561462E-02  0.1133537E+00
          2   -1    0    0  501    0  0.00000000000E+00  0.00000000000E+00  0.15073846697E+03  0.15073846697E+03  0.00000000000E+00 0. -1.
         -2   -1    0    0    0  501 -0.00000000000E+00 -0.00000000000E+00 -0.47502839117E+03  0.47502839117E+03  0.00000000000E+00 0.  1.
         25    2    1    2    0    0  0.14307858868E+02  0.20951089514E+03 -0.21648825078E+02  0.24538627046E+03  0.12508485157E+03 0.  0.
          5    1    3    3  502    0 -0.40100857752E+02  0.66117536072E+02  0.30658942004E+02  0.83288957812E+02  0.41800000000E+01 0.  1.
         -5    1    3    3    0  502  0.54408716620E+02  0.14339335907E+03 -0.52307767082E+02  0.16209731264E+03  0.41800000000E+01 0.  1.
        -11    1    1    2    0    0 -0.52781598732E+01 -0.11518988190E+03 -0.85762816843E+02  0.14370744107E+03  0.00000000000E+00 0. -1.
         11    1    1    2    0    0 -0.90296989949E+01 -0.94321013236E+02 -0.21687828228E+03  0.23667314661E+03  0.00000000000E+00 0.  1.
</event>
<event>
 7    1  0.3151015E-009  0.1306489E+03  0.7561462E-02  0.1226496E+00
         -2   -1    0    0    0  501 -0.00000000000E+00  0.00000000000E+00  0.69319173562E+02  0.69319173562E+02  0.00000000000E+00 0.  1.
          2   -1    0    0  501    0  0.00000000000E+00 -0.00000000000E+00 -0.33674295256E+03  0.33674295256E+03  0.00000000000E+00 0. -1.
         25    2    1    2    0    0 -0.38375273049E+02  0.83915419036E+02 -0.64964671933E+02  0.16846417898E+03  0.12508122107E+03 0.  0.
          5    1    3    3  502    0  0.27884269893E+02 -0.16996619914E+02 -0.40196352418E+01  0.33166963434E+02  0.41800000000E+01 0. -1.
         -5    1    3    3    0  502 -0.66259542942E+02  0.10091203895E+03 -0.60945036691E+02  0.13529721554E+03  0.41800000000E+01 0. -1.
        -11    1    1    2    0    0  0.80852367591E+01 -0.75791403718E+02 -0.77257483841E+02  0.10852846051E+03  0.00000000000E+00 0.  1.
         11    1    1    2    0    0  0.30290036290E+02 -0.81240153179E+01 -0.12520162323E+03  0.12906948664E+03  0.00000000000E+00 0. -1.
</event>
<event>
 7    1  0.3151015E-009  0.1180473E+03  0.7561462E-02  0.1246354E+00
         -2   -1    0    0    0  501 -0.00000000000E+00  0.00000000000E+00  0.56602464955E+03  0.56602464955E+03  0.00000000000E+00 0.  1.
          2   -1    0    0  501    0  0.00000000000E+00 -0.00000000000E+00 -0.33840752961E+02  0.33840752961E+02  0.00000000000E+00 0. -1.
         25    2    1    2    0    0 -0.46047850486E+02  0.57429224551E+02  0.18858786525E+03  0.23797243665E+03  0.12508787838E+03 0.  0.
          5    1    3    3  502    0  0.21802677852E+01  0.77135862165E+02  0.16164950535E+03  0.17917234658E+03  0.41800000000E+01 0. -1.
         -5    1    3    3    0  502 -0.48228118271E+02 -0.19706637614E+02  0.26938359900E+02  0.58800090069E+02  0.41800000000E+01 0. -1.
        -11    1    1    2    0    0  0.43554340659E+02 -0.76115863304E+02  0.31939528091E+03  0.33121586723E+03  0.00000000000E+00 0.  1.
         11    1    1    2    0    0  0.24935098263E+01  0.18686638753E+02  0.24200750424E+02  0.30677098628E+02  0.00000000000E+00 0. -1.
</event>
<event>
 7    1  0.3151015E-009  0.7213271E+02  0.7561462E-02  0.1352987E+00
          2   -1    0    0  501    0  0.00000000000E+00  0.00000000000E+00  0.24341486384E+03  0.24341486384E+03  0.00000000000E+00 0. -1.
         -2   -1    0    0    0  501 -0.00000000000E+00 -0.00000000000E+00 -0.76578202460E+02  0.76578202460E+02  0.00000000000E+00 0.  1.
         25    2    1    2    0    0 -0.47310645537E+02 -0.14650000100E+02  0.15316038677E+02  0.13540733309E+03  0.12509054772E+03 0.  0.
          5    1    3    3  502    0  0.13938424268E+02  0.18605484719E+02 -0.39916948408E+02  0.46381881192E+02  0.41800000000E+01 0.  1.
         -5    1    3    3    0  502 -0.61249069805E+02 -0.33255484819E+02  0.55232987084E+02  0.89025451893E+02  0.41800000000E+01 0.  1.
        -11    1    1    2    0    0  0.15895511953E+02 -0.59422723891E+00 -0.10359344949E+02  0.18982529706E+02  0.00000000000E+00 0.  1.
         11    1    1    2    0    0  0.31415133584E+02  0.15244227339E+02  0.16187996765E+03  0.16560320351E+03  0.00000000000E+00 0. -1.
</event>
<event>
 7    1  0.3151015E-009  0.1318924E+03  0.7561462E-02  0.1224674E+00
          2   -1    0    0  501    0  0.00000000000E+00  0.00000000000E+00  0.69052332672E+03  0.69052332672E+03  0.00000000000E+00 0. -1.
         -2   -1    0    0    0  501 -0.00000000000E+00 -0.00000000000E+00 -0.28624174644E+02  0.28624174644E+02  0.00000000000E+00 0.  1.
         25    2    1    2    0    0  0.20021051155E+02  0.87022987086E+02  0.34542333252E+03  0.37807284050E+03  0.12509177153E+03 0.  0.
          5    1    3    3  502    0  0.16817429468E+02 -0.28536459720E+02  0.44134493217E+02  0.55339690628E+02  0.41800000000E+01 0.  1.
         -5    1    3    3    0  502  0.32036216874E+01  0.11555944681E+03  0.30128883931E+03  0.32273314988E+03  0.41800000000E+01 0.  1.
        -11    1    1    2    0    0 -0.43966852591E+02 -0.31009643281E+02  0.76747353679E+02  0.93727468758E+02  0.00000000000E+00 0. -1.
         11    1    1    2    0    0  0.23945801435E+02 -0.56013343805E+02  0.23972846588E+03  0.24734719210E+03  0.00000000000E+00 0.  1.
</event>
<event>
 7    1  0.3151015E-009  0.2410709E+03  0.7561462E-02  0.1119081E+00
          1   -1    0    0  501    0  0.00000000000E+00  0.00000000000E+00  0.54049547630E+03  0.54049547630E+03  0.00000000000E+00 0. -1.
         -1   -1    0    0    0  501 -0.00000000000E+00 -0.00000000000E+00 -0.17972213089E+03  0.17972213089E+03  0.00000000000E+00 0.  1.
         25    2    1    2    0    0 -0.21385189727E+03  0.68246945495E+02  0.40030508823E+03  0.47569112370E+03  0.12509037519E+03 0.  0.
          5    1    3    3  502    0 -0.23016511520E+03  0.66280852057E+02  0.38038758329E+03  0.44953455654E+03  0.41800000000E+01 0. -1.
         -5    1    3    3    0  502  0.16313217923E+02  0.19660934382E+01  0.19917504947E+02  0.26156567162E+02  0.41800000000E+01 0. -1.
        -11    1    1    2    0    0  0.62928303473E+02 -0.93296699642E+01 -0.51812098473E+02  0.82045765691E+02  0.00000000000E+00 0.  1.
         11    1    1    2    0    0  0.15092359380E+03 -0.58917275531E+02  0.12280355657E+02  0.16248071780E+03  0.00000000000E+00 0. -1.
</event>
<event>
 7    1  0.3151015E-009  0.8338695E+02  0.7561462E-02  0.1319706E+00
          2   -1    0    0  501    0  0.00000000000E+00  0.00000000000E+00  0.71630253139E+03  0.71630253139E+03  0.00000000000E+00 0.  1.
         -2   -1    0    0    0  501 -0.00000000000E+00 -0.00000000000E+00 -0.19874291203E+02  0.19874291203E+02  0.00000000000E+00 0. -1.
         25    2    1    2    0    0 -0.40630815056E+02  0.93127605695E+01  0.47390204680E+03  0.49190198517E+03  0.12508725918E+03 0.  0.
          5    1    3    3  502    0 -0.49460036913E+02 -0.84351209853E+01  0.46814019135E+03  0.47083984291E+03  0.41800000000E+01 0. -1.
         -5    1    3    3    0  502  0.88292218565E+01  0.17747881555E+02  0.57618554550E+01  0.21062142259E+02  0.41800000000E+01 0. -1.
        -11    1    1    2    0    0  0.54720238682E+02 -0.36340058503E+02  0.18252224747E+03  0.19398266725E+03  0.00000000000E+00 0.  1.
         11    1    1    2    0    0 -0.14089423626E+02  0.27027297934E+02  0.40003945919E+02  0.50292170174E+02  0.00000000000E+00 0. -1.
</event>
<event>
 7    1  0.3151015E-009  0.1143298E+03  0.7561462E-02  0.1252756E+00
         -1   -1    0    0    0  501 -0.00000000000E+00  0.00000000000E+00  0.17067635836E+02  0.17067635836E+02  0.00000000000E+00 0.  1.
          1   -1    0    0  501    0  0.00000000000E+00 -0.00000000000E+00 -0.80912684443E+03  0.80912684443E+03  0.00000000000E+00 0. -1.
         25    2    1    2    0    0 -0.97936012023E+01  0.41565031685E+02 -0.39469494891E+03  0.41623371128E+03  0.12507131254E+03 0.  0.
          5    1    3    3  502    0 -0.60843114546E+02  0.46990838891E+02 -0.28209303018E+03  0.29241062498E+03  0.41800000000E+01 0. -1.
         -5    1    3    3    0  502  0.51049513344E+02 -0.54258072059E+01 -0.11260191873E+03  0.12382308629E+03  0.41800000000E+01 0. -1.
        -11    1    1    2    0    0  0.11220965539E+01 -0.70217485439E+02 -0.25571734390E+03  0.26518505677E+03  0.00000000000E+00 0. -1.
         11    1    1    2    0    0  0.86715046484E+01  0.28652453754E+02 -0.14164691578E+03  0.14477571222E+03  0.00000000000E+00 0.  1.
</event>
<event>
 7    1  0.3151015E-009  0.9515170E+02  0.7561462E-02  0.1290835E+00
          1   -1    0    0  501    0  0.00000000000E+00  0.00000000000E+00  0.26000892980E+02  0.26000892980E+02  0.00000000000E+00 0. -1.
         -1   -1    0    0    0  501 -0.00000000000E+00 -0.00000000000E+00 -0.46248276118E+03  0.46248276118E+03  0.00000000000E+00 0.  1.
         25    2    1    2    0    0 -0.50832124978E+02 -0.80895634032E+01 -0.30996317303E+03  0.33818492879E+03  0.12507010618E+03 0.  0.
          5    1    3    3  502    0 -0.78122551660E+02 -0.42497573887E+02 -0.23365331582E+03  0.25004103915E+03  0.41800000000E+01 0.  1.
         -5    1    3    3    0  502  0.27290426682E+02  0.34408010484E+02 -0.76309857205E+02  0.88143889638E+02  0.41800000000E+01 0.  1.
        -11    1    1    2    0    0  0.72584714965E+01  0.11337482392E+02  0.28413215574E+01  0.13758525489E+02  0.00000000000E+00 0. -1.
         11    1    1    2    0    0  0.43573653481E+02 -0.32479189886E+01 -0.12936001673E+03  0.13654019988E+03  0.00000000000E+00 0.  1.
</event>
<event>
 7    1  0.3151015E-009  0.3432614E+03  0.7561462E-02  0.1065415E+00
         -1   -1    0    0    0  501 -0.00000000000E+00  0.00000000000E+00  0.29234745593E+03  0.29234745593E+03  0.00000000000E+00 0.  1.
          1   -1    0    0  501    0  0.00000000000E+00 -0.00000000000E+00 -0.46466268933E+03  0.46466268933E+03  0.00000000000E+00 0. -1.
         25    2    1    2    0    0 -0.33439547795E+03  0.74022167096E+02 -0.38526198364E+01  0.36464073447E+03  0.12509358761E+03 0.  0.
          5    1    3    3  502    0 -0.18545257258E+03  0.31760730531E+02  0.59389554821E+02  0.19734738990E+03  0.41800000000E+01 0.  1.
         -5    1    3    3    0  502 -0.14894290537E+03  0.42261436564E+02 -0.63242174658E+02  0.16729334457E+03  0.41800000000E+01 0.  1.
        -11    1    1    2    0    0  0.20556765655E+03 -0.32701384589E+02 -0.53722161435E+02  0.21497328346E+03  0.00000000000E+00 0.  1.
         11    1    1    2    0    0  0.12882782140E+03 -0.41320782506E+02 -0.11474045213E+03  0.17739612732E+03  0.00000000000E+00 0. -1.
</event>
<event>
 7    1  0.3151015E-009  0.4449003E+02  0.7561462E-02  0.1477551E+00
          1   -1    0    0  501    0  0.00000000000E+00  0.00000000000E+00  0.57673151709E+03  0.57673151709E+03  0.00000000000E+00 0. -1.
         -1   -1    0    0    0  501 -0.00000000000E+00 -0.00000000000E+00 -0.23488168086E+02  0.23488168086E+02  0.00000000000E+00 0.  1.
         25    2    1    2    0    0 -0.10838904703E+02 -0.92117994302E+01  0.46960378028E+03  0.48618661271E+03  0.12508945928E+03 0.  0.
          5    1    3    3  502    0 -0.25630678828E+02 -0.63883459202E+01  0.13761422092E+02  0.30076432613E+02  0.41800000000E+01 0.  1.
         -5    1    3    3    0  502  0.14791774124E+02 -0.28234535099E+01  0.45584235819E+03  0.45611018010E+03  0.41800000000E+01 0.  1.
        -11    1    1    2    0    0  0.24420219713E+02  0.18082900473E+02  0.16253109231E+01  0.30429920407E+02  0.00000000000E+00 0.  1.
         11    1    1    2    0    0 -0.13581315010E+02 -0.88711010430E+01  0.82014257797E+02  0.83603152052E+02  0.00000000000E+00 0. -1.
</event>
<event>
 7    1  0.3151015E-009  0.1077196E+03  0.7561462E-02  0.1264852E+00
         -1   -1    0    0    0  501 -0.00000000000E+00  0.00000000000E+00  0.32415853840E+03  0.32415853840E+03  0.00000000000E+00 0. -1.
          1   -1    0    0  501    0  0.00000000000E+00 -0.00000000000E+00 -0.58152989348E+02  0.58152989348E+02  0.00000000000E+00 0.  1.
         25    2    1    2    0    0 -0.41871630599E+02  0.13500507198E+02  0.41845097965E+02  0.13904759758E+03  0.12509086707E+03 0.  0.
          5    1    3    3  502    0 -0.86055222685E+02  0.14134986309E+02  0.19964570440E+02  0.89562021316E+02  0.41800000000E+01 0.  1.
         -5    1    3    3    0  502  0.44183592086E+02 -0.63447911098E+00  0.21880527525E+02  0.49485576264E+02  0.41800000000E+01 0.  1.
        -11    1    1    2    0    0 -0.12480018938E+02  0.17255134803E+02  0.11954018826E+03  0.12142218561E+03  0.00000000000E+00 0.  1.
         11    1    1    2    0    0  0.54351649538E+02 -0.30755642001E+02  0.10462026283E+03  0.12184174456E+03  0.00000000000E+00 0. -1.
</event>
<event>
 7    1  0.3151015E-009  0.3407393E+03  0.7561462E-02  0.1066481E+00
         -2   -1    0    0    0  501 -0.00000000000E+00  0.00000000000E+00  0.14489456831E+03  0.14489456831E+03  0.00000000000E+00 0.  1.
          2   -1    0    0  501    0  0.00000000000E+00 -0.00000000000E+00 -0.10160409248E+04  0.10160409248E+04  0.00000000000E+00 0. -1.
         25    2    1    2    0    0 -0.27131310493E+03  0.18761521588E+03 -0.19512138035E+03  0.40314569955E+03  0.12507530478E+03 0.  0.
          5    1    3    3  502    0 -0.69781569498E+02  0.11922324059E+03 -0.57627283877E+02  0.14973985704E+03  0.41800000000E+01 0.  1.
         -5    1    3    3    0  502 -0.20153153543E+03  0.68391975282E+02 -0.13749409647E+03  0.25340584251E+03  0.41800000000E+01 0.  1.
        -11    1    1    2    0    0  0.20199345280E+03 -0.12938323420E+03 -0.39086045945E+03  0.45859925319E+03  0.00000000000E+00 0.  1.
         11    1    1    2    0    0  0.69319652124E+02 -0.58231981672E+02 -0.28516451665E+03  0.29919054032E+03  0.00000000000E+00 0. -1.
</event>
<event>
 7    1  0.3151015E-009  0.6511237E+02  0.7561462E-02  0.1377549E+00
          2   -1    0    0  501    0  0.00000000000E+00  0.00000000000E+00  0.17781596896E+03  0.17781596896E+03  0.00000000000E+00 0. -1.
         -2   -1    0    0    0  501 -0.00000000000E+00 -0.00000000000E+00 -0.73705477073E+02  0.73705477073E+02  0.00000000000E+00 0.  1.
         25    2    1    2    0    0  0.12028951728E+00 -0.11554548052E+02  0.37313120387E+02  0.13104429896E+03  0.12508723870E+03 0.  0.
          5    1    3    3  502    0 -0.11406985055E+02  0.13467795858E+02  0.78914986736E+02  0.80972516108E+02  0.41800000000E+01 0. -1.
         -5    1    3    3    0  502  0.11527274572E+02 -0.25022343910E+02 -0.41601866349E+02  0.50071782848E+02  0.41800000000E+01 0. -1.
        -11    1    1    2    0    0  0.29523345113E+02 -0.23916358541E+02  0.63669346961E+02  0.74144493087E+02  0.00000000000E+00 0. -1.
         11    1    1    2    0    0 -0.29643634631E+02  0.35470906593E+02  0.31280245419E+01  0.46332653995E+02  0.00000000000E+00 0.  1.
</event>
<event>
 7    1  0.3151015E-009  0.2244466E+03  0.7561462E-02  0.1130611E+00
         -2   -1    0    0    0  501 -0.00000000000E+00  0.00000000000E+00  0.13181826829E+03  0.13181826829E+03  0.00000000000E+00 0.  1.
          2   -1    0    0  501    0  0.00000000000E+00 -0.00000000000E+00 -0.40810001968E+03  0.40810001968E+03  0.00000000000E+00 0. -1.
         25    2    1    2    0    0  0.15432733089E+03  0.13013168353E+03 -0.18372504343E+03  0.30025598515E+03  0.12509030705E+03 0.  0.
          5    1    3    3  502    0 -0.10015544412E+02  0.49895483094E+02 -0.62931821692E+02  0.81041698801E+02  0.41800000000E+01 0.  1.
         -5    1    3    3    0  502  0.16434287530E+03  0.80236200437E+02 -0.12079322174E+03  0.21921428635E+03  0.41800000000E+01 0.  1.
        -11    1    1    2    0    0 -0.66750286880E+01 -0.42875742828E+02 -0.43116052746E+02  0.61170902686E+02  0.00000000000E+00 0. -1.
         11    1    1    2    0    0 -0.14765230220E+03 -0.87255940703E+02 -0.49440655217E+02  0.17849140014E+03  0.00000000000E+00 0.  1.
</event>
<event>
 7    1  0.3151015E-009  0.1860551E+03  0.7561462E-02  0.1162068E+00
          1   -1    0    0  501    0  0.00000000000E+00  0.00000000000E+00  0.58125093053E+02  0.58125093053E+02  0.00000000000E+00 0. -1.
         -1   -1    0    0    0  501 -0.00000000000E+00 -0.00000000000E+00 -0.69381783795E+03  0.69381783795E+03  0.00000000000E+00 0.  1.
         25    2    1    2    0    0 -0.58211938484E+02  0.13997021215E+03 -0.46724214915E+03  0.50689423168E+03  0.12508495549E+03 0.  0.
          5    1    3    3  502    0  0.95727939069E+00  0.13481816799E+03 -0.35643157681E+03  0.38110076902E+03  0.41800000000E+01 0. -1.
         -5    1    3    3    0  502 -0.59169217874E+02  0.51520441642E+01 -0.11081057234E+03  0.12579346265E+03  0.41800000000E+01 0. -1.
        -11    1    1    2    0    0  0.24575120961E+02  0.80731588974E+01 -0.19808837251E+02  0.32580707451E+02  0.00000000000E+00 0.  1.
         11    1    1    2    0    0  0.33636817523E+02 -0.14804337105E+03 -0.14864175850E+03  0.21246799188E+03  0.00000000000E+00 0. -1.
</event>
<event>
 7    1  0.3151015E-009  0.7287986E+02  0.7561462E-02  0.1350565E+00
          2   -1    0    0  501    0  0.00000000000E+00  0.00000000000E+00  0.18219120545E+03  0.18219120545E+03  0.00000000000E+00 0. -1.
         -2   -1    0    0    0  501 -0.00000000000E+00 -0.00000000000E+00 -0.77985720055E+02  0.77985720055E+02  0.00000000000E+00 0.  1.
         25    2    1    2    0    0 -0.17003824352E+02  0.21114330266E+02  0.10450407372E+03  0.16523827196E+03  0.12509052766E+03 0.  0.
          5    1    3    3  502    0  0.38532177350E+02  0.42069056811E+02  0.85314164382E+02  0.10271569148E+03  0.41800000000E+01 0. -1.
         -5    1    3    3    0  502 -0.55536001701E+02 -0.20954726545E+02  0.19189909341E+02  0.62522580481E+02  0.41800000000E+01 0. -1.
        -11    1    1    2    0    0  0.15038219199E+02 -0.10702774667E+02  0.44883588963E+02  0.48530752935E+02  0.00000000000E+00 0. -1.
         11    1    1    2    0    0  0.19656051526E+01 -0.10411555599E+02 -0.45182177294E+02  0.46407900606E+02  0.00000000000E+00 0.  1.
</event>
<event>
 7    1  0.3151015E-009  0.9693199E+02  0.7561462E-02  0.1286883E+00
          1   -1    0    0  501    0  0.00000000000E+00  0.00000000000E+00  0.74007439372E+03  0.74007439372E+03  0.00000000000E+00 0. -1.
         -1   -1    0    0    0  501 -0.00000000000E+00 -0.00000000000E+00 -0.18228260738E+02  0.18228260738E+02  0.00000000000E+00 0.  1.
         25    2    1    2    0    0  0.23544303077E+02 -0.16318158623E+02  0.45415937946E+03  0.47193887591E+03  0.12507975111E+03 0.  0.
          5    1    3    3  502    0  0.55434448068E+02 -0.40434288773E+02  0.39152441264E+03  0.39751320461E+03  0.41800000000E+01 0. -1.
         -5    1    3    3    0  502 -0.31890144991E+02  0.24116130150E+02  0.62634966816E+02  0.74425671303E+02  0.41800000000E+01 0. -1.
        -11    1    1    2    0    0 -0.99697523705E+01 -0.32634098276E+02  0.37767980186E+02  0.50899908251E+02  0.00000000000E+00 0.  1.
         11    1    1    2    0    0 -0.13574550707E+02  0.48952256898E+02  0.22991877334E+03  0.23546387030E+03  0.00000000000E+00 0. -1.
</event>
<event>
 7    1  0.3151015E-009  0.1435967E+03  0.7561462E-02  0.1208570E+00
          2   -1    0    0  501    0  0.00000000000E+00  0.00000000000E+00  0.43232977895E+02  0.43232977895E+02  0.00000000000E+00 0. -1.
         -2   -1    0    0    0  501 -0.00000000000E+00 -0.00000000000E+00 -0.58417820242E+03  0.58417820242E+03  0.00000000000E+00 0.  1.
         25    2    1    2    0    0 -0.11273522953E+03 -0.16051145925E+02 -0.34143823712E+03  0.38104376280E+03  0.12508960045E+03 0.  0.
          5    1    3    3  502    0 -0.46449714829E+02 -0.50903495502E+02 -0.26541718020E+03  0.27424896319E+03  0.41800000000E+01 0. -1.
         -5    1    3    3    0  502 -0.66285514697E+02  0.34852349577E+02 -0.76021056912E+02  0.10679479961E+03  0.41800000000E+01 0. -1.
        -11    1    1    2    0    0  0.72157416371E+02  0.51996725153E+02 -0.14007827744E+03  0.16592852670E+03  0.00000000000E+00 0.  1.
         11    1    1    2    0    0  0.40577813155E+02 -0.35945579227E+02 -0.59428709965E+02  0.80438890809E+02  0.00000000000E+00 0. -1.
</event>
<event>
 7    1  0.3151015E-009  0.2543219E+03  0.7561462E-02  0.1110604E+00
         -1   -1    0    0    0  501 -0.00000000000E+00  0.00000000000E+00  0.54295156334E+02  0.54295156334E+02  0.00000000000E+00 0.  1.
          1   -1    0    0  501    0  0.00000000000E+00 -0.00000000000E+00 -0.12530175809E+04  0.12530175809E+04  0.00000000000E+00 0. -1.
         25    2    1    2    0    0 -0.49565516051E+02  0.22404432056E+03 -0.75920069933E+03  0.80292925064E+03  0.12512826106E+03 0.  0.
          5    1    3    3  502    0 -0.91847339031E+02  0.15900085393E+03 -0.53405296812E+03  0.56475415040E+03  0.41800000000E+01 0.  1.
         -5    1    3    3    0  502  0.42281822979E+02  0.65043466624E+02 -0.22514773121E+03  0.23817510024E+03  0.41800000000E+01 0.  1.
        -11    1    1    2    0    0  0.77057788798E+02 -0.16992957846E+03 -0.32392529085E+03  0.37382022217E+03  0.00000000000E+00 0.  1.
         11    1    1    2    0    0 -0.27492272746E+02 -0.54114742101E+02 -0.11559643434E+03  0.13056326438E+03  0.00000000000E+00 0. -1.
</event>
<event>
 7    1  0.3151015E-009  0.1294766E+03  0.7561462E-02  0.1228234E+00
          1   -1    0    0  501    0  0.00000000000E+00  0.00000000000E+00  0.18525696931E+03  0.18525696931E+03  0.00000000000E+00 0. -1.
         -1   -1    0    0    0  501 -0.00000000000E+00 -0.00000000000E+00 -0.11701862636E+03  0.11701862636E+03  0.00000000000E+00 0.  1.
         25    2    1    2    0    0  0.98841519551E+01 -0.76881312822E+02  0.94208823602E+02  0.17473190977E+03  0.12508998811E+03 0.  0.
          5    1    3    3  502    0 -0.51204374374E+02 -0.38113230345E+02  0.11903073492E+02  0.65066595430E+02  0.41800000000E+01 0.  1.
         -5    1    3    3    0  502  0.61088526329E+02 -0.38768082476E+02  0.82305750109E+02  0.10966531434E+03  0.41800000000E+01 0.  1.
        -11    1    1    2    0    0  0.38290281405E+02  0.60557244300E+02 -0.27271588201E+02  0.76662018042E+02  0.00000000000E+00 0.  1.
         11    1    1    2    0    0 -0.48174433360E+02  0.16324068521E+02  0.13011075489E+01  0.50881667853E+02  0.00000000000E+00 0. -1.
</event>
<event>
 7    1  0.3151015E-009  0.9577071E+02  0.7561462E-02  0.1289450E+00
          1   -1    0    0  501    0  0.00000000000E+00  0.00000000000E+00  0.78243460666E+02  0.78243460666E+02  0.00000000000E+00 0. -1.
         -1   -1    0    0    0  501 -0.00000000000E+00 -0.00000000000E+00 -0.16296823910E+03  0.16296823910E+03  0.00000000000E+00 0.  1.
         25    2    1    2    0    0 -0.14563355332E+02  0.37122404262E+01 -0.77318163963E+02  0.14782396438E+03  0.12509178198E+03 0.  0.
          5    1    3    3  502    0  0.38567565815E+02 -0.31630336843E+02 -0.66076312910E+02  0.82894432077E+02  0.41800000000E+01 0.  1.
         -5    1    3    3    0  502 -0.53130921146E+02  0.35342577269E+02 -0.11241851054E+02  0.64929532302E+02  0.41800000000E+01 0.  1.
        -11    1    1    2    0    0 -0.30811516178E+02  0.53361842326E+01  0.22296928293E+02  0.38405434545E+02  0.00000000000E+00 0. -1.
         11    1    1    2    0    0  0.45374871509E+02 -0.90484246587E+01 -0.29703542766E+02  0.54982300844E+02  0.00000000000E+00 0.  1.
</event>
<event>
 7    1  0.3151015E-009  0.8820021E+02  0.7561462E-02  0.1307270E+00
          2   -1    0    0  501    0  0.00000000000E+00  0.00000000000E+00  0.14699705756E+03  0.14699705756E+03  0.00000000000E+00 0. -1.
         -2   -1    0    0    0  501 -0.00000000000E+00 -0.00000000000E+00 -0.88254119339E+02  0.88254119339E+02  0.00000000000E+00 0.  1.
         25    2    1    2    0    0 -0.17851825502E+02 -0.75109258153E+00 -0.10537385915E+01  0.12636683032E+03  0.12509282004E+03 0.  0.
          5    1    3    3  502    0 -0.68263263570E+02  0.18967426124E+02 -0.88342661514E+01  0.71520298275E+02  0.41800000000E+01 0. -1.
         -5    1    3    3    0  502  0.50411438068E+02 -0.19718518706E+02  0.77805275599E+01  0.54846532043E+02  0.41800000000E+01 0. -1.
        -11    1    1    2    0    0  0.54075385354E+01  0.24088507905E+02 -0.15450744189E+02  0.29124271358E+02  0.00000000000E+00 0.  1.
         11    1    1    2    0    0  0.12444286967E+02 -0.23337415324E+02  0.75247420998E+02  0.79760075220E+02  0.00000000000E+00 0. -1.
</event>
<event>
 7    1  0.3151015E-009  0.1022410E+03  0.7561462E-02  0.1275653E+00
          2   -1    0    0  501    0  0.00000000000E+00  0.00000000000E+00  0.48568511265E+03  0.48568511265E+03  0.00000000000E+00 0. -1.
         -2   -1    0    0    0  501 -0.00000000000E+00 -0.00000000000E+00 -0.27892707971E+02  0.27892707971E+02  0.00000000000E+00 0.  1.
         25    2    1    2    0    0  0.32739661321E+02 -0.13151547080E+02  0.20527672737E+03  0.24296313844E+03  0.12509077993E+03 0.  0.
          5    1    3    3  502    0  0.65665356425E+02 -0.29450695209E+02  0.62288251167E+02  0.95271092763E+02  0.41800000000E+01 0. -1.
         -5    1    3    3    0  502 -0.32925695105E+02  0.16299148129E+02  0.14298847621E+03  0.14769204567E+03  0.41800000000E+01 0. -1.
        -11    1    1    2    0    0 -0.59105022365E+02 -0.10461468354E+02  0.13194225966E+03  0.14495380600E+03  0.00000000000E+00 0.  1.
         11    1    1    2    0    0  0.26365361045E+02  0.23613015434E+02  0.12057341765E+03  0.12566087619E+03  0.00000000000E+00 0. -1.
</event>
<event>
 7    1  0.3151015E-009  0.8720572E+02  0.7561462E-02  0.1309763E+00
          1   -1    0    0  501    0  0.00000000000E+00  0.00000000000E+00  0.17388008227E+03  0.17388008227E+03  0.00000000000E+00 0.  1.
         -1   -1    0    0    0  501 -0.00000000000E+00 -0.00000000000E+00 -0.78093982096E+02  0.78093982096E+02  0.00000000000E+00 0. -1.
         25    2    1    2    0    0  0.23835525592E+02 -0.36549200237E+02  0.44058730193E+02  0.13961747927E+03  0.12509153646E+03 0.  0.
          5    1    3    3  502    0  0.50705525205E+02  0.76161462345E+01  0.65677142847E+02  0.83426707129E+02  0.41800000000E+01 0.  1.
         -5    1    3    3    0  502 -0.26869999613E+02 -0.44165346471E+02 -0.21618412654E+02  0.56190772141E+02  0.41800000000E+01 0.  1.
        -11    1    1    2    0    0 -0.27894444650E+02 -0.58558587336E+01  0.62260740488E+02  0.68474746658E+02  0.00000000000E+00 0.  1.
         11    1    1    2    0    0  0.40589190571E+01  0.42405058970E+02 -0.10533370510E+02  0.43881838436E+02  0.00000000000E+00 0. -1.
</event>
<event>
 7    1  0.3151015E-009  0.1748260E+03  0.7561462E-02  0.1172907E+00
          1   -1    0    0  501    0  0.00000000000E+00  0.00000000000E+00  0.40402475945E+03  0.40402475945E+03  0.00000000000E+00 0. -1.
         -1   -1    0    0    0  501 -0.00000000000E+00 -0.00000000000E+00 -0.39194011156E+03  0.39194011156E+03  0.00000000000E+00 0.  1.
         25    2    1    2    0    0 -0.10183069827E+03 -0.13901911342E+03 -0.33477604781E+03  0.39676023033E+03  0.12509145926E+03 0.  0.
          5    1    3    3  502    0 -0.59332909342E+02 -0.98171243079E+02 -0.92602723823E+02  0.14748126647E+03  0.41800000000E+01 0.  1.
         -5    1    3    3    0  502 -0.42497788926E+02 -0.40847870340E+02 -0.24217332398E+03  0.24927896386E+03  0.41800000000E+01 0.  1.
        -11    1    1    2    0    0  0.26443115929E+02  0.64777374335E+02  0.55749579089E+02  0.89461512252E+02  0.00000000000E+00 0.  1.
         11    1    1    2    0    0  0.75387582339E+02  0.74241739084E+02  0.29111111661E+03  0.30974312843E+03  0.00000000000E+00 0. -1.
</event>
<event>
 7    1  0.3151015E-009  0.1465822E+03  0.7561462E-02  0.1204737E+00
          2   -1    0    0  501    0  0.00000000000E+00  0.00000000000E+00  0.14324142696E+04  0.14324142696E+04  0.00000000000E+00 0. -1.
         -2   -1    0    0    0  501 -0.00000000000E+00 -0.00000000000E+00 -0.20937145279E+02  0.20937145279E+02  0.00000000000E+00 0.  1.
         25    2    1    2    0    0 -0.94748858600E+02 -0.61821639991E+02  0.10552930755E+04  0.10686862357E+04  0.12509010263E+03 0.  0.
          5    1    3    3  502    0 -0.11095906644E+03 -0.16109729018E+02  0.86580740875E+03  0.87304718042E+03  0.41800000000E+01 0. -1.
         -5    1    3    3    0  502  0.16210207837E+02 -0.45711910972E+02  0.18948566674E+03  0.19563905526E+03  0.41800000000E+01 0. -1.
        -11    1    1    2    0    0  0.70999646427E+02  0.55629615675E+01  0.11016138699E+03  0.13117708457E+03  0.00000000000E+00 0.  1.
         11    1    1    2    0    0  0.23749212173E+02  0.56258678423E+02  0.24602266184E+03  0.25348809463E+03  0.00000000000E+00 0. -1.
</event>
<event>
 7    1  0.3151015E-009  0.1390298E+03  0.7561462E-02  0.1214640E+00
         -1   -1    0    0    0  501 -0.00000000000E+00  0.00000000000E+00  0.11625780374E+03  0.11625780374E+03  0.00000000000E+00 0.  1.
          1   -1    0    0  501    0  0.00000000000E+00 -0.00000000000E+00 -0.24284134453E+03  0.24284134453E+03  0.00000000000E+00 0. -1.
         25    2    1    2    0    0 -0.80964247901E+02 -0.91746131214E+02 -0.26493734079E+02  0.17697617350E+03  0.12508431560E+03 0.  0.
          5    1    3    3  502    0 -0.90380997352E+02 -0.46223080899E+02 -0.61382138725E+02  0.11870356879E+03  0.41800000000E+01 0.  1.
         -5    1    3    3    0  502  0.94167494506E+01 -0.45523050315E+02  0.34888404645E+02  0.58272604703E+02  0.41800000000E+01 0.  1.
        -11    1    1    2    0    0 -0.32805695765E+01  0.16514874656E+02  0.13765609644E+02  0.21748453520E+02  0.00000000000E+00 0.  1.
         11    1    1    2    0    0  0.84244817478E+02  0.75231256558E+02 -0.11385541635E+03  0.16037452125E+03  0.00000000000E+00 0. -1.
</event>
<event>
 7    1  0.3151015E-009  0.5140262E+02  0.7561462E-02  0.1437920E+00
          3   -1    0    0  501    0  0.00000000000E+00  0.00000000000E+00  0.25138188359E+03  0.25138188359E+03  0.00000000000E+00 0. -1.
         -3   -1    0    0    0  501 -0.00000000000E+00 -0.00000000000E+00 -0.58605889846E+02  0.58605889846E+02  0.00000000000E+00 0.  1.
         25    2    1    2    0    0 -0.95428093460E+01 -0.48484326349E+02  0.78877045003E+02  0.15592168654E+03  0.12509272159E+03 0.  0.
          5    1    3    3  502    0 -0.11906121015E+02 -0.46492753148E+02  0.11224752479E+03  0.12214872506E+03  0.41800000000E+01 0.  1.
         -5    1    3    3    0  502  0.23633116688E+01 -0.19915732007E+01 -0.33370479788E+02  0.33772961480E+02  0.41800000000E+01 0.  1.
        -11    1    1    2    0    0  0.36836247131E+01  0.22108146658E+02 -0.11915281108E+02  0.25383324517E+02  0.00000000000E+00 0.  1.
         11    1    1    2    0    0  0.58591846329E+01  0.26376179691E+02  0.12581422984E+03  0.12868276237E+03  0.00000000000E+00 0. -1.
</event>
<event>
 7    1  0.3151015E-009  0.2429721E+03  0.7561462E-02  0.1117829E+00
          1   -1    0    0  501    0  0.00000000000E+00  0.00000000000E+00  0.80287891244E+03  0.80287891244E+03  0.00000000000E+00 0. -1.
         -1   -1    0    0    0  501 -0.00000000000E+00 -0.00000000000E+00 -0.76839878820E+02  0.76839878820E+02  0.00000000000E+00 0.  1.
         25    2    1    2    0    0 -0.16851647569E+03 -0.14217799900E+03  0.31323725291E+03  0.40296164506E+03  0.12509246498E+03 0.  0.
          5    1    3    3  502    0 -0.14802128047E+03 -0.16494938815E+03  0.26281258525E+03  0.34381176171E+03  0.41800000000E+01 0. -1.
         -5    1    3    3    0  502 -0.20495195217E+02  0.22771389153E+02  0.50424667665E+02  0.59149883348E+02  0.41800000000E+01 0. -1.
        -11    1    1    2    0    0  0.13837342851E+03  0.69859175329E+02  0.22458751510E+03  0.27288653692E+03  0.00000000000E+00 0.  1.
         11    1    1    2    0    0  0.30143047177E+02  0.72318823670E+02  0.18821426561E+03  0.20387060928E+03  0.00000000000E+00 0. -1.
</event>
<event>
 7    1  0.3151015E-009  0.1096723E+03  0.7561462E-02  0.1261178E+00
          2   -1    0    0  501    0  0.00000000000E+00  0.00000000000E+00  0.12652244177E+03  0.12652244177E+03  0.00000000000E+00 0. -1.
         -2   -1    0    0    0  501 -0.00000000000E+00 -0.00000000000E+00 -0.96150118131E+02  0.96150118131E+02  0.00000000000E+00 0.  1.
         25    2    1    2    0    0  0.22084458878E+02 -0.71349888651E+01  0.27536581588E+02  0.13017169322E+03  0.12509106683E+03 0.  0.
          5    1    3    3  502    0  0.46435184854E+02  0.47766721730E+02  0.10223324812E+02  0.67526845532E+02  0.41800000000E+01 0. -1.
         -5    1    3    3    0  502 -0.24350725976E+02 -0.54901710595E+02  0.17313256776E+02  0.62644847689E+02  0.41800000000E+01 0. -1.
        -11    1    1    2    0    0 -0.19779851361E+02  0.47763603165E+02 -0.15133163459E+00  0.51697458433E+02  0.00000000000E+00 0.  1.
         11    1    1    2    0    0 -0.23046075175E+01 -0.40628614299E+02  0.29870736903E+01  0.40803408251E+02  0.00000000000E+00 0. -1.
</event>
<event>
 7    1  0.3151015E-009  0.1145145E+03  0.7561462E-02  0.1252431E+00
         -1   -1    0    0    0  501 -0.00000000000E+00  0.00000000000E+00  0.41632305637E+02  0.41632305637E+02  0.00000000000E+00 0.  1.
          1   -1    0    0  501    0  0.00000000000E+00 -0.00000000000E+00 -0.40654487534E+03  0.40654487534E+03  0.00000000000E+00 0. -1.
         25    2    1    2    0    0 -0.41252301621E+01  0.39090840502E+02 -0.10688492683E+03  0.16916448405E+03  0.12508846368E+03 0.  0.
          5    1    3    3  502    0  0.59900969732E+02  0.26706241027E+02 -0.56034585401E+02  0.86363746131E+02  0.41800000000E+01 0. -1.
         -5    1    3    3    0  502 -0.64026199894E+02  0.12384599475E+02 -0.50850341430E+02  0.82800737923E+02  0.41800000000E+01 0. -1.
        -11    1    1    2    0    0  0.37160386589E+02  0.10284144919E+02 -0.15833188199E+03  0.16295902191E+03  0.00000000000E+00 0. -1.
         11    1    1    2    0    0 -0.33035156427E+02 -0.49374985421E+02 -0.99695760877E+02  0.11605367501E+03  0.00000000000E+00 0.  1.
</event>
<event>
 7    1  0.3151015E-009  0.1038690E+03  0.7561462E-02  0.1272364E+00
          1   -1    0    0  501    0  0.00000000000E+00  0.00000000000E+00  0.91107486075E+02  0.91107486075E+02  0.00000000000E+00 0. -1.
         -1   -1    0    0    0  501 -0.00000000000E+00 -0.00000000000E+00 -0.15793770966E+03  0.15793770966E+03  0.00000000000E+00 0.  1.
         25    2    1    2    0    0  0.45658120538E+02  0.24826609373E+01 -0.61704827275E+02  0.14678704891E+03  0.12509246357E+03 0.  0.
          5    1    3    3  502    0  0.61754839218E+02 -0.35383082186E+02  0.14327994486E+01  0.71310223574E+02  0.41800000000E+01 0.  1.
         -5    1    3    3    0  502 -0.16096718680E+02  0.37865743123E+02 -0.63137626723E+02  0.75476825336E+02  0.41800000000E+01 0.  1.
        -11    1    1    2    0    0 -0.54720499828E+02  0.29275470718E+02 -0.21130739645E+02  0.65558328572E+02  0.00000000000E+00 0. -1.
         11    1    1    2    0    0  0.90623792900E+01 -0.31758131655E+02  0.16005343334E+02  0.36699818254E+02  0.00000000000E+00 0.  1.
</event>
<event>
 7    1  0.3151015E-009  0.1136244E+03  0.7561462E-02  0.1254002E+00
          1   -1    0    0  501    0  0.00000000000E+00  0.00000000000E+00  0.37371890482E+02  0.37371890482E+02  0.00000000000E+00 0. -1.
         -1   -1    0    0    0  501 -0.00000000000E+00 -0.00000000000E+00 -0.56374806011E+03  0.56374806011E+03  0.00000000000E+00 0.  1.
         25    2    1    2    0    0 -0.37771495353E+02  0.46318498951E+02 -0.44416014814E+03  0.46529310772E+03  0.12508936682E+03 0.  0.
          5    1    3    3  502    0  0.18715800909E+02 -0.24437822036E+02 -0.37694842069E+02  0.48845285014E+02  0.41800000000E+01 0. -1.
         -5    1    3    3    0  502 -0.56487296262E+02  0.70756320986E+02 -0.40646530607E+03  0.41644782271E+03  0.41800000000E+01 0. -1.
        -11    1    1    2    0    0  0.49400465262E+02 -0.66149839967E+02 -0.75498742855E+02  0.11187612555E+03  0.00000000000E+00 0.  1.
         11    1    1    2    0    0 -0.11628969909E+02  0.19831341017E+02 -0.67172786283E+01  0.23950717314E+02  0.00000000000E+00 0. -1.
</event>
<event>
 7    1  0.3151015E-009  0.1094748E+03  0.7561462E-02  0.1261546E+00
         -2   -1    0    0    0  501 -0.00000000000E+00  0.00000000000E+00  0.20009153204E+03  0.20009153204E+03  0.00000000000E+00 0.  1.
          2   -1    0    0  501    0  0.00000000000E+00 -0.00000000000E+00 -0.70935469770E+02  0.70935469770E+02  0.00000000000E+00 0. -1.
         25    2    1    2    0    0  0.48208081417E+02  0.99813825455E+01  0.73320070857E+02  0.15312592399E+03  0.12509224075E+03 0.  0.
          5    1    3    3  502    0 -0.14622666473E+02  0.53109250403E+02  0.15508154700E+02  0.57379352692E+02  0.41800000000E+01 0.  1.
         -5    1    3    3    0  502  0.62830747890E+02 -0.43127867857E+02  0.57811916157E+02  0.95746571302E+02  0.41800000000E+01 0.  1.
        -11    1    1    2    0    0  0.17912963944E+02  0.68086999470E+01 -0.11250655192E+02  0.22221834183E+02  0.00000000000E+00 0. -1.
         11    1    1    2    0    0 -0.66121045361E+02 -0.16790082493E+02  0.67086646609E+02  0.95679243637E+02  0.00000000000E+00 0.  1.
</event>
<event>
 7    1  0.3151015E-009  0.6875205E+02  0.7561462E-02  0.1364389E+00
          1   -1    0    0  501    0  0.00000000000E+00  0.00000000000E+00  0.10131610732E+03  0.10131610732E+03  0.00000000000E+00 0. -1.
         -1   -1    0    0    0  501 -0.00000000000E+00 -0.00000000000E+00 -0.12084242775E+03  0.12084242775E+03  0.00000000000E+00 0.  1.
         25    2    1    2    0    0  0.13686708748E+02 -0.31534066899E+00 -0.62347751148E+00  0.12583349637E+03  0.12508498970E+03 0.  0.
          5    1    3    3  502    0  0.35610915113E+02  0.16429517620E+02 -0.53251370921E+02  0.66266486472E+02  0.41800000000E+01 0. -1.
         -5    1    3    3    0  502 -0.21924206366E+02 -0.16744858289E+02  0.52627893409E+02  0.59567009901E+02  0.41800000000E+01 0. -1.
        -11    1    1    2    0    0 -0.20097955075E+02 -0.31687056079E+02  0.22386313171E+02  0.43693756288E+02  0.00000000000E+00 0. -1.
         11    1    1    2    0    0  0.64112463273E+01  0.32002396748E+02 -0.41289156092E+02  0.52631282407E+02  0.00000000000E+00 0.  1.
</event>
<event>
 7    1  0.3151015E-009  0.1360924E+03  0.7561462E-02  0.1218686E+00
         -1   -1    0    0    0  501 -0.00000000000E+00  0.00000000000E+00  0.63053165873E+02  0.63053165873E+02  0.00000000000E+00 0.  1.
          1   -1    0    0  501    0  0.00000000000E+00 -0.00000000000E+00 -0.30331180812E+03  0.30331180812E+03  0.00000000000E+00 0. -1.
         25    2    1    2    0    0  0.39117689249E+02  0.68631710636E+02 -0.15712833148E+03  0.21581673591E+03  0.12508815143E+03 0.  0.
          5    1    3    3  502    0  0.81250314582E+02  0.22835790370E+02 -0.77402211133E+02  0.11459346242E+03  0.41800000000E+01 0.  1.
         -5    1    3    3    0  502 -0.42132625333E+02  0.45795920266E+02 -0.79726120346E+02  0.10122327349E+03  0.41800000000E+01 0.  1.
        -11    1    1    2    0    0 -0.45010447675E+02 -0.91353710240E+02 -0.70805292901E+02  0.12403560085E+03  0.00000000000E+00 0. -1.
         11    1    1    2    0    0  0.58927584258E+01  0.22721999605E+02 -0.12325017871E+02  0.26512637240E+02  0.00000000000E+00 0.  1.
</event>
<event>
 7    1  0.3151015E-009  0.1492373E+03  0.7561462E-02  0.1201413E+00
         -1   -1    0    0    0  501 -0.00000000000E+00  0.00000000000E+00  0.37218033271E+02  0.37218033271E+02  0.00000000000E+00 0.  1.
          1   -1    0    0  501    0  0.00000000000E+00 -0.00000000000E+00 -0.94901263919E+03  0.94901263919E+03  0.00000000000E+00 0. -1.
         25    2    1    2    0    0 -0.12235438840E+03 -0.14400849747E+02 -0.24329583474E+03  0.30003170403E+03  0.12509268318E+03 0.  0.
          5    1    3    3  502    0 -0.11087055730E+03  0.15344339638E+02 -0.90813631095E+02  0.14419541334E+03  0.41800000000E+01 0.  1.
         -5    1    3    3    0  502 -0.11483831106E+02 -0.29745189385E+02 -0.15248220365E+03  0.15583629070E+03  0.41800000000E+01 0.  1.
        -11    1    1    2    0    0  0.93970080216E+02 -0.32549713397E+02 -0.40278104400E+03  0.41487640234E+03  0.00000000000E+00 0. -1.
         11    1    1    2    0    0  0.28384308188E+02  0.46950563144E+02 -0.26571772718E+03  0.27132256609E+03  0.00000000000E+00 0.  1.
</event>
<event>
 7    1  0.3151015E-009  0.1705920E+03  0.7561462E-02  0.1177232E+00
          3   -1    0    0  501    0  0.00000000000E+00  0.00000000000E+00  0.42056243246E+03  0.42056243246E+03  0.00000000000E+00 0. -1.
         -3   -1    0    0    0  501 -0.00000000000E+00 -0.00000000000E+00 -0.89984944147E+02  0.89984944147E+02  0.00000000000E+00 0.  1.
         25    2    1    2    0    0  0.14465100971E+03  0.49887415874E+02  0.10578913969E+03  0.22416752990E+03  0.12508825089E+03 0.  0.
          5    1    3    3  502    0  0.14532508113E+03  0.13939571500E+02  0.11605074144E+03  0.18654473417E+03  0.41800000000E+01 0.  1.
         -5    1    3    3    0  502 -0.67407141121E+00  0.35947844374E+02 -0.10261601758E+02  0.37622795723E+02  0.41800000000E+01 0.  1.
        -11    1    1    2    0    0 -0.78396908555E+02 -0.49432049115E+02  0.64436334172E+02  0.11287889046E+03  0.00000000000E+00 0.  1.
         11    1    1    2    0    0 -0.66254101160E+02 -0.45536675871E+00  0.16035201446E+03  0.17350095625E+03  0.00000000000E+00 0. -1.
</event>
<event>
 7    1  0.3151015E-009  0.1109525E+03  0.7561462E-02  0.1258816E+00
          1   -1    0    0  501    0  0.00000000000E+00  0.00000000000E+00  0.20535961049E+03  0.20535961049E+03  0.00000000000E+00 0. -1.
         -1   -1    0    0    0  501 -0.00000000000E+00 -0.00000000000E+00 -0.62105944125E+02  0.62105944125E+02  0.00000000000E+00 0.  1.
         25    2    1    2    0    0 -0.22498698988E+02  0.19458164114E+02  0.67024535936E+02  0.14500296678E+03  0.12509500530E+03 0.  0.
          5    1    3    3  502    0  0.46266430004E+02 -0.18133195827E+02  0.21809033994E+02  0.54428868259E+02  0.41800000000E+01 0. -1.
         -5    1    3    3    0  502 -0.68765128992E+02  0.37591359941E+02  0.45215501942E+02  0.90574098524E+02  0.41800000000E+01 0. -1.
        -11    1    1    2    0    0  0.54808069466E+02 -0.25885205958E+02  0.61591305002E+02  0.86414450284E+02  0.00000000000E+00 0.  1.
         11    1    1    2    0    0 -0.32309370478E+02  0.64270418445E+01  0.14637825429E+02  0.36048137550E+02  0.00000000000E+00 0. -1.
</event>
<event>
 7    1  0.3151015E-009  0.8783966E+02  0.7561462E-02  0.1308169E+00
          3   -1    0    0  501    0  0.00000000000E+00  0.00000000000E+00  0.11549028468E+03  0.11549028468E+03  0.00000000000E+00 0. -1.
         -3   -1    0    0    0  501 -0.00000000000E+00 -0.00000000000E+00 -0.11464893730E+03  0.11464893730E+03  0.00000000000E+00 0.  1.
         25    2    1    2    0    0  0.19036470969E+02  0.26985088528E+02 -0.12132264227E+02  0.12994256642E+03  0.12508915422E+03 0.  0.
          5    1    3    3  502    0  0.39722631390E+02 -0.23421042221E+02 -0.46311632196E+02  0.65487955686E+02  0.41800000000E+01 0.  1.
         -5    1    3    3    0  502 -0.20686160421E+02  0.50406130748E+02  0.34179367969E+02  0.64454610733E+02  0.41800000000E+01 0.  1.
        -11    1    1    2    0    0  0.24905370045E+02 -0.15421211863E+02 -0.26880142239E+02  0.39757178964E+02  0.00000000000E+00 0.  1.
         11    1    1    2    0    0 -0.43941841014E+02 -0.11563876664E+02  0.39853753850E+02  0.60439476595E+02  0.00000000000E+00 0. -1.
</event>
<event>
 7    1  0.3151015E-009  0.1084745E+03  0.7561462E-02  0.1263421E+00
          1   -1    0    0  501    0  0.00000000000E+00  0.00000000000E+00  0.58513207599E+03  0.58513207599E+03  0.00000000000E+00 0. -1.
         -1   -1    0    0    0  501 -0.00000000000E+00 -0.00000000000E+00 -0.35945827186E+02  0.35945827186E+02  0.00000000000E+00 0.  1.
         25    2    1    2    0    0  0.71650265070E+02  0.15778407224E+02  0.42584547923E+03  0.44985766358E+03  0.12507928158E+03 0.  0.
          5    1    3    3  502    0  0.86339304328E+02 -0.24303678805E+02  0.36179833106E+03  0.37277426015E+03  0.41800000000E+01 0.  1.
         -5    1    3    3    0  502 -0.14689039258E+02  0.40082086030E+02  0.64047148167E+02  0.77083403422E+02  0.41800000000E+01 0.  1.
        -11    1    1    2    0    0 -0.22149756089E+02 -0.25543337855E+02 -0.41933939649E+01  0.34068436367E+02  0.00000000000E+00 0.  1.
         11    1    1    2    0    0 -0.49500508982E+02  0.97649306301E+01  0.12753416354E+03  0.13715180323E+03  0.00000000000E+00 0. -1.
</event>
<event>
 7    1  0.3151015E-009  0.1152509E+03  0.7561462E-02  0.1251144E+00
         -2   -1    0    0    0  501 -0.00000000000E+00  0.00000000000E+00  0.18994273585E+02  0.18994273585E+02  0.00000000000E+00 0.  1.
          2   -1    0    0  501    0  0.00000000000E+00 -0.00000000000E+00 -0.10449139481E+04  0.10449139481E+04  0.00000000000E+00 0. -1.
         25    2    1    2    0    0  0.46686384482E+02  0.16343256621E+01 -0.86311508096E+03  0.87338462763E+03  0.12510305866E+03 0.  0.
          5    1    3    3  502    0 -0.23023166476E+02 -0.44187238094E+02 -0.32945477118E+03  0.33322739512E+03  0.41800000000E+01 0. -1.
         -5    1    3    3    0  502  0.69709550959E+02  0.45821563756E+02 -0.53366030978E+03  0.54015723251E+03  0.41800000000E+01 0. -1.
        -11    1    1    2    0    0  0.24181862107E+02 -0.88290530651E+01 -0.61611011625E+02  0.66772983956E+02  0.00000000000E+00 0. -1.
         11    1    1    2    0    0 -0.70868246590E+02  0.71947274030E+01 -0.10119358196E+03  0.12375061013E+03  0.00000000000E+00 0.  1.
</event>
<event>
 7    1  0.3151015E-009  0.1589873E+03  0.7561462E-02  0.1189845E+00
          2   -1    0    0  501    0  0.00000000000E+00  0.00000000000E+00  0.32494820826E+03  0.32494820826E+03  0.00000000000E+00 0. -1.
         -2   -1    0    0    0  501 -0.00000000000E+00 -0.00000000000E+00 -0.20048545597E+03  0.20048545597E+03  0.00000000000E+00 0.  1.
         25    2    1    2    0    0  0.40085497710E+02 -0.13812955760E+03  0.24963603758E+03  0.31408905391E+03  0.12508861146E+03 0.  0.
          5    1    3    3  502    0  0.47885126187E+02 -0.11873657992E+03  0.26040545616E+03  0.29020653804E+03  0.41800000000E+01 0.  1.
         -5    1    3    3    0  502 -0.77996284771E+01 -0.19392977678E+02 -0.10769418584E+02  0.23882515869E+02  0.41800000000E+01 0.  1.
        -11    1    1    2    0    0 -0.53054535928E+02  0.32668747111E+02 -0.32093181387E+02  0.70085684073E+02  0.00000000000E+00 0.  1.
         11    1    1    2    0    0  0.12969038219E+02  0.10546081049E+03 -0.93080103898E+02  0.14125892624E+03  0.00000000000E+00 0. -1.
</event>
<event>
 7    1  0.3151015E-009  0.9525891E+02  0.7561462E-02  0.1290594E+00
          2   -1    0    0  501    0  0.00000000000E+00  0.00000000000E+00  0.88703382841E+03  0.88703382841E+03  0.00000000000E+00 0. -1.
         -2   -1    0    0    0  501 -0.00000000000E+00 -0.00000000000E+00 -0.27220436963E+02  0.27220436963E+02  0.00000000000E+00 0.  1.
         25    2    1    2    0    0 -0.42431846575E+02 -0.57331978209E+02  0.71582677245E+03  0.73016634162E+03  0.12508997146E+03 0.  0.
          5    1    3    3  502    0 -0.86615167147E+01  0.13964149267E+02  0.50079315082E+03  0.50108010502E+03  0.41800000000E+01 0.  1.
         -5    1    3    3    0  502 -0.33770329860E+02 -0.71296127476E+02  0.21503362162E+03  0.22908623660E+03  0.41800000000E+01 0.  1.
        -11    1    1    2    0    0 -0.47322967963E+01  0.45753226943E+02  0.12274606984E+03  0.13108146349E+03  0.00000000000E+00 0. -1.
         11    1    1    2    0    0  0.47164143371E+02  0.11578751266E+02  0.21240549157E+02  0.53006460260E+02  0.00000000000E+00 0.  1.
</event>
<event>
 7    1  0.3151015E-009  0.7065186E+02  0.7561462E-02  0.1357890E+00
         -1   -1    0    0    0  501 -0.00000000000E+00  0.00000000000E+00  0.15542099018E+02  0.15542099018E+02  0.00000000000E+00 0.  1.
          1   -1    0    0  501    0  0.00000000000E+00 -0.00000000000E+00 -0.69976775110E+03  0.69976775110E+03  0.00000000000E+00 0. -1.
         25    2    1    2    0    0  0.15273660242E+00  0.10743217563E+02 -0.52205120450E+03  0.53692866802E+03  0.12505796406E+03 0.  0.
          5    1    3    3  502    0  0.65045018283E+01 -0.37305576793E+02 -0.43921609264E+03  0.44086535704E+03  0.41800000000E+01 0.  1.
         -5    1    3    3    0  502 -0.63517652259E+01  0.48048794356E+02 -0.82835111855E+02  0.96063310981E+02  0.41800000000E+01 0.  1.
        -11    1    1    2    0    0 -0.20337728008E+02 -0.23189843525E+02 -0.14706032097E+03  0.15026020773E+03  0.00000000000E+00 0. -1.
         11    1    1    2    0    0  0.20184991405E+02  0.12446625963E+02 -0.15114126614E+02  0.28120974364E+02  0.00000000000E+00 0.  1.
</event>
<event>
 6    1  0.3151015E-009  0.1383146E+03  0.7561462E-02  0.1215615E+00
          2   -1    0    0  501    0  0.00000000000E+00  0.00000000000E+00  0.63099428969E+02  0.63099428969E+02  0.00000000000E+00 0.  1.
         -2   -1    0    0    0  501 -0.00000000000E+00 -0.00000000000E+00 -0.41135483157E+03  0.41135483157E+03  0.00000000000E+00 0. -1.
          5    1    1    2  502    0  0.30869323860E+02 -0.16450829275E+02 -0.48669697697E+02  0.60081251762E+02  0.41800000000E+01 0.  1.
         -5    1    1    2    0  502 -0.18769112740E+02  0.10926409597E+03 -0.30166936596E+02  0.11497146917E+03  0.41800000000E+01 0.  1.
        -11    1    1    2    0    0 -0.46267997898E+02 -0.82804762315E+02 -0.18967275752E+03  0.21206864746E+03  0.00000000000E+00 0. -1.
         11    1    1    2    0    0  0.34167786778E+02 -0.10008504376E+02 -0.79746010789E+02  0.87332892142E+02  0.00000000000E+00 0.  1.
</event>
<event>
 7    1  0.3151015E-009  0.8079958E+02  0.7561462E-02  0.1326798E+00
          3   -1    0    0  501    0  0.00000000000E+00  0.00000000000E+00  0.79389892493E+03  0.79389892493E+03  0.00000000000E+00 0. -1.
         -3   -1    0    0    0  501 -0.00000000000E+00 -0.00000000000E+00 -0.16140766715E+02  0.16140766715E+02  0.00000000000E+00 0.  1.
         25    2    1    2    0    0 -0.28136870735E+02  0.15707560334E+02  0.43096014352E+03  0.44990260103E+03  0.12508914489E+03 0.  0.
          5    1    3    3  502    0 -0.35376538740E+02  0.32922432747E+02  0.54513058464E+02  0.72969390941E+02  0.41800000000E+01 0. -1.
         -5    1    3    3    0  502  0.72396680049E+01 -0.17214872413E+02  0.37644708505E+03  0.37693321009E+03  0.41800000000E+01 0. -1.
        -11    1    1    2    0    0 -0.27719062834E+02  0.13602243462E+02  0.16069391084E+03  0.16363343317E+03  0.00000000000E+00 0. -1.
         11    1    1    2    0    0  0.55855933569E+02 -0.29309803796E+02  0.18610410386E+03  0.19650365744E+03  0.00000000000E+00 0.  1.
</event>
<event>
 7    1  0.3189219E-009  0.1254561E+03  0.7561462E-02  0.1234358E+00
         -2   -1    0    0    0  501 -0.00000000000E+00  0.00000000000E+00  0.81231967562E+02  0.81231967562E+02  0.00000000000E+00 0.  1.
          2   -1    0    0  501    0  0.00000000000E+00 -0.00000000000E+00 -0.36723009642E+03  0.36723009642E+03  0.00000000000E+00 0. -1.
         25    2    1    2    0    0 -0.23628468298E+01  0.10775184803E+03 -0.25513530758E+03  0.30390354705E+03  0.12508915595E+03 0.  0.
          5    1    3    3  502    0 -0.94647406838E+01  0.12298294797E+03 -0.13654470155E+03  0.18405519479E+03  0.41800000000E+01 0. -1.
         -5    1    3    3    0  502  0.71018938539E+01 -0.15231099936E+02 -0.11859060603E+03  0.11984835227E+03  0.41800000000E+01 0. -1.
        -11    1    1    2    0    0  0.12334715452E+02 -0.45980720075E+02  0.30806930457E+02  0.56704839195E+02  0.00000000000E+00 0.  1.
         11    1    1    2    0    0 -0.99718686227E+01 -0.61771127955E+02 -0.61669751730E+02  0.87853677732E+02  0.00000000000E+00 0. -1.
</event>
<event>
 7    1  0.3151015E-009  0.1526469E+03  0.7561462E-02  0.1197258E+00
          1   -1    0    0  501    0  0.00000000000E+00  0.00000000000E+00  0.34999614154E+03  0.34999614154E+03  0.00000000000E+00 0. -1.
         -1   -1    0    0    0  501 -0.00000000000E+00 -0.00000000000E+00 -0.81267471138E+02  0.81267471138E+02  0.00000000000E+00 0.  1.
         25    2    1    2    0    0 -0.10385954439E+03 -0.70051744891E+02  0.18438157680E+03  0.25561451341E+03  0.12509261241E+03 0.  0.
          5    1    3    3  502    0 -0.11404539434E+03 -0.99018211182E+01  0.13473816438E+03  0.17685090718E+03  0.41800000000E+01 0. -1.
         -5    1    3    3    0  502  0.10185849949E+02 -0.60149923773E+02  0.49643412413E+02  0.78763606222E+02  0.41800000000E+01 0. -1.
        -11    1    1    2    0    0  0.37586655536E+02  0.45267879940E+02  0.86786627123E+02  0.10485159167E+03  0.00000000000E+00 0. -1.
         11    1    1    2    0    0  0.66272888852E+02  0.24783864951E+02 -0.24395335140E+01  0.70797507601E+02  0.00000000000E+00 0.  1.
</event>
<event>
 7    1  0.4668018E-009  0.9662753E+02  0.7561462E-02  0.1287552E+00
          2   -1    0    0  501    0  0.00000000000E+00  0.00000000000E+00  0.65493580778E+02  0.65493580778E+02  0.00000000000E+00 0. -1.
         -2   -1    0    0    0  501 -0.00000000000E+00 -0.00000000000E+00 -0.27891387096E+03  0.27891387096E+03  0.00000000000E+00 0.  1.
         25    2    1    2    0    0 -0.29256568526E+01  0.72913929193E+02 -0.16082943951E+03  0.21642135358E+03  0.12508834133E+03 0.  0.
          5    1    3    3  502    0  0.39748281727E+02  0.64585291478E+02 -0.15466674061E+03  0.17230919542E+03  0.41800000000E+01 0. -1.
         -5    1    3    3    0  502 -0.42673938580E+02  0.83286377142E+01 -0.61626988990E+01  0.44112158163E+02  0.41800000000E+01 0. -1.
        -11    1    1    2    0    0  0.65087150429E+01 -0.51911815688E+02 -0.78565442239E+02  0.94391359212E+02  0.00000000000E+00 0.  1.
         11    1    1    2    0    0 -0.35830581903E+01 -0.21002113505E+02  0.25974591566E+02  0.33594738943E+02  0.00000000000E+00 0. -1.
</event>
<event>
 7    1  0.3151015E-009  0.1660715E+03  0.7561462E-02  0.1182008E+00
          2   -1    0    0  501    0  0.00000000000E+00  0.00000000000E+00  0.34999843891E+03  0.34999843891E+03  0.00000000000E+00 0. -1.
         -2   -1    0    0    0  501 -0.00000000000E+00 -0.00000000000E+00 -0.14023120149E+03  0.14023120149E+03  0.00000000000E+00 0.  1.
         25    2    1    2    0    0  0.13214148125E+03  0.86707207310E+02 -0.13289695740E+02  0.20199670267E+03  0.12508613437E+03 0.  0.
          5    1    3    3  502    0  0.67641410201E+02  0.88480879145E+01  0.48159033149E+02  0.83608695168E+02  0.41800000000E+01 0.  1.
         -5    1    3    3    0  502  0.64500071047E+02  0.77859119396E+02 -0.61448728889E+02  0.11838800750E+03  0.41800000000E+01 0.  1.
        -11    1    1    2    0    0 -0.74498274403E+02 -0.26034589312E+02  0.43454786847E+02  0.90089462367E+02  0.00000000000E+00 0.  1.
         11    1    1    2    0    0 -0.57643206846E+02 -0.60672617998E+02  0.17960214631E+03  0.19814347537E+03  0.00000000000E+00 0. -1.
</event>
<event>
 7    1  0.3151015E-009  0.1821391E+03  0.7561462E-02  0.1165749E+00
          1   -1    0    0  501    0  0.00000000000E+00  0.00000000000E+00  0.12063101399E+04  0.12063101399E+04  0.00000000000E+00 0. -1.
         -1   -1    0    0    0  501 -0.00000000000E+00 -0.00000000000E+00 -0.27614281823E+02  0.27614281823E+02  0.00000000000E+00 0.  1.
         25    2    1    2    0    0 -0.11328387988E+03 -0.93957239853E+02  0.64865189126E+03  0.67680020548E+03  0.12509213302E+03 0.  0.
          5    1    3    3  502    0 -0.23794345931E+01  0.27672706770E+02  0.79851506489E+02  0.84647362024E+02  0.41800000000E+01 0. -1.
         -5    1    3    3    0  502 -0.11090444529E+03 -0.12162994662E+03  0.56880038477E+03  0.59215284346E+03  0.41800000000E+01 0. -1.
        -11    1    1    2    0    0 -0.14413592484E+02  0.17607568645E+02  0.74842504640E+02  0.78225178956E+02  0.00000000000E+00 0. -1.
         11    1    1    2    0    0  0.12769747237E+03  0.76349671208E+02  0.45520146215E+03  0.47889903726E+03  0.00000000000E+00 0.  1.
</event>
<event>
 7    1  0.3151015E-009  0.2220058E+03  0.7561462E-02  0.1132396E+00
          2   -1    0    0  501    0  0.00000000000E+00  0.00000000000E+00  0.40757079747E+03  0.40757079747E+03  0.00000000000E+00 0. -1.
         -2   -1    0    0    0  501 -0.00000000000E+00 -0.00000000000E+00 -0.13092794578E+03  0.13092794578E+03  0.00000000000E+00 0.  1.
         25    2    1    2    0    0  0.11573829169E+03 -0.16678933265E+03  0.13101723137E+03  0.27207908622E+03  0.12508989006E+03 0.  0.
          5    1    3    3  502    0 -0.19752725553E+02 -0.26405597145E+02  0.51621927646E+02  0.61398058123E+02  0.41800000000E+01 0.  1.
         -5    1    3    3    0  502  0.13549101724E+03 -0.14038373550E+03  0.79395303719E+02  0.21068102809E+03  0.41800000000E+01 0.  1.
        -11    1    1    2    0    0 -0.65856678335E+02  0.34721453011E+02  0.84392543634E+02  0.11253791717E+03  0.00000000000E+00 0. -1.
         11    1    1    2    0    0 -0.49881613352E+02  0.13206787964E+03  0.61233076685E+02  0.15388173986E+03  0.00000000000E+00 0.  1.
</event>
<event>
 7    1  0.3151015E-009  0.1121735E+03  0.7561462E-02  0.1256597E+00
         -3   -1    0    0    0  501 -0.00000000000E+00  0.00000000000E+00  0.12504181600E+03  0.12504181600E+03  0.00000000000E+00 0.  1.
          3   -1    0    0  501    0  0.00000000000E+00 -0.00000000000E+00 -0.11246638136E+03  0.11246638136E+03  0.00000000000E+00 0. -1.
         25    2    1    2    0    0  0.32182440987E+02  0.35976681373E+02  0.28220738827E+02  0.13701867318E+03  0.12509066947E+03 0.  0.
          5    1    3    3  502    0  0.76652056767E+02  0.18440955031E+02 -0.42760582894E+01  0.79065565852E+02  0.41800000000E+01 0.  1.
         -5    1    3    3    0  502 -0.44469615780E+02  0.17535726341E+02  0.32496797116E+02  0.57953107326E+02  0.41800000000E+01 0.  1.
        -11    1    1    2    0    0 -0.49697037673E+02  0.77601502012E+01  0.15850595270E+01  0.50324227747E+02  0.00000000000E+00 0. -1.
         11    1    1    2    0    0  0.17514596686E+02 -0.43736831574E+02 -0.17230363717E+02  0.50165296441E+02  0.00000000000E+00 0.  1.
</event>
<event>
 7    1  0.3151015E-009  0.9534397E+02  0.7561462E-02  0.1290403E+00
          1   -1    0    0  501    0  0.00000000000E+00  0.00000000000E+00  0.71505913325E+02  0.71505913325E+02  0.00000000000E+00 0. -1.
         -1   -1    0    0    0  501 -0.00000000000E+00 -0.00000000000E+00 -0.18267582008E+03  0.18267582008E+03  0.00000000000E+00 0.  1.
         25    2    1    2    0    0  0.26715817619E+01 -0.35068310330E+02 -0.74541505392E+02  0.14979879725E+03  0.12508525050E+03 0.  0.
          5    1    3    3  502    0  0.52335347488E+02 -0.59856605838E+01  0.32497919250E+01  0.52941951956E+02  0.41800000000E+01 0.  1.
         -5    1    3    3    0  502 -0.49663765727E+02 -0.29082649747E+02 -0.77791297317E+02  0.96856845296E+02  0.41800000000E+01 0.  1.
        -11    1    1    2    0    0 -0.57300520606E+01 -0.22130969200E+02 -0.40992323478E+02  0.46935955071E+02  0.00000000000E+00 0.  1.
         11    1    1    2    0    0  0.30584702986E+01  0.57199279530E+02  0.43639221136E+01  0.57446981083E+02  0.00000000000E+00 0. -1.
</event>
<event>
 7    1  0.3151015E-009  0.2798931E+03  0.7561462E-02  0.1095747E+00
         -2   -1    0    0    0  501 -0.00000000000E+00  0.00000000000E+00  0.22674406964E+03  0.22674406964E+03  0.00000000000E+00 0.  1.
          2   -1    0    0  501    0  0.00000000000E+00 -0.00000000000E+00 -0.52327763664E+03  0.52327763664E+03  0.00000000000E+00 0. -1.
         25    2    1    2    0    0  0.27032251836E+03 -0.14306572742E+02 -0.34996228029E+03  0.45978354007E+03  0.12509342163E+03 0.  0.
          5    1    3    3  502    0  0.16815293072E+03  0.17386948248E+02 -0.29355780748E+03  0.33877923905E+03  0.41800000000E+01 0.  1.
         -5    1    3    3    0  502  0.10216958764E+03 -0.31693520990E+02 -0.56404472809E+02  0.12100430102E+03  0.41800000000E+01 0.  1.
        -11    1    1    2    0    0 -0.22122477927E+03 -0.22361194961E+02  0.54562626812E+02  0.22894869785E+03  0.00000000000E+00 0. -1.
         11    1    1    2    0    0 -0.49097739098E+02  0.36667767703E+02 -0.11339135300E+01  0.61289468367E+02  0.00000000000E+00 0.  1.
</event>
<event>
 7    1  0.3151015E-009  0.9382720E+02  0.7561462E-02  0.1293840E+00
         -1   -1    0    0    0  501 -0.00000000000E+00  0.00000000000E+00  0.11246865978E+03  0.11246865978E+03  0.00000000000E+00 0.  1.
          1   -1    0    0  501    0  0.00000000000E+00 -0.00000000000E+00 -0.13342589218E+03  0.13342589218E+03  0.00000000000E+00 0. -1.
         25    2    1    2    0    0 -0.16607760748E+02 -0.32638223398E+02 -0.46292161136E+02  0.13832055415E+03  0.12509412526E+03 0.  0.
          5    1    3    3  502    0  0.24867537324E+02  0.30315356970E+02 -0.48843062766E+02  0.62773660568E+02  0.41800000000E+01 0.  1.
         -5    1    3    3    0  502 -0.41475298071E+02 -0.62953580368E+02  0.25509016298E+01  0.75546893585E+02  0.41800000000E+01 0.  1.
        -11    1    1    2    0    0 -0.12730840661E+02  0.40410055078E+02 -0.24708318468E+02  0.49046384749E+02  0.00000000000E+00 0. -1.
         11    1    1    2    0    0  0.29338601409E+02 -0.77718316807E+01  0.50043247198E+02  0.58527613059E+02  0.00000000000E+00 0.  1.
</event>
<event>
 7    1  0.3151015E-009  0.1288054E+03  0.7561462E-02  0.1229239E+00
          1   -1    0    0  501    0  0.00000000000E+00  0.00000000000E+00  0.69990404687E+03  0.69990404687E+03  0.00000000000E+00 0. -1.
         -1   -1    0    0    0  501 -0.00000000000E+00 -0.00000000000E+00 -0.28485366372E+02  0.28485366372E+02  0.00000000000E+00 0.  1.
         25    2    1    2    0    0 -0.37252076130E+02 -0.82202366556E+02  0.38309893656E+03  0.41298633024E+03  0.12509183638E+03 0.  0.
          5    1    3    3  502    0 -0.52449045829E+02 -0.96131963305E+02  0.37459763638E+03  0.39029875526E+03  0.41800000000E+01 0.  1.
         -5    1    3    3    0  502  0.15196969699E+02  0.13929596749E+02  0.85013001754E+01  0.22687574976E+02  0.41800000000E+01 0.  1.
        -11    1    1    2    0    0  0.27533445451E+02 -0.13588920699E+02  0.54853904322E+02  0.62862550087E+02  0.00000000000E+00 0.  1.
         11    1    1    2    0    0  0.97186306788E+01  0.95791287255E+02  0.23346583962E+03  0.25254053291E+03  0.00000000000E+00 0. -1.
</event>
<event>
 7    1  0.3151015E-009  0.1153921E+03  0.7561462E-02  0.1250898E+00
          1   -1    0    0  501    0  0.00000000000E+00  0.00000000000E+00  0.76273545086E+02  0.76273545086E+02  0.00000000000E+00 0. -1.
         -1   -1    0    0    0  501 -0.00000000000E+00 -0.00000000000E+00 -0.27909422334E+03  0.27909422334E+03  0.00000000000E+00 0.  1.
         25    2    1    2    0    0 -0.71144749078E+02  0.58429868394E+02 -0.14430090716E+03  0.21200427446E+03  0.12508971078E+03 0.  0.
          5    1    3    3  502    0  0.48300770614E+01  0.22601115547E+02  0.17742854393E+02  0.29435036104E+02  0.41800000000E+01 0.  1.
         -5    1    3    3    0  502 -0.75974826140E+02  0.35828752846E+02 -0.16204376155E+03  0.18256923836E+03  0.41800000000E+01 0.  1.
        -11    1    1    2    0    0  0.18693599510E+02  0.20933210868E+02 -0.35924300749E+02  0.45587337762E+02  0.00000000000E+00 0. -1.
         11    1    1    2    0    0  0.52451149568E+02 -0.79363079262E+02 -0.22595470344E+02  0.97776156199E+02  0.00000000000E+00 0.  1.
</event>
<event>
 7    1  0.3151015E-009  0.4138727E+02  0.7561462E-02  0.1498244E+00
         -1   -1    0    0    0  501 -0.00000000000E+00  0.00000000000E+00  0.76479372273E+02  0.76479372273E+02  0.00000000000E+00 0.  1.
          1   -1    0    0  501    0  0.00000000000E+00 -0.00000000000E+00 -0.16151713599E+03  0.16151713599E+03  0.00000000000E+00 0. -1.
         25    2    1    2    0    0  0.17789427223E+02 -0.17498958729E+02 -0.42815235513E+02  0.13455145164E+03  0.12509305125E+03 0.  0.
          5    1    3    3  502    0  0.10926099659E+01 -0.94485018216E+01  0.44241538284E+02  0.45445066762E+02  0.41800000000E+01 0. -1.
         -5    1    3    3    0  502  0.16696817257E+02 -0.80504569072E+01 -0.87056773798E+02  0.89106384883E+02  0.41800000000E+01 0. -1.
        -11    1    1    2    0    0 -0.12061183019E+02  0.33915414988E+02  0.18366154615E+02  0.40410928533E+02  0.00000000000E+00 0.  1.
         11    1    1    2    0    0 -0.57282442039E+01 -0.16416456259E+02 -0.60588682815E+02  0.63034128081E+02  0.00000000000E+00 0. -1.
</event>
<event>
 7    1  0.3151015E-009  0.1520854E+03  0.7561462E-02  0.1197934E+00
         -1   -1    0    0    0  501 -0.00000000000E+00  0.00000000000E+00  0.62680966477E+02  0.62680966477E+02  0.00000000000E+00 0.  1.
          1   -1    0    0  501    0  0.00000000000E+00 -0.00000000000E+00 -0.63617966732E+03  0.63617966732E+03  0.00000000000E+00 0. -1.
         25    2    1    2    0    0  0.10763488414E+03 -0.56476366381E+02 -0.97629971594E+02  0.19988576078E+03  0.12509139765E+03 0.  0.
          5    1    3    3  502    0  0.51540079399E+02  0.23599431692E+02  0.62370886097E+01  0.57181173781E+02  0.41800000000E+01 0.  1.
         -5    1    3    3    0  502  0.56094804741E+02 -0.80075798073E+02 -0.10386706020E+03  0.14270458700E+03  0.41800000000E+01 0.  1.
        -11    1    1    2    0    0 -0.84443363000E+02  0.80084027503E+02 -0.35073687533E+03  0.36954091618E+03  0.00000000000E+00 0.  1.
         11    1    1    2    0    0 -0.23191521141E+02 -0.23607661122E+02 -0.12513185392E+03  0.12943395684E+03  0.00000000000E+00 0. -1.
</event>
<event>
 7    1  0.3151015E-009  0.1164695E+03  0.7561462E-02  0.1249037E+00
          1   -1    0    0  501    0  0.00000000000E+00  0.00000000000E+00  0.19074730960E+03  0.19074730960E+03  0.00000000000E+00 0. -1.
         -1   -1    0    0    0  501 -0.00000000000E+00 -0.00000000000E+00 -0.91343091692E+02  0.91343091692E+02  0.00000000000E+00 0.  1.
         25    2    1    2    0    0  0.23963849186E+02 -0.48066764098E+02 -0.31584127756E+01  0.13616762954E+03  0.12508784068E+03 0.  0.
          5    1    3    3  502    0  0.57632921428E+01 -0.88898407853E+02  0.90417662237E+01  0.89640216374E+02  0.41800000000E+01 0.  1.
         -5    1    3    3    0  502  0.18200557043E+02  0.40831643755E+02 -0.12200178999E+02  0.46527413168E+02  0.41800000000E+01 0.  1.
        -11    1    1    2    0    0  0.28972552293E+02  0.26250144490E+01  0.52611338678E+02  0.60118653052E+02  0.00000000000E+00 0. -1.
         11    1    1    2    0    0 -0.52936401479E+02  0.45441749649E+02  0.49951292007E+02  0.85804118700E+02  0.00000000000E+00 0.  1.
</event>
<event>
 7    1  0.3151015E-009  0.1977760E+03  0.7561462E-02  0.1151629E+00
         -3   -1    0    0    0  501 -0.00000000000E+00  0.00000000000E+00  0.36863895042E+03  0.36863895042E+03  0.00000000000E+00 0.  1.
          3   -1    0    0  501    0  0.00000000000E+00 -0.00000000000E+00 -0.13336878105E+03  0.13336878105E+03  0.00000000000E+00 0. -1.
         25    2    1    2    0    0  0.56616656131E+02 -0.18420319619E+03  0.12334801161E+03  0.26076494375E+03  0.12508941076E+03 0.  0.
          5    1    3    3  502    0  0.63924028397E+02 -0.17432025834E+03  0.58623361550E+02  0.19475113554E+03  0.41800000000E+01 0. -1.
         -5    1    3    3    0  502 -0.73073722658E+01 -0.98829378540E+01  0.64724650057E+02  0.66013808215E+02  0.41800000000E+01 0. -1.
        -11    1    1    2    0    0 -0.57682851653E+02  0.12531593687E+03  0.11865453720E+03  0.18196234392E+03  0.00000000000E+00 0.  1.
         11    1    1    2    0    0  0.10661955223E+01  0.58887259324E+02 -0.67323794273E+01  0.59280443793E+02  0.00000000000E+00 0. -1.
</event>
<event>
 7    1  0.3151015E-009  0.1053440E+03  0.7561462E-02  0.1269443E+00
         -1   -1    0    0    0  501 -0.00000000000E+00  0.00000000000E+00  0.45391594641E+02  0.45391594641E+02  0.00000000000E+00 0.  1.
          1   -1    0    0  501    0  0.00000000000E+00 -0.00000000000E+00 -0.39836022340E+03  0.39836022340E+03  0.00000000000E+00 0. -1.
         25    2    1    2    0    0  0.52615782544E+02 -0.17198596293E+02 -0.10104062833E+03  0.17006164583E+03  0.12509013759E+03 0.  0.
          5    1    3    3  502    0  0.61971801083E+01 -0.48861450983E+02 -0.10239427577E+03  0.11370095226E+03  0.41800000000E+01 0.  1.
         -5    1    3    3    0  502  0.46418602436E+02  0.31662854690E+02  0.13536474354E+01  0.56360693578E+02  0.41800000000E+01 0.  1.
        -11    1    1    2    0    0 -0.76262355641E+02  0.24606439720E+02 -0.21266432576E+03  0.22726094960E+03  0.00000000000E+00 0. -1.
         11    1    1    2    0    0  0.23646573097E+02 -0.74078434269E+01 -0.39263674666E+02  0.46429222605E+02  0.00000000000E+00 0.  1.
</event>
<event>
 7    1  0.3151015E-009  0.1485473E+03  0.7561462E-02  0.1202269E+00
          3   -1    0    0  501    0  0.00000000000E+00  0.00000000000E+00  0.49021242315E+03  0.49021242315E+03  0.00000000000E+00 0. -1.
         -3   -1    0    0    0  501 -0.00000000000E+00 -0.00000000000E+00 -0.55512206182E+02  0.55512206182E+02  0.00000000000E+00 0.  1.
         25    2    1    2    0    0  0.11280175617E+03 -0.94726029049E+01  0.31823339174E+03  0.36018623579E+03  0.12509063288E+03 0.  0.
          5    1    3    3  502    0  0.74441287758E+02  0.48704152992E+02  0.23641626540E+03  0.25263357415E+03  0.41800000000E+01 0. -1.
         -5    1    3    3    0  502  0.38360468414E+02 -0.58176755897E+02  0.81817126338E+02  0.10755266164E+03  0.41800000000E+01 0. -1.
        -11    1    1    2    0    0 -0.12410360083E+03  0.10089382766E+01  0.11810645411E+03  0.17132383430E+03  0.00000000000E+00 0.  1.
         11    1    1    2    0    0  0.11301844660E+02  0.84636646283E+01 -0.16396288784E+01  0.14214559245E+02  0.00000000000E+00 0. -1.
</event>
<event>
 7    1  0.3151015E-009  0.1293307E+03  0.7561462E-02  0.1228452E+00
          3   -1    0    0  501    0  0.00000000000E+00  0.00000000000E+00  0.28442609491E+03  0.28442609491E+03  0.00000000000E+00 0. -1.
         -3   -1    0    0    0  501 -0.00000000000E+00 -0.00000000000E+00 -0.13761231800E+03  0.13761231800E+03  0.00000000000E+00 0.  1.
         25    2    1    2    0    0 -0.76380844511E+02  0.56931320379E+02 -0.69235328102E+02  0.17180694165E+03  0.12509550709E+03 0.  0.
          5    1    3    3  502    0 -0.97101386616E+02  0.79994002748E+02 -0.53284566520E+02  0.13669102819E+03  0.41800000000E+01 0. -1.
         -5    1    3    3    0  502  0.20720542105E+02 -0.23062682369E+02 -0.15950761582E+02  0.35115913461E+02  0.41800000000E+01 0. -1.
        -11    1    1    2    0    0  0.29666927616E+02 -0.25013637510E+01  0.14933693144E+03  0.15227574497E+03  0.00000000000E+00 0. -1.
         11    1    1    2    0    0  0.46713916895E+02 -0.54429956628E+02  0.66712173568E+02  0.97955726287E+02  0.00000000000E+00 0.  1.
</event>
<event>
 7    1  0.3151015E-009  0.2105982E+03  0.7561462E-02  0.1141093E+00
         -1   -1    0    0    0  501 -0.00000000000E+00  0.00000000000E+00  0.47245011815E+03  0.47245011815E+03  0.00000000000E+00 0.  1.
          1   -1    0    0  501    0  0.00000000000E+00 -0.00000000000E+00 -0.12072320470E+03  0.12072320470E+03  0.00000000000E+00 0. -1.
         25    2    1    2    0    0 -0.18628997837E+03 -0.92579209787E+02  0.13015805039E+03  0.27543382979E+03  0.12509120827E+03 0.  0.
          5    1    3    3  502    0 -0.47828884885E+02 -0.47352271386E+02 -0.15720813682E+02  0.69242011940E+02  0.41800000000E+01 0.  1.
         -5    1    3    3    0  502 -0.13846109348E+03 -0.45226938402E+02  0.14587886407E+03  0.20619181785E+03  0.41800000000E+01 0.  1.
        -11    1    1    2    0    0  0.40772498334E+02  0.21461777987E+02  0.11492377540E+03  0.12381631026E+03  0.00000000000E+00 0.  1.
         11    1    1    2    0    0  0.14551748004E+03  0.71117431800E+02  0.10664508766E+03  0.19392318279E+03  0.00000000000E+00 0. -1.
</event>
<event>
 7    1  0.3151015E-009  0.1050776E+03  0.7561462E-02  0.1269967E+00
         -2   -1    0    0    0  501 -0.00000000000E+00  0.00000000000E+00  0.27258730652E+02  0.27258730652E+02  0.00000000000E+00 0.  1.
          2   -1    0    0  501    0  0.00000000000E+00 -0.00000000000E+00 -0.61716612611E+03  0.61716612611E+03  0.00000000000E+00 0. -1.
         25    2    1    2    0    0  0.40562783938E+02  0.41809983477E+02 -0.41125417918E+03  0.43378664258E+03  0.12508971673E+03 0.  0.
          5    1    3    3  502    0  0.19303588043E+02  0.79847499169E+02 -0.17317838603E+03  0.19171978881E+03  0.41800000000E+01 0.  1.
         -5    1    3    3    0  502  0.21259195895E+02 -0.38037515691E+02 -0.23807579315E+03  0.24206685377E+03  0.41800000000E+01 0.  1.
        -11    1    1    2    0    0  0.30628757095E+01  0.13408234375E+02  0.44676086863E+01  0.14461033298E+02  0.00000000000E+00 0.  1.
         11    1    1    2    0    0 -0.43625659647E+02 -0.55218217852E+02 -0.18312082496E+03  0.19617718088E+03  0.00000000000E+00 0. -1.
</event>
<event>
 7    1  0.3151015E-009  0.1055720E+03  0.7561462E-02  0.1268997E+00
         -1   -1    0    0    0  501 -0.00000000000E+00  0.00000000000E+00  0.44021886674E+02  0.44021886674E+02  0.00000000000E+00 0.  1.
          1   -1    0    0  501    0  0.00000000000E+00 -0.00000000000E+00 -0.42649106084E+03  0.42649106084E+03  0.00000000000E+00 0. -1.
         25    2    1    2    0    0 -0.63206223068E+02 -0.25280541456E+02 -0.27510051939E+03  0.30977646736E+03  0.12508809515E+03 0.  0.
          5    1    3    3  502    0 -0.77207112309E+02 -0.30570169856E+02 -0.84509313587E+02  0.11855281506E+03  0.41800000000E+01 0.  1.
         -5    1    3    3    0  502  0.14000889240E+02  0.52896283999E+01 -0.19059120581E+03  0.19122365230E+03  0.41800000000E+01 0.  1.
        -11    1    1    2    0    0  0.67448348915E+01  0.50266739062E+02 -0.76297203106E+02  0.91616052389E+02  0.00000000000E+00 0. -1.
         11    1    1    2    0    0  0.56461388177E+02 -0.24986197605E+02 -0.31071451670E+02  0.69120427766E+02  0.00000000000E+00 0.  1.
</event>
<event>
 7    1  0.3151015E-009  0.1254731E+03  0.7561462E-02  0.1234332E+00
          2   -1    0    0  501    0  0.00000000000E+00  0.00000000000E+00  0.55765267469E+03  0.55765267469E+03  0.00000000000E+00 0. -1.
         -2   -1    0    0    0  501 -0.00000000000E+00 -0.00000000000E+00 -0.29817901883E+02  0.29817901883E+02  0.00000000000E+00 0.  1.
         25    2    1    2    0    0  0.36315373558E+02 -0.54436347240E+02  0.35295836770E+03  0.38014328369E+03  0.12508870671E+03 0.  0.
          5    1    3    3  502    0  0.47034331771E+02 -0.90310254375E+02  0.28119017722E+03  0.29908787768E+03  0.41800000000E+01 0. -1.
         -5    1    3    3    0  502 -0.10718958214E+02  0.35873907134E+02  0.71768190480E+02  0.81055406008E+02  0.41800000000E+01 0. -1.
        -11    1    1    2    0    0  0.27254269606E+02 -0.62635070830E+00  0.41929375811E+02  0.50012599241E+02  0.00000000000E+00 0.  1.
         11    1    1    2    0    0 -0.63569643164E+02  0.55062697949E+02  0.13294702929E+03  0.15731469364E+03  0.00000000000E+00 0. -1.
</event>
<event>
 7    1  0.3151015E-009  0.1230379E+03  0.7561462E-02  0.1238168E+00
         -2   -1    0    0    0  501 -0.00000000000E+00  0.00000000000E+00  0.29138432331E+02  0.29138432331E+02  0.00000000000E+00 0. -1.
          2   -1    0    0  501    0  0.00000000000E+00 -0.00000000000E+00 -0.62306709985E+03  0.62306709985E+03  0.00000000000E+00 0.  1.
         25    2    1    2    0    0  0.78655093229E+02  0.12233071023E+01 -0.34191573221E+03  0.37247956445E+03  0.12508612165E+03 0.  0.
          5    1    3    3  502    0 -0.21045696185E+02 -0.21472643998E+02 -0.16774079247E+03  0.17046536782E+03  0.41800000000E+01 0. -1.
         -5    1    3    3    0  502  0.99700789414E+02  0.22695951100E+02 -0.17417493975E+03  0.20201419663E+03  0.41800000000E+01 0. -1.
        -11    1    1    2    0    0 -0.32944057616E+02 -0.41134426894E+02 -0.68415156025E+02  0.86359629353E+02  0.00000000000E+00 0. -1.
         11    1    1    2    0    0 -0.45711035613E+02  0.39911119792E+02 -0.18359777929E+03  0.19336633838E+03  0.00000000000E+00 0.  1.
</event>
<event>
 7    1  0.3151015E-009  0.9017254E+02  0.7561462E-02  0.1302434E+00
          2   -1    0    0  501    0  0.00000000000E+00  0.00000000000E+00  0.67244215479E+03  0.67244215479E+03  0.00000000000E+00 0. -1.
         -2   -1    0    0    0  501 -0.00000000000E+00 -0.00000000000E+00 -0.23883681065E+02  0.23883681065E+02  0.00000000000E+00 0.  1.
         25    2    1    2    0    0  0.25764765556E+02 -0.60343646269E+02  0.34210871241E+03  0.37011983076E+03  0.12508053095E+03 0.  0.
          5    1    3    3  502    0 -0.54764269118E+01 -0.67914579547E+01  0.28670404645E+03  0.28686721284E+03  0.41800000000E+01 0. -1.
         -5    1    3    3    0  502  0.31241192467E+02 -0.53552188314E+02  0.55404665967E+02  0.83252617922E+02  0.41800000000E+01 0. -1.
        -11    1    1    2    0    0 -0.29881067128E+02 -0.14751273722E+02  0.13378953899E+03  0.13787718808E+03  0.00000000000E+00 0. -1.
         11    1    1    2    0    0  0.41163015720E+01  0.75094919990E+02  0.17266022233E+03  0.18832881702E+03  0.00000000000E+00 0.  1.
</event>
<event>
 7    1  0.3151015E-009  0.1041546E+03  0.7561462E-02  0.1271794E+00
          2   -1    0    0  501    0  0.00000000000E+00  0.00000000000E+00  0.81609617571E+02  0.81609617571E+02  0.00000000000E+00 0. -1.
         -2   -1    0    0    0  501 -0.00000000000E+00 -0.00000000000E+00 -0.19676301153E+03  0.19676301153E+03  0.00000000000E+00 0.  1.
         25    2    1    2    0    0 -0.40094025264E+02 -0.30267120720E+02 -0.18614944772E+02  0.13607994346E+03  0.12509038886E+03 0.  0.
          5    1    3    3  502    0 -0.26554693111E+02 -0.69659533081E+02  0.21910201512E+02  0.77814726149E+02  0.41800000000E+01 0.  1.
         -5    1    3    3    0  502 -0.13539332153E+02  0.39392412361E+02 -0.40525146284E+02  0.58265217309E+02  0.41800000000E+01 0.  1.
        -11    1    1    2    0    0 -0.22638672758E+02  0.15183200440E+02 -0.64983446385E+02  0.70469052668E+02  0.00000000000E+00 0.  1.
         11    1    1    2    0    0  0.62732698022E+02  0.15083920280E+02 -0.31555002806E+02  0.71823632979E+02  0.00000000000E+00 0. -1.
</event>
<event>
 7    1  0.3151015E-009  0.9015570E+02  0.7561462E-02  0.1302475E+00
         -1   -1    0    0    0  501 -0.00000000000E+00  0.00000000000E+00  0.17754132669E+02  0.17754132669E+02  0.00000000000E+00 0.  1.
          1   -1    0    0  501    0  0.00000000000E+00 -0.00000000000E+00 -0.99380100966E+03  0.99380100966E+03  0.00000000000E+00 0. -1.
         25    2    1    2    0    0 -0.49679964444E+01 -0.19452345710E+02 -0.82643322618E+03  0.83608926435E+03  0.12510118258E+03 0.  0.
          5    1    3    3  502    0  0.79547658750E+01  0.43950309241E+02 -0.15023870390E+03  0.15679301175E+03  0.41800000000E+01 0. -1.
         -5    1    3    3    0  502 -0.12922762319E+02 -0.63402654951E+02 -0.67619452228E+03  0.67929625261E+03  0.41800000000E+01 0. -1.
        -11    1    1    2    0    0 -0.27275380782E+02  0.26030457539E+02 -0.13369627688E+03  0.13891085476E+03  0.00000000000E+00 0. -1.
         11    1    1    2    0    0  0.32243377227E+02 -0.65781118291E+01 -0.15917373930E+02  0.36555023226E+02  0.00000000000E+00 0.  1.
</event>
<event>
 7    1  0.3151015E-009  0.1142828E+03  0.7561462E-02  0.1252838E+00
         -2   -1    0    0    0  501 -0.00000000000E+00  0.00000000000E+00  0.11442772805E+02  0.11442772805E+02  0.00000000000E+00 0.  1.
          2   -1    0    0  501    0  0.00000000000E+00 -0.00000000000E+00 -0.11517836672E+04  0.11517836672E+04  0.00000000000E+00 0. -1.
         25    2    1    2    0    0  0.88260996780E+01 -0.44044468122E+02 -0.71586583934E+03  0.72809966393E+03  0.12508958978E+03 0.  0.
          5    1    3    3  502    0  0.65949814680E+02 -0.35362511136E+02 -0.39597745428E+03  0.40300806685E+03  0.41800000000E+01 0. -1.
         -5    1    3    3    0  502 -0.57123715002E+02 -0.86819569859E+01 -0.31988838506E+03  0.32509159708E+03  0.41800000000E+01 0. -1.
        -11    1    1    2    0    0  0.24678468434E+02  0.55124701211E+02 -0.26939723666E+03  0.27608446281E+03  0.00000000000E+00 0. -1.
         11    1    1    2    0    0 -0.33504568112E+02 -0.11080233089E+02 -0.15507781838E+03  0.15904231325E+03  0.00000000000E+00 0.  1.
</event>
<event>
 7    1  0.3151015E-009  0.1028421E+03  0.7561462E-02  0.1274430E+00
          2   -1    0    0  501    0  0.00000000000E+00  0.00000000000E+00  0.30676241271E+03  0.30676241271E+03  0.00000000000E+00 0. -1.
         -2   -1    0    0    0  501 -0.00000000000E+00 -0.00000000000E+00 -0.76245809020E+02  0.76245809020E+02  0.00000000000E+00 0.  1.
         25    2    1    2    0    0  0.71208287244E+02  0.44457374416E+02  0.40001551197E+02  0.15586718573E+03  0.12508947668E+03 0.  0.
          5    1    3    3  502    0  0.85312462810E+02  0.40425100513E+02 -0.17736681129E+02  0.96148152970E+02  0.41800000000E+01 0.  1.
         -5    1    3    3    0  502 -0.14104175565E+02  0.40322739022E+01  0.57738232326E+02  0.59719032756E+02  0.41800000000E+01 0.  1.
        -11    1    1    2    0    0  0.58956666897E+01 -0.97131729982E+01 -0.62524262109E+01  0.12969095918E+02  0.00000000000E+00 0.  1.
         11    1    1    2    0    0 -0.77103953934E+02 -0.34744201417E+02  0.19676747871E+03  0.21417194009E+03  0.00000000000E+00 0. -1.
</event>
<event>
 7    1  0.3151015E-009  0.3158215E+03  0.7561462E-02  0.1077589E+00
          1   -1    0    0  501    0  0.00000000000E+00  0.00000000000E+00  0.24941295511E+04  0.24941295511E+04  0.00000000000E+00 0. -1.
         -1   -1    0    0    0  501 -0.00000000000E+00 -0.00000000000E+00 -0.43129486348E+02  0.43129486348E+02  0.00000000000E+00 0.  1.
         25    2    1    2    0    0  0.29962310843E+03 -0.14995017606E+02  0.15203540329E+04  0.15547103138E+04  0.12509563068E+03 0.  0.
          5    1    3    3  502    0  0.79643031694E+02 -0.60705013235E+02  0.45225218422E+03  0.46322523859E+03  0.41800000000E+01 0.  1.
         -5    1    3    3    0  502  0.21998007674E+03  0.45709995629E+02  0.10681018487E+04  0.10914850752E+04  0.41800000000E+01 0.  1.
        -11    1    1    2    0    0 -0.10966196002E+03  0.36374024673E+02  0.24711730595E+03  0.27279255497E+03  0.00000000000E+00 0.  1.
         11    1    1    2    0    0 -0.18996114841E+03 -0.21379007067E+02  0.68352872598E+03  0.70975616876E+03  0.00000000000E+00 0. -1.
</event>
<event>
 7    1  0.3151015E-009  0.1231537E+03  0.7561462E-02  0.1237983E+00
         -2   -1    0    0    0  501 -0.00000000000E+00  0.00000000000E+00  0.23533619943E+02  0.23533619943E+02  0.00000000000E+00 0.  1.
          2   -1    0    0  501    0  0.00000000000E+00 -0.00000000000E+00 -0.80449509347E+03  0.80449509347E+03  0.00000000000E+00 0. -1.
         25    2    1    2    0    0  0.51279713406E+02  0.65662165769E+02 -0.43925862698E+03  0.46425925027E+03  0.12508949222E+03 0.  0.
          5    1    3    3  502    0 -0.26752133443E+02  0.53615191454E+02 -0.10683585637E+03  0.12256279209E+03  0.41800000000E+01 0.  1.
         -5    1    3    3    0  502  0.78031846850E+02  0.12046974315E+02 -0.33242277061E+03  0.34169645818E+03  0.41800000000E+01 0.  1.
        -11    1    1    2    0    0  0.41962997246E+01 -0.49102114415E+02 -0.67818998950E+02  0.83833425255E+02  0.00000000000E+00 0.  1.
         11    1    1    2    0    0 -0.55476013131E+02 -0.16560051354E+02 -0.27388384760E+03  0.27993603789E+03  0.00000000000E+00 0. -1.
</event>
<event>
 7    1  0.3151015E-009  0.1278260E+03  0.7561462E-02  0.1230718E+00
         -1   -1    0    0    0  501 -0.00000000000E+00  0.00000000000E+00  0.35357636549E+02  0.35357636549E+02  0.00000000000E+00 0.  1.
          1   -1    0    0  501    0  0.00000000000E+00 -0.00000000000E+00 -0.64749192194E+03  0.64749192194E+03  0.00000000000E+00 0. -1.
         25    2    1    2    0    0  0.50797065298E+01  0.92055310614E+02 -0.44349218723E+03  0.46992863360E+03  0.12509043493E+03 0.  0.
          5    1    3    3  502    0 -0.15474846000E+02  0.11861388776E+03 -0.31257100497E+03  0.33470409435E+03  0.41800000000E+01 0.  1.
         -5    1    3    3    0  502  0.20554552530E+02 -0.26558577148E+02 -0.13092118226E+03  0.13522453925E+03  0.41800000000E+01 0.  1.
        -11    1    1    2    0    0  0.80401087674E+01 -0.88026452908E+02 -0.17629016188E+03  0.19720933278E+03  0.00000000000E+00 0. -1.
         11    1    1    2    0    0 -0.13119815297E+02 -0.40288577067E+01  0.76480637207E+01  0.15711592107E+02  0.00000000000E+00 0.  1.
</event>
<event>
 7    1  0.3151015E-009  0.1202355E+03  0.7561462E-02  0.1242709E+00
         -1   -1    0    0    0  501 -0.00000000000E+00  0.00000000000E+00  0.15509434343E+02  0.15509434343E+02  0.00000000000E+00 0.  1.
          1   -1    0    0  501    0  0.00000000000E+00 -0.00000000000E+00 -0.12293928279E+04  0.12293928279E+04  0.00000000000E+00 0. -1.
         25    2    1    2    0    0 -0.40977863460E+02  0.46703644445E+02 -0.90630968226E+03  0.91700675284E+03  0.12507489316E+03 0.  0.
          5    1    3    3  502    0  0.18471943145E+02 -0.26569602746E+02 -0.10010456348E+03  0.10528795042E+03  0.41800000000E+01 0. -1.
         -5    1    3    3    0  502 -0.59449806605E+02  0.73273247191E+02 -0.80620511878E+03  0.81171880242E+03  0.41800000000E+01 0. -1.
        -11    1    1    2    0    0  0.55960239157E+02  0.81311876527E+01 -0.14259214293E+03  0.15339551429E+03  0.00000000000E+00 0. -1.
         11    1    1    2    0    0 -0.14982375696E+02 -0.54834832098E+02 -0.16498156833E+03  0.17449999508E+03  0.00000000000E+00 0.  1.
</event>
<event>
 7    1  0.3151015E-009  0.1647242E+03  0.7561462E-02  0.1183464E+00
         -2   -1    0    0    0  501 -0.00000000000E+00  0.00000000000E+00  0.38043927217E+03  0.38043927217E+03  0.00000000000E+00 0.  1.
          2   -1    0    0  501    0  0.00000000000E+00 -0.00000000000E+00 -0.86109384726E+02  0.86109384726E+02  0.00000000000E+00 0. -1.
         25    2    1    2    0    0 -0.72814233412E+02  0.11886472860E+03  0.20558581924E+03  0.27810845601E+03  0.12509215778E+03 0.  0.
          5    1    3    3  502    0 -0.10047686676E+03  0.54589701266E+02  0.10361705732E+03  0.15436840093E+03  0.41800000000E+01 0.  1.
         -5    1    3    3    0  502  0.27662633351E+02  0.64275027331E+02  0.10196876192E+03  0.12374005508E+03  0.41800000000E+01 0.  1.
        -11    1    1    2    0    0  0.45377872665E+02 -0.10455971350E+03  0.10367973509E+03  0.15408235617E+03  0.00000000000E+00 0.  1.
         11    1    1    2    0    0  0.27436360747E+02 -0.14305015097E+02 -0.14935666890E+02  0.34357844715E+02  0.00000000000E+00 0. -1.
</event>
<event>
 6    1  0.3151015E-009  0.1061658E+03  0.7561462E-02  0.1267840E+00
          2   -1    0    0  501    0  0.00000000000E+00  0.00000000000E+00  0.33110668023E+03  0.33110668023E+03  0.00000000000E+00 0. -1.
         -2   -1    0    0    0  501 -0.00000000000E+00 -0.00000000000E+00 -0.54195412837E+02  0.54195412837E+02  0.00000000000E+00 0.  1.
          5    1    1    2  502    0  0.14964360689E+02 -0.31177802369E+02  0.88541033326E+01  0.35942384412E+02  0.41800000000E+01 0. -1.
         -5    1    1    2    0  502  0.36054014503E+02  0.86284402251E+02  0.17724654897E+03  0.20044625602E+03  0.41800000000E+01 0. -1.
        -11    1    1    2    0    0 -0.12346242066E+02 -0.40846879740E+02 -0.65647464837E+01  0.43173987238E+02  0.00000000000E+00 0.  1.
         11    1    1    2    0    0 -0.38672133126E+02 -0.14259720143E+02  0.97375361582E+02  0.10573946540E+03  0.00000000000E+00 0. -1.
</event>
<event>
 7    1  0.3151015E-009  0.1257290E+03  0.7561462E-02  0.1233934E+00
          2   -1    0    0  501    0  0.00000000000E+00  0.00000000000E+00  0.13953353762E+03  0.13953353762E+03  0.00000000000E+00 0. -1.
         -2   -1    0    0    0  501 -0.00000000000E+00 -0.00000000000E+00 -0.17664521623E+03  0.17664521623E+03  0.00000000000E+00 0.  1.
         25    2    1    2    0    0  0.94117240565E+02 -0.64138098466E+02  0.36416948478E+01  0.16920641061E+03  0.12508315955E+03 0.  0.
          5    1    3    3  502    0  0.39485391042E+02 -0.38605602019E+02 -0.59849830430E+02  0.81541174970E+02  0.41800000000E+01 0.  1.
         -5    1    3    3    0  502  0.54631849523E+02 -0.25532496448E+02  0.63491525278E+02  0.87665235637E+02  0.41800000000E+01 0.  1.
        -11    1    1    2    0    0 -0.84335563486E+02  0.15164177779E+02 -0.45118545891E+02  0.96840708070E+02  0.00000000000E+00 0. -1.
         11    1    1    2    0    0 -0.97816770789E+01  0.48973920687E+02  0.43651724341E+01  0.50131635165E+02  0.00000000000E+00 0.  1.
</event>
<event>
 7    1  0.3151015E-009  0.1843947E+03  0.7561462E-02  0.1163616E+00
         -2   -1    0    0    0  501 -0.00000000000E+00  0.00000000000E+00  0.23661099190E+03  0.23661099190E+03  0.00000000000E+00 0.  1.
          2   -1    0    0  501    0  0.00000000000E+00 -0.00000000000E+00 -0.17680719648E+03  0.17680719648E+03  0.00000000000E+00 0. -1.
         25    2    1    2    0    0 -0.10814045979E+03 -0.12655549286E+03  0.86533832554E+01  0.20841086874E+03  0.12509819083E+03 0.  0.
          5    1    3    3  502    0 -0.11042771650E+03 -0.86963902184E+02  0.51614256786E+02  0.14979487561E+03  0.41800000000E+01 0. -1.
         -5    1    3    3    0  502  0.22872567191E+01 -0.39591590678E+02 -0.42960873530E+02  0.58615993127E+02  0.41800000000E+01 0. -1.
        -11    1    1    2    0    0  0.39496810812E+02  0.11112277498E+03 -0.15011951641E+00  0.11793342071E+03  0.00000000000E+00 0. -1.
         11    1    1    2    0    0  0.68643648973E+02  0.15432717879E+02  0.51300531679E+02  0.87073898937E+02  0.00000000000E+00 0.  1.
</event>
<event>
 7    1  0.3151015E-009  0.1071199E+03  0.7561462E-02  0.1265998E+00
         -2   -1    0    0    0  501 -0.00000000000E+00  0.00000000000E+00  0.93186403776E+02  0.93186403776E+02  0.00000000000E+00 0.  1.
          2   -1    0    0  501    0  0.00000000000E+00 -0.00000000000E+00 -0.12976792040E+03  0.12976792040E+03  0.00000000000E+00 0. -1.
         25    2    1    2    0    0  0.20653944860E+02  0.40662322365E+01 -0.34275542391E+02  0.13139677375E+03  0.12508868719E+03 0.  0.
          5    1    3    3  502    0  0.73497656537E+02  0.47522201765E+01 -0.17871178123E+02  0.75903494785E+02  0.41800000000E+01 0.  1.
         -5    1    3    3    0  502 -0.52843711677E+02 -0.68598793994E+00 -0.16404364269E+02  0.55493278965E+02  0.41800000000E+01 0.  1.
        -11    1    1    2    0    0  0.10633389195E+02  0.35475195910E+02 -0.14348519988E+02  0.39716980203E+02  0.00000000000E+00 0. -1.
         11    1    1    2    0    0 -0.31287334055E+02 -0.39541428147E+02  0.12042545760E+02  0.51840570218E+02  0.00000000000E+00 0.  1.
</event>
<event>
 7    1  0.3151015E-009  0.3067968E+03  0.7561462E-02  0.1081891E+00
          1   -1    0    0  501    0  0.00000000000E+00  0.00000000000E+00  0.16512543295E+04  0.16512543295E+04  0.00000000000E+00 0. -1.
         -1   -1    0    0    0  501 -0.00000000000E+00 -0.00000000000E+00 -0.63729107552E+02  0.63729107552E+02  0.00000000000E+00 0.  1.
         25    2    1    2    0    0 -0.15456414008E+03 -0.25453288148E+03  0.95720799804E+03  0.10102329067E+04  0.12508522312E+03 0.  0.
          5    1    3    3  502    0 -0.38663854172E+02 -0.90775103286E+02  0.15887023231E+03  0.18706211832E+03  0.41800000000E+01 0.  1.
         -5    1    3    3    0  502 -0.11590028591E+03 -0.16375777819E+03  0.79833776573E+03  0.82317078834E+03  0.41800000000E+01 0.  1.
        -11    1    1    2    0    0  0.97355241259E+02  0.23390821674E+03  0.48411668741E+03  0.54640650059E+03  0.00000000000E+00 0. -1.
         11    1    1    2    0    0  0.57208898825E+02  0.20624664736E+02  0.14620053650E+03  0.15834402980E+03  0.00000000000E+00 0.  1.
</event>
<event>
 7    1  0.3151015E-009  0.2071393E+03  0.7561462E-02  0.1143852E+00
         -2   -1    0    0    0  501 -0.00000000000E+00  0.00000000000E+00  0.54526084644E+03  0.54526084644E+03  0.00000000000E+00 0.  1.
          2   -1    0    0  501    0  0.00000000000E+00 -0.00000000000E+00 -0.13270089540E+03  0.13270089540E+03  0.00000000000E+00 0. -1.
         25    2    1    2    0    0 -0.14506339421E+03 -0.14076066425E+03  0.35825590435E+02  0.24039497196E+03  0.12509722887E+03 0.  0.
          5    1    3    3  502    0 -0.15928059359E+02 -0.38032520052E+02 -0.41026069988E+02  0.58316262528E+02  0.41800000000E+01 0.  1.
         -5    1    3    3    0  502 -0.12913533485E+03 -0.10272814420E+03  0.76851660424E+02  0.18207870943E+03  0.41800000000E+01 0.  1.
        -11    1    1    2    0    0  0.12451152539E+03  0.91874976536E+02  0.19895120488E+03  0.25204307805E+03  0.00000000000E+00 0.  1.
         11    1    1    2    0    0  0.20551868817E+02  0.48885687718E+02  0.17778315572E+03  0.18552369183E+03  0.00000000000E+00 0. -1.
</event>
<event>
 7    1  0.3151015E-009  0.1122845E+03  0.7561462E-02  0.1256397E+00
          1   -1    0    0  501    0  0.00000000000E+00  0.00000000000E+00  0.88277057377E+03  0.88277057377E+03  0.00000000000E+00 0. -1.
         -1   -1    0    0    0  501 -0.00000000000E+00 -0.00000000000E+00 -0.23185332771E+02  0.23185332771E+02  0.00000000000E+00 0.  1.
         25    2    1    2    0    0 -0.82612791054E+02  0.12240885831E+02  0.59301163758E+03  0.61178911645E+03  0.12509359763E+03 0.  0.
          5    1    3    3  502    0 -0.76112531469E+02  0.56788189315E+02  0.49232058195E+03  0.50141304701E+03  0.41800000000E+01 0. -1.
         -5    1    3    3    0  502 -0.65002595847E+01 -0.44547303484E+02  0.10069105563E+03  0.11037606945E+03  0.41800000000E+01 0. -1.
        -11    1    1    2    0    0  0.37206862865E+02 -0.11301460221E+02  0.20540462916E+02  0.43977087945E+02  0.00000000000E+00 0. -1.
         11    1    1    2    0    0  0.45405928189E+02 -0.93942561042E+00  0.24603314050E+03  0.25018970214E+03  0.00000000000E+00 0.  1.
</event>
<event>
 7    1  0.3151015E-009  0.1601716E+03  0.7561462E-02  0.1188503E+00
         -1   -1    0    0    0  501 -0.00000000000E+00  0.00000000000E+00  0.34347197038E+02  0.34347197038E+02  0.00000000000E+00 0.  1.
          1   -1    0    0  501    0  0.00000000000E+00 -0.00000000000E+00 -0.12052631471E+04  0.12052631471E+04  0.00000000000E+00 0. -1.
         25    2    1    2    0    0 -0.21060771726E+02  0.12798866029E+03 -0.94978253379E+03  0.96672573247E+03  0.12508847686E+03 0.  0.
          5    1    3    3  502    0  0.50068162916E+02  0.29787046361E+02 -0.34195968597E+03  0.34691207574E+03  0.41800000000E+01 0. -1.
         -5    1    3    3    0  502 -0.71128934643E+02  0.98201613933E+02 -0.60782284783E+03  0.61981365673E+03  0.41800000000E+01 0. -1.
        -11    1    1    2    0    0 -0.14939096322E+02 -0.12005003568E+02  0.15619131503E+01  0.19228527824E+02  0.00000000000E+00 0.  1.
         11    1    1    2    0    0  0.35999868048E+02 -0.11598365673E+03 -0.22269532941E+03  0.25365608384E+03  0.00000000000E+00 0. -1.
</event>
<event>
 7    1  0.3151015E-009  0.8659773E+02  0.7561462E-02  0.1311306E+00
          3   -1    0    0  501    0  0.00000000000E+00  0.00000000000E+00  0.32821563087E+02  0.32821563087E+02  0.00000000000E+00 0. -1.
         -3   -1    0    0    0  501 -0.00000000000E+00 -0.00000000000E+00 -0.56802081456E+03  0.56802081456E+03  0.00000000000E+00 0.  1.
         25    2    1    2    0    0  0.46534272529E+02 -0.36467872306E+02 -0.45328761639E+03  0.47392415647E+03  0.12505638201E+03 0.  0.
          5    1    3    3  502    0  0.46165685437E+02  0.20330349036E+02 -0.69748787116E+02  0.86179808006E+02  0.41800000000E+01 0. -1.
         -5    1    3    3    0  502  0.36858709162E+00 -0.56798221342E+02 -0.38353882928E+03  0.38774434847E+03  0.41800000000E+01 0. -1.
        -11    1    1    2    0    0 -0.28956003401E+02  0.47228267982E+01  0.76204285670E+01  0.30312145379E+02  0.00000000000E+00 0. -1.
         11    1    1    2    0    0 -0.17578269128E+02  0.31745045508E+02 -0.89532063646E+02  0.96606075795E+02  0.00000000000E+00 0.  1.
</event>
<event>
 7    1  0.3151015E-009  0.1445832E+03  0.7561462E-02  0.1207292E+00
          3   -1    0    0  501    0  0.00000000000E+00  0.00000000000E+00  0.77504763130E+03  0.77504763130E+03  0.00000000000E+00 0. -1.
         -3   -1    0    0    0  501 -0.00000000000E+00 -0.00000000000E+00 -0.33388792398E+02  0.33388792398E+02  0.00000000000E+00 0.  1.
         25    2    1    2    0    0  0.25118330835E+02 -0.11351302475E+03  0.39813419850E+03  0.43321377299E+03  0.12508875155E+03 0.  0.
          5    1    3    3  502    0  0.37196207234E+02  0.15706651823E+02  0.10670209498E+03  0.11416245538E+03  0.41800000000E+01 0. -1.
         -5    1    3    3    0  502 -0.12077876399E+02 -0.12921967657E+03  0.29143210352E+03  0.31905131762E+03  0.41800000000E+01 0. -1.
        -11    1    1    2    0    0 -0.38283617042E+01  0.71707276684E+02  0.79780098582E+02  0.10733803619E+03  0.00000000000E+00 0.  1.
         11    1    1    2    0    0 -0.21289969130E+02  0.41805748063E+02  0.26374454182E+03  0.26788461452E+03  0.00000000000E+00 0. -1.
</event>
<event>
 7    1  0.3151015E-009  0.1185028E+03  0.7561462E-02  0.1245588E+00
          1   -1    0    0  501    0  0.00000000000E+00  0.00000000000E+00  0.10100237383E+03  0.10100237383E+03  0.00000000000E+00 0. -1.
         -1   -1    0    0    0  501 -0.00000000000E+00 -0.00000000000E+00 -0.26879517184E+03  0.26879517184E+03  0.00000000000E+00 0.  1.
         25    2    1    2    0    0 -0.97182883162E+02 -0.24980851141E+02 -0.16981280283E+03  0.23356067057E+03  0.12508254525E+03 0.  0.
          5    1    3    3  502    0 -0.31873896948E+02 -0.10963351857E+02  0.14905534687E+02  0.37091612999E+02  0.41800000000E+01 0. -1.
         -5    1    3    3    0  502 -0.65308986214E+02 -0.14017499285E+02 -0.18471833752E+03  0.19646905757E+03  0.41800000000E+01 0. -1.
        -11    1    1    2    0    0  0.56789467655E+02 -0.32824658922E+02  0.36861167765E+01  0.65696950666E+02  0.00000000000E+00 0.  1.
         11    1    1    2    0    0  0.40393415507E+02  0.57805510063E+02 -0.16661119529E+01  0.70539924433E+02  0.00000000000E+00 0. -1.
</event>
<event>
 6    1  0.3151015E-009  0.8410476E+02  0.7561462E-02  0.1317790E+00
         -2   -1    0    0    0  501 -0.00000000000E+00  0.00000000000E+00  0.67738705365E+02  0.67738705365E+02  0.00000000000E+00 0.  1.
          2   -1    0    0  501    0  0.00000000000E+00 -0.00000000000E+00 -0.21932617606E+03  0.21932617606E+03  0.00000000000E+00 0. -1.
          5    1    1    2  502    0  0.50502781687E+01 -0.15376646923E+02 -0.13177878125E+03  0.13283473254E+03  0.41800000000E+01 0. -1.
         -5    1    1    2    0  502  0.59814156748E+01  0.51130603412E+02  0.15782545066E+01  0.51672809349E+02  0.41800000000E+01 0. -1.
        -11    1    1    2    0    0 -0.45237007680E+02 -0.45619049565E+02 -0.90447739717E+01  0.64879060438E+02  0.00000000000E+00 0.  1.
         11    1    1    2    0    0  0.34205313837E+02  0.98650930757E+01 -0.12342169976E+02  0.37678279098E+02  0.00000000000E+00 0. -1.
</event>
<event>
 7    1  0.3151015E-009  0.1245709E+03  0.7561462E-02  0.1235741E+00
          2   -1    0    0  501    0  0.00000000000E+00  0.00000000000E+00  0.62587453368E+03  0.62587453368E+03  0.00000000000E+00 0. -1.
         -2   -1    0    0    0  501 -0.00000000000E+00 -0.00000000000E+00 -0.28621498012E+02  0.28621498012E+02  0.00000000000E+00 0.  1.
         25    2    1    2    0    0 -0.54884514078E+02 -0.48536889393E+02  0.26322444794E+03  0.30050338965E+03  0.12508811965E+03 0.  0.
          5    1    3    3  502    0 -0.15633289944E+02 -0.87031613373E+02  0.14206228899E+03  0.16738598458E+03  0.41800000000E+01 0.  1.
         -5    1    3    3    0  502 -0.39251224134E+02  0.38494723980E+02  0.12116215895E+03  0.13311740507E+03  0.41800000000E+01 0.  1.
        -11    1    1    2    0    0 -0.18414441035E+02  0.18991328707E+02  0.30637590990E+02  0.40477452815E+02  0.00000000000E+00 0.  1.
         11    1    1    2    0    0  0.73298955113E+02  0.29545560686E+02  0.30339099673E+03  0.31351518923E+03  0.00000000000E+00 0. -1.
</event>
<event>
 7    1  0.3151015E-009  0.9795124E+02  0.7561462E-02  0.1284664E+00
         -1   -1    0    0    0  501 -0.00000000000E+00  0.00000000000E+00  0.87627314927E+03  0.87627314927E+03  0.00000000000E+00 0.  1.
          1   -1    0    0  501    0  0.00000000000E+00 -0.00000000000E+00 -0.19171734861E+02  0.19171734861E+02  0.00000000000E+00 0. -1.
         25    2    1    2    0    0  0.41672323255E+02 -0.34405314989E+02  0.34524584124E+03  0.37116277462E+03  0.12508719419E+03 0.  0.
          5    1    3    3  502    0  0.11550184626E+02  0.18040859743E+02  0.28451551561E+03  0.28535141564E+03  0.41800000000E+01 0.  1.
         -5    1    3    3    0  502  0.30122138629E+02 -0.52446174733E+02  0.60730325629E+02  0.85811358984E+02  0.41800000000E+01 0.  1.
        -11    1    1    2    0    0 -0.29827332827E+02 -0.33307450887E+02  0.19705880771E+03  0.20206738917E+03  0.00000000000E+00 0.  1.
         11    1    1    2    0    0 -0.11844990428E+02  0.67712765876E+02  0.31479676546E+03  0.32221472035E+03  0.00000000000E+00 0. -1.
</event>
<event>
 7    1  0.3151015E-009  0.1043359E+03  0.7561462E-02  0.1271434E+00
          1   -1    0    0  501    0  0.00000000000E+00  0.00000000000E+00  0.10428702508E+04  0.10428702508E+04  0.00000000000E+00 0. -1.
         -1   -1    0    0    0  501 -0.00000000000E+00 -0.00000000000E+00 -0.19836230945E+02  0.19836230945E+02  0.00000000000E+00 0.  1.
         25    2    1    2    0    0 -0.36038810225E+02 -0.22857712066E+02  0.87407120722E+03  0.88400706523E+03  0.12508695077E+03 0.  0.
          5    1    3    3  502    0 -0.51694182478E+02  0.32373048639E+02  0.64200049631E+03  0.64490496389E+03  0.41800000000E+01 0.  1.
         -5    1    3    3    0  502  0.15655372253E+02 -0.55230760704E+02  0.23207071090E+03  0.23910210135E+03  0.41800000000E+01 0.  1.
        -11    1    1    2    0    0  0.61397297587E+02  0.12934608811E+02  0.64623084498E+02  0.90072611299E+02  0.00000000000E+00 0.  1.
         11    1    1    2    0    0 -0.25358487362E+02  0.99231032545E+01  0.84339728126E+02  0.88626805199E+02  0.00000000000E+00 0. -1.
</event>
<event>
 7    1  0.3151015E-009  0.1323620E+03  0.7561462E-02  0.1223992E+00
          1   -1    0    0  501    0  0.00000000000E+00  0.00000000000E+00  0.25428982392E+03  0.25428982392E+03  0.00000000000E+00 0. -1.
         -1   -1    0    0    0  501 -0.00000000000E+00 -0.00000000000E+00 -0.80229064352E+02  0.80229064352E+02  0.00000000000E+00 0.  1.
         25    2    1    2    0    0 -0.75666107219E+02  0.49091298735E+02  0.68573985071E+02  0.16877505667E+03  0.12508921989E+03 0.  0.
          5    1    3    3  502    0 -0.35902409830E+02 -0.31302405932E+02 -0.10702137388E+02  0.48998283576E+02  0.41800000000E+01 0.  1.
         -5    1    3    3    0  502 -0.39763697389E+02  0.80393704667E+02  0.79276122459E+02  0.11977677309E+03  0.41800000000E+01 0.  1.
        -11    1    1    2    0    0  0.50673089729E+02  0.19363530747E+02  0.36408987906E+02  0.65332401961E+02  0.00000000000E+00 0.  1.
         11    1    1    2    0    0  0.24993017489E+02 -0.68454829482E+02  0.69077786592E+02  0.10041142964E+03  0.00000000000E+00 0. -1.
</event>
<event>
 7    1  0.3151015E-009  0.9997708E+02  0.7561462E-02  0.1280344E+00
          1   -1    0    0  501    0  0.00000000000E+00  0.00000000000E+00  0.39672901469E+03  0.39672901469E+03  0.00000000000E+00 0. -1.
         -1   -1    0    0    0  501 -0.00000000000E+00 -0.00000000000E+00 -0.34087431350E+02  0.34087431350E+02  0.00000000000E+00 0.  1.
         25    2    1    2    0    0  0.35268335055E+02 -0.60507119953E+01  0.15891893264E+03  0.20538132644E+03  0.12508315444E+03 0.  0.
          5    1    3    3  502    0 -0.10620015448E+02  0.51931930468E+02  0.88144891247E+02  0.10294029524E+03  0.41800000000E+01 0.  1.
         -5    1    3    3    0  502  0.45888350503E+02 -0.57982642463E+02  0.70774041388E+02  0.10244103120E+03  0.41800000000E+01 0.  1.
        -11    1    1    2    0    0 -0.16142422195E+02 -0.28772234825E+02  0.22559840182E+02  0.39967057437E+02  0.00000000000E+00 0.  1.
         11    1    1    2    0    0 -0.19125912861E+02  0.34822946820E+02  0.18116281052E+03  0.18546806217E+03  0.00000000000E+00 0. -1.
</event>
<event>
 7    1  0.3151015E-009  0.1035896E+03  0.7561462E-02  0.1272924E+00
         -1   -1    0    0    0  501 -0.00000000000E+00  0.00000000000E+00  0.21761297850E+02  0.21761297850E+02  0.00000000000E+00 0.  1.
          1   -1    0    0  501    0  0.00000000000E+00 -0.00000000000E+00 -0.62646342414E+03  0.62646342414E+03  0.00000000000E+00 0. -1.
         25    2    1    2    0    0 -0.42283015548E+01  0.21846826156E+02 -0.44196778805E+03  0.45986804531E+03  0.12509169068E+03 0.  0.
          5    1    3    3  502    0 -0.55019482772E+02  0.37534262464E+02 -0.16818528246E+03  0.18094122245E+03  0.41800000000E+01 0.  1.
         -5    1    3    3    0  502  0.50791181217E+02 -0.15687436308E+02 -0.27378250559E+03  0.27892682286E+03  0.41800000000E+01 0.  1.
        -11    1    1    2    0    0 -0.32557072375E+02  0.14291387469E+02 -0.10544110538E+03  0.11127458569E+03  0.00000000000E+00 0. -1.
         11    1    1    2    0    0  0.36785373930E+02 -0.36138213624E+02 -0.57293232857E+02  0.77082090983E+02  0.00000000000E+00 0.  1.
</event>
<event>
 7    1  0.3151015E-009  0.9703615E+02  0.7561462E-02  0.1286655E+00
         -1   -1    0    0    0  501 -0.00000000000E+00  0.00000000000E+00  0.75339261851E+02  0.75339261851E+02  0.00000000000E+00 0.  1.
          1   -1    0    0  501    0  0.00000000000E+00 -0.00000000000E+00 -0.23509649395E+03  0.23509649395E+03  0.00000000000E+00 0. -1.
         25    2    1    2    0    0  0.30111501222E+02  0.50520287133E+02 -0.23308891919E+02  0.14018298946E+03  0.12509581996E+03 0.  0.
          5    1    3    3  502    0  0.22320755711E+02 -0.14318828556E+02  0.40626458521E+02  0.48695241232E+02  0.41800000000E+01 0. -1.
         -5    1    3    3    0  502  0.77907455110E+01  0.64839115689E+02 -0.63935350440E+02  0.91487748223E+02  0.41800000000E+01 0. -1.
        -11    1    1    2    0    0  0.70752055975E+01  0.20463684226E+02 -0.27208857205E+02  0.34772730936E+02  0.00000000000E+00 0.  1.
         11    1    1    2    0    0 -0.37186706819E+02 -0.70983971360E+02 -0.10923948298E+03  0.13548003541E+03  0.00000000000E+00 0. -1.
</event>
<event>
 7    1  0.3151015E-009  0.6157606E+02  0.7561462E-02  0.1391334E+00
          1   -1    0    0  501    0  0.00000000000E+00  0.00000000000E+00  0.58276965684E+03  0.58276965684E+03  0.00000000000E+00 0. -1.
         -1   -1    0    0    0  501 -0.00000000000E+00 -0.00000000000E+00 -0.21640512880E+02  0.21640512880E+02  0.00000000000E+00 0.  1.
         25    2    1    2    0    0  0.12726069100E+02  0.24884780773E+02  0.34374665593E+03  0.36686254359E+03  0.12508060312E+03 0.  0.
          5    1    3    3  502    0  0.19047526843E+02  0.17488425810E+02  0.34719487433E+01  0.26423098687E+02  0.41800000000E+01 0.  1.
         -5    1    3    3    0  502 -0.63214577430E+01  0.73963549632E+01  0.34027470719E+03  0.34043944490E+03  0.41800000000E+01 0.  1.
        -11    1    1    2    0    0 -0.11600198925E+02 -0.55011262093E+02  0.18477607471E+03  0.19313984922E+03  0.00000000000E+00 0. -1.
         11    1    1    2    0    0 -0.11258701750E+01  0.30126481320E+02  0.32606413316E+02  0.44407776905E+02  0.00000000000E+00 0.  1.
</event>
<event>
 7    1  0.3151015E-009  0.1459601E+03  0.7561462E-02  0.1205527E+00
          2   -1    0    0  501    0  0.00000000000E+00  0.00000000000E+00  0.67972891493E+03  0.67972891493E+03  0.00000000000E+00 0. -1.
         -2   -1    0    0    0  501 -0.00000000000E+00 -0.00000000000E+00 -0.36505928717E+02  0.36505928717E+02  0.00000000000E+00 0.  1.
         25    2    1    2    0    0  0.11323473751E+03  0.13175424954E+02  0.36341751073E+03  0.40089209124E+03  0.12508590694E+03 0.  0.
          5    1    3    3  502    0  0.29450993010E+02  0.64358911619E+02  0.14666140040E+03  0.16290018190E+03  0.41800000000E+01 0.  1.
         -5    1    3    3    0  502  0.83783744500E+02 -0.51183486665E+02  0.21675611033E+03  0.23799190935E+03  0.41800000000E+01 0.  1.
        -11    1    1    2    0    0 -0.51320734561E+02 -0.28861655753E+02  0.51345917698E+02  0.78123083867E+02  0.00000000000E+00 0.  1.
         11    1    1    2    0    0 -0.61914002949E+02  0.15686230799E+02  0.22845955779E+03  0.23721966854E+03  0.00000000000E+00 0. -1.
</event>
<event>
 7    1  0.3151015E-009  0.1025024E+03  0.7561462E-02  0.1275120E+00
          2   -1    0    0  501    0  0.00000000000E+00  0.00000000000E+00  0.35426544738E+03  0.35426544738E+03  0.00000000000E+00 0. -1.
         -2   -1    0    0    0  501 -0.00000000000E+00 -0.00000000000E+00 -0.39877291473E+02  0.39877291473E+02  0.00000000000E+00 0.  1.
         25    2    1    2    0    0  0.48191435595E+02  0.15488526075E+02  0.19829574451E+03  0.23985570033E+03  0.12508895149E+03 0.  0.
          5    1    3    3  502    0 -0.40047200645E+02  0.22280891283E+02  0.60031581543E+02  0.75640462574E+02  0.41800000000E+01 0.  1.
         -5    1    3    3    0  502  0.88238636240E+02 -0.67923652072E+01  0.13826416296E+03  0.16421523775E+03  0.41800000000E+01 0.  1.
        -11    1    1    2    0    0 -0.41814746132E+02 -0.32021899697E+02  0.19624305871E+02  0.56204879105E+02  0.00000000000E+00 0.  1.
         11    1    1    2    0    0 -0.63766894635E+01  0.16533373622E+02  0.96468105529E+02  0.98082159419E+02  0.00000000000E+00 0. -1.
</event>
<event>
 7    1  0.3151015E-009  0.7018122E+02  0.7561462E-02  0.1359478E+00
          2   -1    0    0  501    0  0.00000000000E+00  0.00000000000E+00  0.38744463544E+03  0.38744463544E+03  0.00000000000E+00 0. -1.
         -2   -1    0    0    0  501 -0.00000000000E+00 -0.00000000000E+00 -0.34343984984E+02  0.34343984984E+02  0.00000000000E+00 0.  1.
         25    2    1    2    0    0  0.14676051805E+02  0.29207423613E+02  0.15831734113E+03  0.20440074113E+03  0.12508725907E+03 0.  0.
          5    1    3    3  502    0 -0.15281452169E+02 -0.18501641891E+00 -0.17493357543E+02  0.23601842504E+02  0.41800000000E+01 0. -1.
         -5    1    3    3    0  502  0.29957503974E+02  0.29392440032E+02  0.17581069867E+03  0.18079889862E+03  0.41800000000E+01 0. -1.
        -11    1    1    2    0    0 -0.38327816245E+02  0.71300423448E+01  0.36971382609E+02  0.53728410864E+02  0.00000000000E+00 0.  1.
         11    1    1    2    0    0  0.23651764440E+02 -0.36337465958E+02  0.15781192672E+03  0.16365946843E+03  0.00000000000E+00 0. -1.
</event>
<event>
 7    1  0.3151015E-009  0.1285685E+03  0.7561462E-02  0.1229595E+00
         -3   -1    0    0    0  501 -0.00000000000E+00  0.00000000000E+00  0.34898346858E+02  0.34898346858E+02  0.00000000000E+00 0.  1.
          3   -1    0    0  501    0  0.00000000000E+00 -0.00000000000E+00 -0.54575662270E+03  0.54575662270E+03  0.00000000000E+00 0. -1.
         25    2    1    2    0    0  0.70007549487E+02  0.49508704528E+02 -0.25898008055E+03  0.30011394929E+03  0.12508209955E+03 0.  0.
          5    1    3    3  502    0  0.73737887894E+02 -0.18204356681E+02 -0.89119286045E+02  0.11716823059E+03  0.41800000000E+01 0. -1.
         -5    1    3    3    0  502 -0.37303384070E+01  0.67713061209E+02 -0.16986079451E+03  0.18294571871E+03  0.41800000000E+01 0. -1.
        -11    1    1    2    0    0  0.24344369745E+01 -0.39986711738E+02 -0.14943295822E+03  0.15470963965E+03  0.00000000000E+00 0. -1.
         11    1    1    2    0    0 -0.72441986461E+02 -0.95219927903E+01 -0.10244523708E+03  0.12583138062E+03  0.00000000000E+00 0.  1.
</event>
<event>
 7    1  0.3151015E-009  0.1219400E+03  0.7561462E-02  0.1239930E+00
          2   -1    0    0  501    0  0.00000000000E+00  0.00000000000E+00  0.56062976663E+03  0.56062976663E+03  0.00000000000E+00 0. -1.
         -2   -1    0    0    0  501 -0.00000000000E+00 -0.00000000000E+00 -0.27042255971E+02  0.27042255971E+02  0.00000000000E+00 0.  1.
         25    2    1    2    0    0  0.48704497781E+02 -0.29921480222E+02  0.30354778504E+03  0.33324980603E+03  0.12508697907E+03 0.  0.
          5    1    3    3  502    0 -0.39469097244E+02  0.74281248317E+01  0.11205794259E+03  0.11911104724E+03  0.41800000000E+01 0.  1.
         -5    1    3    3    0  502  0.88173595025E+02 -0.37349605053E+02  0.19148984245E+03  0.21413875879E+03  0.41800000000E+01 0.  1.
        -11    1    1    2    0    0 -0.14663271491E+02  0.60281434879E+02  0.11494416598E+03  0.13061785565E+03  0.00000000000E+00 0. -1.
         11    1    1    2    0    0 -0.34041226290E+02 -0.30359954658E+02  0.11509555964E+03  0.12380436092E+03  0.00000000000E+00 0.  1.
</event>
<event>
 7    1  0.3151015E-009  0.7190923E+02  0.7561462E-02  0.1353718E+00
          3   -1    0    0  501    0  0.00000000000E+00  0.00000000000E+00  0.87044031158E+02  0.87044031158E+02  0.00000000000E+00 0. -1.
         -3   -1    0    0    0  501 -0.00000000000E+00 -0.00000000000E+00 -0.18144854006E+03  0.18144854006E+03  0.00000000000E+00 0.  1.
         25    2    1    2    0    0  0.26962308361E+02 -0.20836688105E+02 -0.10939861908E+03  0.16963473881E+03  0.12508698219E+03 0.  0.
          5    1    3    3  502    0  0.20668138334E+02 -0.30158236273E+02 -0.13576638252E+03  0.14066511359E+03  0.41800000000E+01 0. -1.
         -5    1    3    3    0  502  0.62941700270E+01  0.93215481680E+01  0.26367763445E+02  0.28969625225E+02  0.41800000000E+01 0. -1.
        -11    1    1    2    0    0  0.32499457884E+02  0.16563705773E+01 -0.57084160472E+01  0.33038528115E+02  0.00000000000E+00 0. -1.
         11    1    1    2    0    0 -0.59461766245E+02  0.19180317528E+02  0.20702526222E+02  0.65819304292E+02  0.00000000000E+00 0.  1.
</event>
<event>
 7    1  0.3151015E-009  0.1007684E+03  0.7561462E-02  0.1278688E+00
          1   -1    0    0  501    0  0.00000000000E+00  0.00000000000E+00  0.16221953882E+03  0.16221953882E+03  0.00000000000E+00 0. -1.
         -1   -1    0    0    0  501 -0.00000000000E+00 -0.00000000000E+00 -0.82681203077E+02  0.82681203077E+02  0.00000000000E+00 0.  1.
         25    2    1    2    0    0 -0.10143122972E+01  0.26519333314E+02  0.15035770596E+02  0.12875441204E+03  0.12508924955E+03 0.  0.
          5    1    3    3  502    0  0.53772265934E+02 -0.14542979684E+02 -0.79233991903E+01  0.56419921096E+02  0.41800000000E+01 0.  1.
         -5    1    3    3    0  502 -0.54786578231E+02  0.41062312998E+02  0.22959169786E+02  0.72334490945E+02  0.41800000000E+01 0.  1.
        -11    1    1    2    0    0  0.35745383459E+02 -0.22212738268E+02 -0.76062827043E+00  0.42091765648E+02  0.00000000000E+00 0.  1.
         11    1    1    2    0    0 -0.34731071162E+02 -0.43065950458E+01  0.65263193415E+02  0.74054564205E+02  0.00000000000E+00 0. -1.
</event>
<event>
 7    1  0.3151015E-009  0.2947761E+03  0.7561462E-02  0.1087882E+00
          2   -1    0    0  501    0  0.00000000000E+00  0.00000000000E+00  0.22427706401E+04  0.22427706401E+04  0.00000000000E+00 0. -1.
         -2   -1    0    0    0  501 -0.00000000000E+00 -0.00000000000E+00 -0.41325622527E+02  0.41325622527E+02  0.00000000000E+00 0.  1.
         25    2    1    2    0    0  0.27814203167E+03 -0.54214768337E+02  0.11512459370E+04  0.11921889780E+04  0.12508045738E+03 0.  0.
          5    1    3    3  502    0  0.42409235259E+02  0.33725221792E+02  0.14195830825E+03  0.15200515617E+03  0.41800000000E+01 0. -1.
         -5    1    3    3    0  502  0.23573279641E+03 -0.87939990129E+02  0.10092876287E+04  0.10401838218E+04  0.41800000000E+01 0. -1.
        -11    1    1    2    0    0 -0.15429516523E+03  0.24760054998E+02  0.40157576824E+03  0.43090968424E+03  0.00000000000E+00 0.  1.
         11    1    1    2    0    0 -0.12384686644E+03  0.29454713339E+02  0.64862331232E+03  0.66099760042E+03  0.00000000000E+00 0. -1.
</event>
<event>
 7    1  0.3151015E-009  0.9065184E+02  0.7561462E-02  0.1301281E+00
         -4   -1    0    0    0  501 -0.00000000000E+00  0.00000000000E+00  0.17101920403E+03  0.17101920403E+03  0.00000000000E+00 0.  1.
          4   -1    0    0  501    0  0.00000000000E+00 -0.00000000000E+00 -0.10276220357E+03  0.10276220357E+03  0.00000000000E+00 0. -1.
         25    2    1    2    0    0  0.30770230885E+02  0.53859454039E+02 -0.81656511683E+01  0.13986110936E+03  0.12508718621E+03 0.  0.
          5    1    3    3  502    0  0.12265293343E+02  0.57929327293E+02 -0.60068090193E+02  0.84450531323E+02  0.41800000000E+01 0. -1.
         -5    1    3    3    0  502  0.18504937542E+02 -0.40698732539E+01  0.51902439025E+02  0.55410578038E+02  0.41800000000E+01 0. -1.
        -11    1    1    2    0    0 -0.56494367962E+02 -0.19812714617E+02  0.67685138629E+02  0.90362798004E+02  0.00000000000E+00 0.  1.
         11    1    1    2    0    0  0.25724137077E+02 -0.34046739422E+02  0.87375129977E+01  0.43557500239E+02  0.00000000000E+00 0. -1.
</event>
<event>
 7    1  0.3151015E-009  0.8037943E+02  0.7561462E-02  0.1327978E+00
          1   -1    0    0  501    0  0.00000000000E+00  0.00000000000E+00  0.19314309450E+03  0.19314309450E+03  0.00000000000E+00 0. -1.
         -1   -1    0    0    0  501 -0.00000000000E+00 -0.00000000000E+00 -0.84965382886E+02  0.84965382886E+02  0.00000000000E+00 0.  1.
         25    2    1    2    0    0 -0.14111373427E+02 -0.27816978765E+02  0.12671676911E+03  0.18076993043E+03  0.12509081904E+03 0.  0.
          5    1    3    3  502    0  0.74926045739E+01 -0.70827811145E+02  0.10696442995E+03  0.12857519057E+03  0.41800000000E+01 0. -1.
         -5    1    3    3    0  502 -0.21603978001E+02  0.43010832381E+02  0.19752339159E+02  0.52194739867E+02  0.41800000000E+01 0. -1.
        -11    1    1    2    0    0 -0.45833494057E+01  0.20530473614E+02 -0.53245144907E+02  0.57249916111E+02  0.00000000000E+00 0.  1.
         11    1    1    2    0    0  0.18694722833E+02  0.72865051508E+01  0.34706087409E+02  0.40088630836E+02  0.00000000000E+00 0. -1.
</event>
<event>
 7    1  0.3151015E-009  0.1065447E+03  0.7561462E-02  0.1267106E+00
         -2   -1    0    0    0  501 -0.00000000000E+00  0.00000000000E+00  0.10810936242E+03  0.10810936242E+03  0.00000000000E+00 0.  1.
          2   -1    0    0  501    0  0.00000000000E+00 -0.00000000000E+00 -0.14250980321E+03  0.14250980321E+03  0.00000000000E+00 0. -1.
         25    2    1    2    0    0  0.29623156879E+02  0.36653054681E+02  0.31331708727E+02  0.13729568618E+03  0.12508977428E+03 0.  0.
          5    1    3    3  502    0  0.57105387001E+02 -0.27658994513E+02  0.16135932861E+02  0.65604008500E+02  0.41800000000E+01 0. -1.
         -5    1    3    3    0  502 -0.27482230122E+02  0.64312049195E+02  0.15195775866E+02  0.71691677678E+02  0.41800000000E+01 0. -1.
        -11    1    1    2    0    0 -0.44832302420E+02 -0.60167575009E+01 -0.75897818827E+01  0.45866561896E+02  0.00000000000E+00 0.  1.
         11    1    1    2    0    0  0.15209145542E+02 -0.30636297181E+02 -0.58142367631E+02  0.67456917561E+02  0.00000000000E+00 0. -1.
</event>
<event>
 7    1  0.3151015E-009  0.1466562E+03  0.7561462E-02  0.1204643E+00
          2   -1    0    0  501    0  0.00000000000E+00  0.00000000000E+00  0.72507626798E+03  0.72507626798E+03  0.00000000000E+00 0. -1.
         -2   -1    0    0    0  501 -0.00000000000E+00 -0.00000000000E+00 -0.34628360425E+02  0.34628360425E+02  0.00000000000E+00 0.  1.
         25    2    1    2    0    0  0.95242010426E+02 -0.59698612840E+02  0.44878843998E+03  0.47926472887E+03  0.12509457047E+03 0.  0.
          5    1    3    3  502    0  0.82850017254E+02  0.94508976344E+01  0.14397218042E+03  0.16642988302E+03  0.41800000000E+01 0.  1.
         -5    1    3    3    0  502  0.12391993172E+02 -0.69149510474E+02  0.30481625955E+03  0.31283484586E+03  0.41800000000E+01 0.  1.
        -11    1    1    2    0    0 -0.11052192122E+03  0.55053410349E+02  0.22857790995E+03  0.25979575435E+03  0.00000000000E+00 0. -1.
         11    1    1    2    0    0  0.15279910797E+02  0.46452024912E+01  0.13081557622E+02  0.20644145174E+02  0.00000000000E+00 0.  1.
</event>
<event>
 7    1  0.3151015E-009  0.1096024E+03  0.7561462E-02  0.1261308E+00
          2   -1    0    0  501    0  0.00000000000E+00  0.00000000000E+00  0.74770942409E+03  0.74770942409E+03  0.00000000000E+00 0. -1.
         -2   -1    0    0    0  501 -0.00000000000E+00 -0.00000000000E+00 -0.19734471220E+02  0.19734471220E+02  0.00000000000E+00 0.  1.
         25    2    1    2    0    0 -0.28467367191E+02  0.58530408134E+02  0.50541494901E+03  0.52471659639E+03  0.12508811366E+03 0.  0.
          5    1    3    3  502    0 -0.62258777394E+02  0.62334274231E+02  0.21648700530E+03  0.23376443906E+03  0.41800000000E+01 0.  1.
         -5    1    3    3    0  502  0.33791410203E+02 -0.38038660966E+01  0.28892794371E+03  0.29095215733E+03  0.41800000000E+01 0.  1.
        -11    1    1    2    0    0 -0.19830979499E+02 -0.40673841510E+02  0.11025877205E+03  0.11918316133E+03  0.00000000000E+00 0.  1.
         11    1    1    2    0    0  0.48298346690E+02 -0.17856566624E+02  0.11230123181E+03  0.12354413758E+03  0.00000000000E+00 0. -1.
</event>
<event>
 7    1  0.3151015E-009  0.2103330E+03  0.7561462E-02  0.1141303E+00
          1   -1    0    0  501    0  0.00000000000E+00  0.00000000000E+00  0.12397197468E+03  0.12397197468E+03  0.00000000000E+00 0. -1.
         -1   -1    0    0    0  501 -0.00000000000E+00 -0.00000000000E+00 -0.39200847246E+03  0.39200847246E+03  0.00000000000E+00 0.  1.
         25    2    1    2    0    0 -0.16230920009E+03 -0.81352974107E+02 -0.70170847218E+02  0.23137442473E+03  0.12509034250E+03 0.  0.
          5    1    3    3  502    0 -0.12593190589E+03 -0.11252398488E+03 -0.71084022696E+02  0.18327821141E+03  0.41800000000E+01 0. -1.
         -5    1    3    3    0  502 -0.36377294204E+02  0.31171010772E+02  0.91317547829E+00  0.48096213319E+02  0.41800000000E+01 0. -1.
        -11    1    1    2    0    0  0.14521543525E+03  0.28351967037E+02 -0.15542019605E+03  0.21458516726E+03  0.00000000000E+00 0.  1.
         11    1    1    2    0    0  0.17093764846E+02  0.53001007070E+02 -0.42445454517E+02  0.70020855152E+02  0.00000000000E+00 0. -1.
</event>
<event>
 7    1  0.3151015E-009  0.9145656E+02  0.7561462E-02  0.1299362E+00
         -2   -1    0    0    0  501 -0.00000000000E+00  0.00000000000E+00  0.12497297920E+03  0.12497297920E+03  0.00000000000E+00 0. -1.
          2   -1    0    0  501    0  0.00000000000E+00 -0.00000000000E+00 -0.14640980852E+03  0.14640980852E+03  0.00000000000E+00 0.  1.
         25    2    1    2    0    0  0.19997233771E+02  0.53270106668E+02  0.45295391482E+02  0.14469563388E+03  0.12509020885E+03 0.  0.
          5    1    3    3  502    0  0.29192730662E+02 -0.15639077975E+02  0.64348079496E+02  0.72490992670E+02  0.41800000000E+01 0.  1.
         -5    1    3    3    0  502 -0.91954968916E+01  0.68909184643E+02 -0.19052688014E+02  0.72204641207E+02  0.41800000000E+01 0.  1.
        -11    1    1    2    0    0  0.18166972695E+02 -0.30342091973E+02 -0.73583895013E+02  0.81641111258E+02  0.00000000000E+00 0.  1.
         11    1    1    2    0    0 -0.38164206465E+02 -0.22928014695E+02  0.68516742183E+01  0.45046042585E+02  0.00000000000E+00 0. -1.
</event>
<event>
 7    1  0.3151015E-009  0.9259321E+02  0.7561462E-02  0.1296691E+00
          2   -1    0    0  501    0  0.00000000000E+00  0.00000000000E+00  0.19042440483E+03  0.19042440483E+03  0.00000000000E+00 0. -1.
         -2   -1    0    0    0  501 -0.00000000000E+00 -0.00000000000E+00 -0.83045112688E+02  0.83045112688E+02  0.00000000000E+00 0.  1.
         25    2    1    2    0    0  0.20469266603E+02 -0.30388283721E+02  0.52803422560E+01  0.13045468145E+03  0.12509237881E+03 0.  0.
          5    1    3    3  502    0  0.19010288324E+02  0.47251629822E+02 -0.74818080341E+01  0.51648402052E+02  0.41800000000E+01 0. -1.
         -5    1    3    3    0  502  0.14589782790E+01 -0.77639913544E+02  0.12762150290E+02  0.78806279399E+02  0.41800000000E+01 0. -1.
        -11    1    1    2    0    0 -0.25144768878E+01  0.37072831419E+02 -0.19573178912E+01  0.37209521856E+02  0.00000000000E+00 0.  1.
         11    1    1    2    0    0 -0.17954789716E+02 -0.66845476973E+01  0.10405626778E+03  0.10580531422E+03  0.00000000000E+00 0. -1.
</event>
<event>
 7    1  0.3151015E-009  0.8368489E+02  0.7561462E-02  0.1318908E+00
          2   -1    0    0  501    0  0.00000000000E+00  0.00000000000E+00  0.37398219154E+03  0.37398219154E+03  0.00000000000E+00 0.  1.
         -2   -1    0    0    0  501 -0.00000000000E+00 -0.00000000000E+00 -0.30942766571E+02  0.30942766571E+02  0.00000000000E+00 0. -1.
         25    2    1    2    0    0  0.10039305715E+02  0.19752821813E+02  0.22855357292E+03  0.26151343529E+03  0.12514623252E+03 0.  0.
          5    1    3    3  502    0  0.20317516729E+02 -0.43928685202E+02  0.16033718403E+03  0.16753511827E+03  0.41800000000E+01 0. -1.
         -5    1    3    3    0  502 -0.10278211014E+02  0.63681507014E+02  0.68216388885E+02  0.93978317019E+02  0.41800000000E+01 0. -1.
        -11    1    1    2    0    0 -0.89205879130E+01  0.16031990367E+02 -0.47209744968E+01  0.18944371302E+02  0.00000000000E+00 0. -1.
         11    1    1    2    0    0 -0.11187178024E+01 -0.35784812180E+02  0.11920682654E+03  0.12446715152E+03  0.00000000000E+00 0.  1.
</event>
<event>
 7    1  0.3151015E-009  0.1610946E+03  0.7561462E-02  0.1187466E+00
          2   -1    0    0  501    0  0.00000000000E+00  0.00000000000E+00  0.24794813590E+04  0.24794813590E+04  0.00000000000E+00 0. -1.
         -2   -1    0    0    0  501 -0.00000000000E+00 -0.00000000000E+00 -0.14385993087E+02  0.14385993087E+02  0.00000000000E+00 0.  1.
         25    2    1    2    0    0 -0.12225795450E+03 -0.90343106073E+02  0.16072616900E+04  0.16192734877E+04  0.12509038111E+03 0.  0.
          5    1    3    3  502    0 -0.61365862447E+02 -0.35766551088E+02  0.12781842413E+04  0.12801630531E+04  0.41800000000E+01 0.  1.
         -5    1    3    3    0  502 -0.60892092050E+02 -0.54576554985E+02  0.32907744868E+03  0.33911043460E+03  0.41800000000E+01 0.  1.
        -11    1    1    2    0    0  0.13188650741E+03  0.77041197730E+02  0.80112997460E+03  0.81556031854E+03  0.00000000000E+00 0. -1.
         11    1    1    2    0    0 -0.96285529088E+01  0.13301908342E+02  0.56703701309E+02  0.59033545877E+02  0.00000000000E+00 0.  1.
</event>
<event>
 7    1  0.3151015E-009  0.1026473E+03  0.7561462E-02  0.1274826E+00
          1   -1    0    0  501    0  0.00000000000E+00  0.00000000000E+00  0.19434103033E+03  0.19434103033E+03  0.00000000000E+00 0. -1.
         -1   -1    0    0    0  501 -0.00000000000E+00 -0.00000000000E+00 -0.75290158665E+02  0.75290158665E+02  0.00000000000E+00 0.  1.
         25    2    1    2    0    0 -0.10450984560E+02 -0.37496996625E+02  0.98868366869E+02  0.16413043973E+03  0.12509436216E+03 0.  0.
          5    1    3    3  502    0 -0.46241257174E+00 -0.69045370608E+02  0.10915313919E+03  0.12922599283E+03  0.41800000000E+01 0.  1.
         -5    1    3    3    0  502 -0.99885719882E+01  0.31548373983E+02 -0.10284772323E+02  0.34904446895E+02  0.41800000000E+01 0.  1.
        -11    1    1    2    0    0  0.47829106464E+02 -0.26632175451E+01  0.15890182533E+02  0.50469932175E+02  0.00000000000E+00 0.  1.
         11    1    1    2    0    0 -0.37378121904E+02  0.40160214170E+02  0.42923222609E+01  0.55030817090E+02  0.00000000000E+00 0. -1.
</event>
<event>
 7    1  0.3151015E-009  0.1799470E+03  0.7561462E-02  0.1167854E+00
          1   -1    0    0  501    0  0.00000000000E+00  0.00000000000E+00  0.62937455374E+03  0.62937455374E+03  0.00000000000E+00 0. -1.
         -1   -1    0    0    0  501 -0.00000000000E+00 -0.00000000000E+00 -0.54412080642E+02  0.54412080642E+02  0.00000000000E+00 0.  1.
         25    2    1    2    0    0 -0.18135623692E+02 -0.14728005829E+03  0.28351686267E+03  0.34358209985E+03  0.12508609635E+03 0.  0.
          5    1    3    3  502    0  0.39975715294E+02 -0.10774122898E+03  0.22229347858E+03  0.25027603412E+03  0.41800000000E+01 0.  1.
         -5    1    3    3    0  502 -0.58111338986E+02 -0.39538829315E+02  0.61223384085E+02  0.93306065726E+02  0.41800000000E+01 0.  1.
        -11    1    1    2    0    0 -0.22862215610E+02  0.12645437778E+03  0.22990804753E+03  0.26338394196E+03  0.00000000000E+00 0. -1.
         11    1    1    2    0    0  0.40997839303E+02  0.20825680513E+02  0.61537562901E+02  0.76820592578E+02  0.00000000000E+00 0.  1.
</event>
<event>
 7    1  0.3151015E-009  0.1474960E+03  0.7561462E-02  0.1203584E+00
          1   -1    0    0  501    0  0.00000000000E+00  0.00000000000E+00  0.34172528979E+04  0.34172528979E+04  0.00000000000E+00 0. -1.
         -1   -1    0    0    0  501 -0.00000000000E+00 -0.00000000000E+00 -0.11476437075E+02  0.11476437075E+02  0.00000000000E+00 0.  1.
         25    2    1    2    0    0 -0.12567249527E+03 -0.62322338833E+01  0.26978952988E+04  0.27037230095E+04  0.12508657675E+03 0.  0.
          5    1    3    3  502    0 -0.82664203402E+02 -0.54105600022E+02  0.10725473460E+04  0.10770961277E+04  0.41800000000E+01 0. -1.
         -5    1    3    3    0  502 -0.43008291869E+02  0.47873366138E+02  0.16253479528E+04  0.16266268817E+04  0.41800000000E+01 0. -1.
        -11    1    1    2    0    0  0.11508666647E+03 -0.62420030470E+01  0.69413197873E+03  0.70363563533E+03  0.00000000000E+00 0. -1.
         11    1    1    2    0    0  0.10585828800E+02  0.12474236930E+02  0.13749183264E+02  0.21370690181E+02  0.00000000000E+00 0.  1.
</event>
<event>
 7    1  0.3151015E-009  0.1131965E+03  0.7561462E-02  0.1254762E+00
         -1   -1    0    0    0  501 -0.00000000000E+00  0.00000000000E+00  0.14454794333E+02  0.14454794333E+02  0.00000000000E+00 0.  1.
          1   -1    0    0  501    0  0.00000000000E+00 -0.00000000000E+00 -0.97141861936E+03  0.97141861936E+03  0.00000000000E+00 0. -1.
         25    2    1    2    0    0  0.39073863882E+01  0.43840057286E+02 -0.61880839689E+03  0.63285717272E+03  0.12508857146E+03 0.  0.
          5    1    3    3  502    0 -0.55269624104E+02  0.40227054709E+02 -0.24660634925E+03  0.25593966315E+03  0.41800000000E+01 0.  1.
         -5    1    3    3    0  502  0.59177010492E+02  0.36130025773E+01 -0.37220204763E+03  0.37691750957E+03  0.41800000000E+01 0.  1.
        -11    1    1    2    0    0  0.34624813298E+02 -0.48572408627E+02 -0.16198190654E+03  0.17261603234E+03  0.00000000000E+00 0.  1.
         11    1    1    2    0    0 -0.38532199686E+02  0.47323513409E+01 -0.17617352160E+03  0.18040020864E+03  0.00000000000E+00 0. -1.
</event>
<event>
 7    1  0.3151015E-009  0.9656480E+02  0.7561462E-02  0.1287690E+00
          2   -1    0    0  501    0  0.00000000000E+00  0.00000000000E+00  0.19358551867E+03  0.19358551867E+03  0.00000000000E+00 0. -1.
         -2   -1    0    0    0  501 -0.00000000000E+00 -0.00000000000E+00 -0.73060414457E+02  0.73060414457E+02  0.00000000000E+00 0.  1.
         25    2    1    2    0    0 -0.24824067520E+02  0.14822852777E+02  0.33337388128E+02  0.13264018710E+03  0.12508431754E+03 0.  0.
          5    1    3    3  502    0 -0.48046997564E+02 -0.18163555790E+02  0.63729337568E+02  0.81959316741E+02  0.41800000000E+01 0.  1.
         -5    1    3    3    0  502  0.23222930044E+02  0.32986408567E+02 -0.30391949440E+02  0.50680870363E+02  0.41800000000E+01 0.  1.
        -11    1    1    2    0    0  0.62380387886E+02 -0.98362212354E+01  0.62082070418E+02  0.88556465085E+02  0.00000000000E+00 0. -1.
         11    1    1    2    0    0 -0.37556320366E+02 -0.49866315415E+01  0.25105645672E+02  0.45449280942E+02  0.00000000000E+00 0.  1.
</event>
<event>
 7    1  0.3151015E-009  0.1180733E+03  0.7561462E-02  0.1246310E+00
          1   -1    0    0  501    0  0.00000000000E+00  0.00000000000E+00  0.14754994955E+03  0.14754994955E+03  0.00000000000E+00 0. -1.
         -1   -1    0    0    0  501 -0.00000000000E+00 -0.00000000000E+00 -0.14802769875E+03  0.14802769875E+03  0.00000000000E+00 0.  1.
         25    2    1    2    0    0 -0.62145984123E+02 -0.78471377167E+02  0.79154762883E+01  0.16040509744E+03  0.12508900888E+03 0.  0.
          5    1    3    3  502    0 -0.87358759007E+01 -0.40542786974E+02  0.62438437667E+02  0.75073723776E+02  0.41800000000E+01 0.  1.
         -5    1    3    3    0  502 -0.53410108223E+02 -0.37928590192E+02 -0.54522961379E+02  0.85331373667E+02  0.41800000000E+01 0.  1.
        -11    1    1    2    0    0  0.52598061710E+02  0.29294486241E+01 -0.23269541244E+02  0.57590010545E+02  0.00000000000E+00 0.  1.
         11    1    1    2    0    0  0.95479224136E+01  0.75541928543E+02  0.14876315764E+02  0.77582540311E+02  0.00000000000E+00 0. -1.
</event>
<event>
 7    1  0.3151015E-009  0.1181108E+03  0.7561462E-02  0.1246247E+00
          2   -1    0    0  501    0  0.00000000000E+00  0.00000000000E+00  0.30475356682E+02  0.30475356682E+02  0.00000000000E+00 0. -1.
         -2   -1    0    0    0  501 -0.00000000000E+00 -0.00000000000E+00 -0.76272547487E+03  0.76272547487E+03  0.00000000000E+00 0.  1.
         25    2    1    2    0    0  0.58828444796E+02  0.29623164757E+02 -0.61620767382E+03  0.63221588714E+03  0.12508682135E+03 0.  0.
          5    1    3    3  502    0 -0.17261980617E+01  0.64565421223E+02 -0.39250388007E+03  0.39780452693E+03  0.41800000000E+01 0. -1.
         -5    1    3    3    0  502  0.60554642858E+02 -0.34942256466E+02 -0.22370379375E+03  0.23441136021E+03  0.41800000000E+01 0. -1.
        -11    1    1    2    0    0 -0.75039689296E+02 -0.36980887862E+02 -0.11619974019E+03  0.14318142567E+03  0.00000000000E+00 0.  1.
         11    1    1    2    0    0  0.16211244500E+02  0.73577231052E+01  0.15729581906E+00  0.17803518739E+02  0.00000000000E+00 0. -1.
</event>
<event>
 7    1  0.3151015E-009  0.1274992E+03  0.7561462E-02  0.1231214E+00
         -4   -1    0    0    0  501 -0.00000000000E+00  0.00000000000E+00  0.37942655080E+02  0.37942655080E+02  0.00000000000E+00 0.  1.
          4   -1    0    0  501    0  0.00000000000E+00 -0.00000000000E+00 -0.66405060909E+03  0.66405060909E+03  0.00000000000E+00 0. -1.
         25    2    1    2    0    0 -0.82979277694E+02  0.12941865213E+02 -0.51102216322E+03  0.53277018109E+03  0.12508941663E+03 0.  0.
          5    1    3    3  502    0 -0.98718829991E+02  0.46275848626E+02 -0.43052495413E+03  0.44413519348E+03  0.41800000000E+01 0. -1.
         -5    1    3    3    0  502  0.15739552297E+02 -0.33333983412E+02 -0.80497209089E+02  0.88634987605E+02  0.41800000000E+01 0. -1.
        -11    1    1    2    0    0 -0.55503513161E+01 -0.19253650544E+02 -0.63455111801E+02  0.66543674926E+02  0.00000000000E+00 0. -1.
         11    1    1    2    0    0  0.88529629011E+02  0.63117853308E+01 -0.51630678995E+02  0.10267940816E+03  0.00000000000E+00 0.  1.
</event>
<event>
 7    1  0.3151015E-009  0.1331273E+03  0.7561462E-02  0.1222888E+00
          2   -1    0    0  501    0  0.00000000000E+00  0.00000000000E+00  0.70321650838E+03  0.70321650838E+03  0.00000000000E+00 0. -1.
         -2   -1    0    0    0  501 -0.00000000000E+00 -0.00000000000E+00 -0.33304957598E+02  0.33304957598E+02  0.00000000000E+00 0.  1.
         25    2    1    2    0    0  0.88912175286E+02 -0.19048304781E+02  0.49612839835E+03  0.51966975972E+03  0.12508020905E+03 0.  0.
          5    1    3    3  502    0  0.11373531151E+03 -0.17784320201E+02  0.46770089760E+03  0.48167790602E+03  0.41800000000E+01 0. -1.
         -5    1    3    3    0  502 -0.24823136227E+02 -0.12639845799E+01  0.28427500743E+02  0.37991853701E+02  0.41800000000E+01 0. -1.
        -11    1    1    2    0    0 -0.76083057770E+02 -0.24916225475E+02  0.13445314026E+03  0.15648353555E+03  0.00000000000E+00 0. -1.
         11    1    1    2    0    0 -0.12829117516E+02  0.43964530256E+02  0.39330012174E+02  0.60368170706E+02  0.00000000000E+00 0.  1.
</event>
<event>
 7    1  0.3151015E-009  0.6832821E+02  0.7561462E-02  0.1365872E+00
         -2   -1    0    0    0  501 -0.00000000000E+00  0.00000000000E+00  0.93377456212E+02  0.93377456212E+02  0.00000000000E+00 0.  1.
          2   -1    0    0  501    0  0.00000000000E+00 -0.00000000000E+00 -0.13835244596E+03  0.13835244596E+03  0.00000000000E+00 0. -1.
         25    2    1    2    0    0 -0.34565795458E+02  0.22791353205E+02 -0.34424608320E+02  0.13618540088E+03  0.12508864760E+03 0.  0.
          5    1    3    3  502    0  0.28023106616E+02 -0.28791414132E+00 -0.58614173530E+02  0.65103541667E+02  0.41800000000E+01 0. -1.
         -5    1    3    3    0  502 -0.62588902074E+02  0.23079267347E+02  0.24189565210E+02  0.71081859212E+02  0.41800000000E+01 0. -1.
        -11    1    1    2    0    0  0.17647439337E+02 -0.13166693326E+02  0.37620296693E+02  0.43589914562E+02  0.00000000000E+00 0.  1.
         11    1    1    2    0    0  0.16918356121E+02 -0.96246598796E+01 -0.48170678124E+02  0.51954586733E+02  0.00000000000E+00 0. -1.
</event>
<event>
 7    1  0.3151015E-009  0.7062863E+02  0.7561462E-02  0.1357968E+00
          1   -1    0    0  501    0  0.00000000000E+00  0.00000000000E+00  0.14464969647E+03  0.14464969647E+03  0.00000000000E+00 0. -1.
         -1   -1    0    0    0  501 -0.00000000000E+00 -0.00000000000E+00 -0.96261514614E+02  0.96261514614E+02  0.00000000000E+00 0.  1.
         25    2    1    2    0    0 -0.42540276934E+02 -0.21354862150E+02  0.22001160708E+02  0.13563558863E+03  0.12508899444E+03 0.  0.
          5    1    3    3  502    0 -0.51354472331E+02  0.68164737297E+01 -0.40828139196E+02  0.66092022913E+02  0.41800000000E+01 0.  1.
         -5    1    3    3    0  502  0.88141953968E+01 -0.28171335880E+02  0.62829299904E+02  0.69543565714E+02  0.41800000000E+01 0.  1.
        -11    1    1    2    0    0  0.18376918571E+02  0.28820693078E+02 -0.28718268618E+02  0.44643951864E+02  0.00000000000E+00 0.  1.
         11    1    1    2    0    0  0.24163358363E+02 -0.74658309277E+01  0.55105289770E+02  0.60631670598E+02  0.00000000000E+00 0. -1.
</event>
<event>
 7    1  0.3151015E-009  0.1280370E+03  0.7561462E-02  0.1230398E+00
          1   -1    0    0  501    0  0.00000000000E+00  0.00000000000E+00  0.15563699758E+03  0.15563699758E+03  0.00000000000E+00 0. -1.
         -1   -1    0    0    0  501 -0.00000000000E+00 -0.00000000000E+00 -0.13976210760E+03  0.13976210760E+03  0.00000000000E+00 0.  1.
         25    2    1    2    0    0  0.84751564333E+02  0.89655526581E+01  0.60305015990E+02  0.16292896065E+03  0.12508374184E+03 0.  0.
          5    1    3    3  502    0  0.61418146855E+02  0.54324932039E+02 -0.22142565971E+01  0.82132589978E+02  0.41800000000E+01 0. -1.
         -5    1    3    3    0  502  0.23333417478E+02 -0.45359379381E+02  0.62519272587E+02  0.80796370672E+02  0.41800000000E+01 0. -1.
        -11    1    1    2    0    0 -0.76235396437E+02 -0.43123993066E+02 -0.42125084462E+02  0.97190725837E+02  0.00000000000E+00 0.  1.
         11    1    1    2    0    0 -0.85161678964E+01  0.34158440408E+02 -0.23050415551E+01  0.35279418693E+02  0.00000000000E+00 0. -1.
</event>
<event>
 7    1  0.3151015E-009  0.9695825E+02  0.7561462E-02  0.1286826E+00
          2   -1    0    0  501    0  0.00000000000E+00  0.00000000000E+00  0.38249042201E+03  0.38249042201E+03  0.00000000000E+00 0. -1.
         -2   -1    0    0    0  501 -0.00000000000E+00 -0.00000000000E+00 -0.42334636229E+02  0.42334636229E+02  0.00000000000E+00 0.  1.
         25    2    1    2    0    0 -0.64794531041E+02 -0.82637194187E+01  0.18864652203E+03  0.23558980404E+03  0.12509366563E+03 0.  0.
          5    1    3    3  502    0 -0.37552359773E+02  0.19574710014E+02  0.19163439733E+03  0.19630222524E+03  0.41800000000E+01 0. -1.
         -5    1    3    3    0  502 -0.27242171268E+02 -0.27838429433E+02 -0.29878752964E+01  0.39287578794E+02  0.41800000000E+01 0. -1.
        -11    1    1    2    0    0 -0.22797852438E+02 -0.56772579044E+01  0.21459755079E+02  0.31819717490E+02  0.00000000000E+00 0.  1.
         11    1    1    2    0    0  0.87592383479E+02  0.13940977323E+02  0.13004950867E+03  0.15741553671E+03  0.00000000000E+00 0. -1.
</event>
<event>
 7    1  0.3151015E-009  0.9471579E+02  0.7561462E-02  0.1291817E+00
          2   -1    0    0  501    0  0.00000000000E+00  0.00000000000E+00  0.13182365870E+04  0.13182365870E+04  0.00000000000E+00 0. -1.
         -2   -1    0    0    0  501 -0.00000000000E+00 -0.00000000000E+00 -0.19060833190E+02  0.19060833190E+02  0.00000000000E+00 0.  1.
         25    2    1    2    0    0  0.29302510097E+02 -0.66936443454E+02  0.10437612695E+04  0.10537705878E+04  0.12512289718E+03 0.  0.
          5    1    3    3  502    0  0.21518195999E+02  0.24181699347E+01  0.79675611098E+03  0.79706126056E+03  0.41800000000E+01 0.  1.
         -5    1    3    3    0  502  0.77843140977E+01 -0.69354613389E+02  0.24700515850E+03  0.25670932720E+03  0.41800000000E+01 0.  1.
        -11    1    1    2    0    0  0.12850129358E+02  0.50680906216E+02  0.47104879975E+02  0.70374354682E+02  0.00000000000E+00 0.  1.
         11    1    1    2    0    0 -0.42152639455E+02  0.16255537237E+02  0.20830960436E+03  0.21315247775E+03  0.00000000000E+00 0. -1.
</event>
<event>
 7    1  0.3151015E-009  0.9788120E+02  0.7561462E-02  0.1284816E+00
          2   -1    0    0  501    0  0.00000000000E+00  0.00000000000E+00  0.37345195007E+03  0.37345195007E+03  0.00000000000E+00 0. -1.
         -2   -1    0    0    0  501 -0.00000000000E+00 -0.00000000000E+00 -0.31829620641E+02  0.31829620641E+02  0.00000000000E+00 0.  1.
         25    2    1    2    0    0 -0.33799328791E+01  0.79837523403E+01  0.22064463484E+03  0.25378603383E+03  0.12509249313E+03 0.  0.
          5    1    3    3  502    0  0.22796333018E+02  0.53013229281E+02  0.54004431420E+02  0.79145601841E+02  0.41800000000E+01 0. -1.
         -5    1    3    3    0  502 -0.26176265897E+02 -0.45029476940E+02  0.16664020342E+03  0.17464043199E+03  0.41800000000E+01 0. -1.
        -11    1    1    2    0    0 -0.11337224266E+02 -0.44689767255E+02  0.90499725692E+02  0.10156725999E+03  0.00000000000E+00 0. -1.
         11    1    1    2    0    0  0.14717157145E+02  0.36706014914E+02  0.30477968902E+02  0.49928276895E+02  0.00000000000E+00 0.  1.
</event>
<event>
 7    1  0.3151015E-009  0.1254945E+03  0.7561462E-02  0.1234298E+00
          2   -1    0    0  501    0  0.00000000000E+00  0.00000000000E+00  0.37087138939E+03  0.37087138939E+03  0.00000000000E+00 0. -1.
         -2   -1    0    0    0  501 -0.00000000000E+00 -0.00000000000E+00 -0.11947252949E+03  0.11947252949E+03  0.00000000000E+00 0.  1.
         25    2    1    2    0    0 -0.46964355987E+02 -0.97842649404E+02  0.29892839026E+03  0.34173702580E+03  0.12508867865E+03 0.  0.
          5    1    3    3  502    0  0.17108428817E+02 -0.66526351036E+02  0.56618352719E+02  0.89115453112E+02  0.41800000000E+01 0.  1.
         -5    1    3    3    0  502 -0.64072784804E+02 -0.31316298368E+02  0.24231003754E+03  0.25262157269E+03  0.41800000000E+01 0.  1.
        -11    1    1    2    0    0  0.38417877333E+02  0.55272676937E+02 -0.72165112689E+02  0.98685386983E+02  0.00000000000E+00 0.  1.
         11    1    1    2    0    0  0.85464786544E+01  0.42569972466E+02  0.24635582329E+02  0.49921506086E+02  0.00000000000E+00 0. -1.
</event>
<event>
 7    1  0.3151015E-009  0.1742830E+03  0.7561462E-02  0.1173454E+00
          1   -1    0    0  501    0  0.00000000000E+00  0.00000000000E+00  0.27710554122E+03  0.27710554122E+03  0.00000000000E+00 0. -1.
         -1   -1    0    0    0  501 -0.00000000000E+00 -0.00000000000E+00 -0.12116276612E+03  0.12116276612E+03  0.00000000000E+00 0.  1.
         25    2    1    2    0    0 -0.13850333574E+03 -0.61905949304E+01  0.13264602714E+03  0.22905218011E+03  0.12509370576E+03 0.  0.
          5    1    3    3  502    0 -0.95272538887E+02 -0.59918436446E+02  0.10702532656E+03  0.15536720573E+03  0.41800000000E+01 0.  1.
         -5    1    3    3    0  502 -0.43230796853E+02  0.53727841516E+02  0.25620700583E+02  0.73684974377E+02  0.41800000000E+01 0.  1.
        -11    1    1    2    0    0  0.13697411749E+03 -0.21906097712E+02  0.25314058331E+02  0.14100562942E+03  0.00000000000E+00 0. -1.
         11    1    1    2    0    0  0.15292182535E+01  0.28096692642E+02 -0.20173103686E+01  0.28210497816E+02  0.00000000000E+00 0.  1.
</event>
<event>
 7    1  0.3151015E-009  0.7248376E+02  0.7561462E-02  0.1351845E+00
          1   -1    0    0  501    0  0.00000000000E+00  0.00000000000E+00  0.24331660497E+03  0.24331660497E+03  0.00000000000E+00 0. -1.
         -1   -1    0    0    0  501 -0.00000000000E+00 -0.00000000000E+00 -0.53797428272E+02  0.53797428272E+02  0.00000000000E+00 0.  1.
         25    2    1    2    0    0 -0.77851453514E+01  0.82425234773E+01  0.15170163982E+03  0.19695131124E+03  0.12509150168E+03 0.  0.
          5    1    3    3  502    0  0.77865792371E+01 -0.48777315147E+02  0.21761022209E+02  0.54137526511E+02  0.41800000000E+01 0.  1.
         -5    1    3    3    0  502 -0.15571724589E+02  0.57019838625E+02  0.12994061761E+03  0.14281378473E+03  0.41800000000E+01 0.  1.
        -11    1    1    2    0    0  0.17381468149E+02  0.64939653816E+01  0.65106137768E+02  0.67698568644E+02  0.00000000000E+00 0. -1.
         11    1    1    2    0    0 -0.95963227976E+01 -0.14736488859E+02 -0.27288600886E+02  0.32464153361E+02  0.00000000000E+00 0.  1.
</event>
<event>
 7    1  0.3151015E-009  0.1092402E+03  0.7561462E-02  0.1261983E+00
         -1   -1    0    0    0  501 -0.00000000000E+00  0.00000000000E+00  0.63084561657E+02  0.63084561657E+02  0.00000000000E+00 0.  1.
          1   -1    0    0  501    0  0.00000000000E+00 -0.00000000000E+00 -0.24424680257E+03  0.24424680257E+03  0.00000000000E+00 0. -1.
         25    2    1    2    0    0  0.34787578505E+02  0.17129993867E+02 -0.15396007928E+03  0.20212446666E+03  0.12508789591E+03 0.  0.
          5    1    3    3  502    0 -0.36227393105E+02 -0.14413977659E+02 -0.13360803855E+02  0.41426685153E+02  0.41800000000E+01 0.  1.
         -5    1    3    3    0  502  0.71014971610E+02  0.31543971526E+02 -0.14059927543E+03  0.16069778151E+03  0.41800000000E+01 0.  1.
        -11    1    1    2    0    0 -0.49065038069E+02 -0.47249916665E+02 -0.15308943973E+02  0.69816161103E+02  0.00000000000E+00 0.  1.
         11    1    1    2    0    0  0.14277459564E+02  0.30119922798E+02 -0.11893217660E+02  0.35390736461E+02  0.00000000000E+00 0. -1.
</event>
<event>
 7    1  0.3151015E-009  0.1100690E+03  0.7561462E-02  0.1260442E+00
         -2   -1    0    0    0  501 -0.00000000000E+00  0.00000000000E+00  0.28045665611E+02  0.28045665611E+02  0.00000000000E+00 0.  1.
          2   -1    0    0  501    0  0.00000000000E+00 -0.00000000000E+00 -0.51380332320E+03  0.51380332320E+03  0.00000000000E+00 0. -1.
         25    2    1    2    0    0  0.39652371314E+02 -0.20738676177E+02 -0.32264278232E+03  0.34892438515E+03  0.12508980107E+03 0.  0.
          5    1    3    3  502    0 -0.11099908438E+02 -0.54782193341E+02 -0.73911584679E+02  0.92761475971E+02  0.41800000000E+01 0. -1.
         -5    1    3    3    0  502  0.50752279753E+02  0.34043517164E+02 -0.24873119764E+03  0.25616290918E+03  0.41800000000E+01 0. -1.
        -11    1    1    2    0    0 -0.42093372545E+02 -0.30217550082E+02 -0.76329816744E+02  0.92256128628E+02  0.00000000000E+00 0. -1.
         11    1    1    2    0    0  0.24410012307E+01  0.50956226260E+02 -0.86785058524E+02  0.10066847503E+03  0.00000000000E+00 0.  1.
</event>
<event>
 7    1  0.3151015E-009  0.1687030E+03  0.7561462E-02  0.1179207E+00
          1   -1    0    0  501    0  0.00000000000E+00  0.00000000000E+00  0.35214179701E+02  0.35214179701E+02  0.00000000000E+00 0. -1.
         -1   -1    0    0    0  501 -0.00000000000E+00 -0.00000000000E+00 -0.10135982440E+04  0.10135982440E+04  0.00000000000E+00 0.  1.
         25    2    1    2    0    0  0.13013422177E+03  0.59246831754E+02 -0.35295138510E+03  0.40083273198E+03  0.12508835290E+03 0.  0.
          5    1    3    3  502    0 -0.19387754445E+02 -0.95925852806E+01 -0.21754734031E+02  0.30961969697E+02  0.41800000000E+01 0. -1.
         -5    1    3    3    0  502  0.14952197622E+03  0.68839417034E+02 -0.33119665107E+03  0.36987076228E+03  0.41800000000E+01 0. -1.
        -11    1    1    2    0    0 -0.12002121824E+03 -0.67464879886E+02 -0.61763214444E+03  0.63279227926E+03  0.00000000000E+00 0.  1.
         11    1    1    2    0    0 -0.10113003531E+02  0.82180481321E+01 -0.78005348011E+01  0.15187412508E+02  0.00000000000E+00 0. -1.
</event>
<event>
 7    1  0.3151015E-009  0.1045274E+03  0.7561462E-02  0.1271054E+00
          1   -1    0    0  501    0  0.00000000000E+00  0.00000000000E+00  0.15393999905E+04  0.15393999905E+04  0.00000000000E+00 0. -1.
         -1   -1    0    0    0  501 -0.00000000000E+00 -0.00000000000E+00 -0.10833821501E+02  0.10833821501E+02  0.00000000000E+00 0.  1.
         25    2    1    2    0    0 -0.30824282733E+02 -0.35594196104E+02  0.11606504775E+04  0.11683211448E+04  0.12509069994E+03 0.  0.
          5    1    3    3  502    0  0.21469336874E+02 -0.50686319963E+02  0.24937863974E+03  0.25541576657E+03  0.41800000000E+01 0. -1.
         -5    1    3    3    0  502 -0.52293619607E+02  0.15092123859E+02  0.91127183774E+03  0.91290537818E+03  0.41800000000E+01 0. -1.
        -11    1    1    2    0    0  0.23316153595E+01  0.61026058382E+02  0.17771620733E+03  0.18791664795E+03  0.00000000000E+00 0.  1.
         11    1    1    2    0    0  0.28492667374E+02 -0.25431862278E+02  0.19019948419E+03  0.19399601929E+03  0.00000000000E+00 0. -1.
</event>
<event>
 7    1  0.3151015E-009  0.9672154E+02  0.7561462E-02  0.1287345E+00
         -2   -1    0    0    0  501 -0.00000000000E+00  0.00000000000E+00  0.27830696792E+02  0.27830696792E+02  0.00000000000E+00 0.  1.
          2   -1    0    0  501    0  0.00000000000E+00 -0.00000000000E+00 -0.69913197038E+03  0.69913197038E+03  0.00000000000E+00 0. -1.
         25    2    1    2    0    0  0.72263826382E+02 -0.23632175550E+02 -0.25610625087E+03  0.29499069836E+03  0.12509420475E+03 0.  0.
          5    1    3    3  502    0  0.45586905821E+02 -0.14043134990E+02 -0.12208593257E+02  0.49415562043E+02  0.41800000000E+01 0.  1.
         -5    1    3    3    0  502  0.26676920561E+02 -0.95890405598E+01 -0.24389765761E+03  0.24557513632E+03  0.41800000000E+01 0.  1.
        -11    1    1    2    0    0 -0.30164679428E+02 -0.34052527885E+02 -0.12200989711E+03  0.13021481303E+03  0.00000000000E+00 0.  1.
         11    1    1    2    0    0 -0.42099146954E+02  0.57684703435E+02 -0.29318512561E+03  0.30175715578E+03  0.00000000000E+00 0. -1.
</event>
<event>
 7    1  0.3151015E-009  0.1180542E+03  0.7561462E-02  0.1246342E+00
         -2   -1    0    0    0  501 -0.00000000000E+00  0.00000000000E+00  0.11057533959E+03  0.11057533959E+03  0.00000000000E+00 0.  1.
          2   -1    0    0  501    0  0.00000000000E+00 -0.00000000000E+00 -0.14692026946E+03  0.14692026946E+03  0.00000000000E+00 0. -1.
         25    2    1    2    0    0 -0.31487855125E+01  0.45038818686E+02  0.26789321643E+02  0.13565785772E+03  0.12508787538E+03 0.  0.
          5    1    3    3  502    0 -0.35586673706E+02 -0.32334267999E+02  0.16608547807E+02  0.51041478159E+02  0.41800000000E+01 0. -1.
         -5    1    3    3    0  502  0.32437888193E+02  0.77373086685E+02  0.10180773837E+02  0.84616379558E+02  0.41800000000E+01 0. -1.
        -11    1    1    2    0    0 -0.22498485703E+02 -0.66624662758E+02 -0.47417160622E+02  0.84814000424E+02  0.00000000000E+00 0.  1.
         11    1    1    2    0    0  0.25647271216E+02  0.21585844072E+02 -0.15717090891E+02  0.37023750907E+02  0.00000000000E+00 0. -1.
</event>
<event>
 7    1  0.3151015E-009  0.1452793E+03  0.7561462E-02  0.1206397E+00
          2   -1    0    0  501    0  0.00000000000E+00  0.00000000000E+00  0.23602995948E+03  0.23602995948E+03  0.00000000000E+00 0. -1.
         -2   -1    0    0    0  501 -0.00000000000E+00 -0.00000000000E+00 -0.10364728667E+03  0.10364728667E+03  0.00000000000E+00 0.  1.
         25    2    1    2    0    0 -0.91709321043E+02 -0.56757931106E+02  0.10596157371E+03  0.19623353211E+03  0.12509069395E+03 0.  0.
          5    1    3    3  502    0 -0.21427773190E+02 -0.85958752414E+02  0.62428131497E+02  0.10845644556E+03  0.41800000000E+01 0.  1.
         -5    1    3    3    0  502 -0.70281547853E+02  0.29200821308E+02  0.43533442213E+02  0.87777086558E+02  0.41800000000E+01 0.  1.
        -11    1    1    2    0    0  0.81918849970E+02  0.70974157754E+02 -0.40049663262E+01  0.10846229209E+03  0.00000000000E+00 0.  1.
         11    1    1    2    0    0  0.97904710735E+01 -0.14216226648E+02  0.30426065429E+02  0.34981421947E+02  0.00000000000E+00 0. -1.
</event>
<event>
 7    1  0.3151015E-009  0.1030456E+03  0.7561462E-02  0.1274019E+00
          3   -1    0    0  501    0  0.00000000000E+00  0.00000000000E+00  0.26095763138E+02  0.26095763138E+02  0.00000000000E+00 0. -1.
         -3   -1    0    0    0  501 -0.00000000000E+00 -0.00000000000E+00 -0.56214780836E+03  0.56214780836E+03  0.00000000000E+00 0.  1.
         25    2    1    2    0    0  0.18272419287E+02 -0.36423657506E+02 -0.38464150849E+03  0.40651345071E+03  0.12507410373E+03 0.  0.
          5    1    3    3  502    0 -0.40920468947E+01  0.45830009099E+02 -0.13582675993E+03  0.14346956366E+03  0.41800000000E+01 0.  1.
         -5    1    3    3    0  502  0.22364466182E+02 -0.82253666605E+02 -0.24881474855E+03  0.26304388705E+03  0.41800000000E+01 0.  1.
        -11    1    1    2    0    0  0.96384324181E+01 -0.13951201073E+02  0.27365636384E+01  0.17176267680E+02  0.00000000000E+00 0. -1.
         11    1    1    2    0    0 -0.27910851705E+02  0.50374858579E+02 -0.15414710038E+03  0.16455385311E+03  0.00000000000E+00 0.  1.
</event>
<event>
 7    1  0.3151015E-009  0.1237813E+03  0.7561462E-02  0.1236986E+00
         -2   -1    0    0    0  501 -0.00000000000E+00  0.00000000000E+00  0.27022577772E+02  0.27022577772E+02  0.00000000000E+00 0.  1.
          2   -1    0    0  501    0  0.00000000000E+00 -0.00000000000E+00 -0.69445869436E+03  0.69445869436E+03  0.00000000000E+00 0. -1.
         25    2    1    2    0    0  0.86385444210E+02 -0.49003592455E+02 -0.31109411915E+03  0.34969990416E+03  0.12508666976E+03 0.  0.
          5    1    3    3  502    0  0.64773338499E+02 -0.80361890338E+02 -0.28552737366E+03  0.30363954338E+03  0.41800000000E+01 0.  1.
         -5    1    3    3    0  502  0.21612105711E+02  0.31358297883E+02 -0.25566745494E+02  0.46060360773E+02  0.41800000000E+01 0.  1.
        -11    1    1    2    0    0 -0.19635549686E+01  0.14688279495E+02 -0.55003157318E+02  0.56964448717E+02  0.00000000000E+00 0.  1.
         11    1    1    2    0    0 -0.84421889241E+02  0.34315312960E+02 -0.30133884012E+03  0.31481691925E+03  0.00000000000E+00 0. -1.
</event>
<event>
 7    1  0.3151015E-009  0.1911416E+03  0.7561462E-02  0.1157436E+00
          1   -1    0    0  501    0  0.00000000000E+00  0.00000000000E+00  0.19973052002E+03  0.19973052002E+03  0.00000000000E+00 0. -1.
         -1   -1    0    0    0  501 -0.00000000000E+00 -0.00000000000E+00 -0.19016430495E+03  0.19016430495E+03  0.00000000000E+00 0.  1.
         25    2    1    2    0    0 -0.54398175607E+02 -0.14856725949E+03 -0.24368894775E+02  0.20315880606E+03  0.12509302676E+03 0.  0.
          5    1    3    3  502    0  0.28072736432E+02 -0.10242728960E+03 -0.21979551093E+02  0.10853571417E+03  0.41800000000E+01 0.  1.
         -5    1    3    3    0  502 -0.82470912039E+02 -0.46139969897E+02 -0.23893436817E+01  0.94623091885E+02  0.41800000000E+01 0.  1.
        -11    1    1    2    0    0  0.77915502801E+02  0.94748875724E+02  0.92251913237E+01  0.12301739382E+03  0.00000000000E+00 0. -1.
         11    1    1    2    0    0 -0.23517327194E+02  0.53818383770E+02  0.24709918521E+02  0.63718625090E+02  0.00000000000E+00 0.  1.
</event>
<event>
 7    1  0.3151015E-009  0.9500326E+02  0.7561462E-02  0.1291169E+00
          4   -1    0    0  501    0  0.00000000000E+00  0.00000000000E+00  0.13286837044E+03  0.13286837044E+03  0.00000000000E+00 0.  1.
         -4   -1    0    0    0  501 -0.00000000000E+00 -0.00000000000E+00 -0.83119521758E+02  0.83119521758E+02  0.00000000000E+00 0. -1.
         25    2    1    2    0    0  0.17921251262E+02 -0.26487864170E+01  0.26925145523E+02  0.12923105642E+03  0.12509002824E+03 0.  0.
          5    1    3    3  502    0  0.38173558075E+02 -0.46459766040E+02  0.47355298029E+02  0.76653291175E+02  0.41800000000E+01 0. -1.
         -5    1    3    3    0  502 -0.20252306813E+02  0.43810979623E+02 -0.20430152506E+02  0.52577765245E+02  0.41800000000E+01 0. -1.
        -11    1    1    2    0    0  0.16582751731E+02 -0.29681917391E+02  0.19869900098E+02  0.39380411436E+02  0.00000000000E+00 0.  1.
         11    1    1    2    0    0 -0.34504002994E+02  0.32330703808E+02  0.29538030646E+01  0.47376424346E+02  0.00000000000E+00 0. -1.
</event>
<event>
 7    1  0.3151015E-009  0.1675802E+03  0.7561462E-02  0.1180395E+00
          1   -1    0    0  501    0  0.00000000000E+00  0.00000000000E+00  0.28708970545E+04  0.28708970545E+04  0.00000000000E+00 0. -1.
         -1   -1    0    0    0  501 -0.00000000000E+00 -0.00000000000E+00 -0.28959580261E+02  0.28959580261E+02  0.00000000000E+00 0.  1.
         25    2    1    2    0    0 -0.71424994467E+02  0.14064803575E+03  0.25381157156E+04  0.25460877624E+04  0.12509239875E+03 0.  0.
          5    1    3    3  502    0 -0.41197898498E+01  0.87970792885E+02  0.64002099394E+03  0.64606515009E+03  0.41800000000E+01 0. -1.
         -5    1    3    3    0  502 -0.67305204617E+02  0.52677242868E+02  0.18980947216E+04  0.19000226123E+04  0.41800000000E+01 0. -1.
        -11    1    1    2    0    0  0.14077679763E+02 -0.64934175781E+02  0.21001039991E+03  0.22027028016E+03  0.00000000000E+00 0. -1.
         11    1    1    2    0    0  0.57347314704E+02 -0.75713859972E+02  0.93811358737E+02  0.13349859222E+03  0.00000000000E+00 0.  1.
</event>
<event>
 7    1  0.3151015E-009  0.9225390E+02  0.7561462E-02  0.1297484E+00
          1   -1    0    0  501    0  0.00000000000E+00  0.00000000000E+00  0.59470298812E+03  0.59470298812E+03  0.00000000000E+00 0. -1.
         -1   -1    0    0    0  501 -0.00000000000E+00 -0.00000000000E+00 -0.25917720106E+02  0.25917720106E+02  0.00000000000E+00 0.  1.
         25    2    1    2    0    0  0.52855451075E+02  0.12317347026E+02  0.38696664741E+03  0.41028866342E+03  0.12509270715E+03 0.  0.
          5    1    3    3  502    0  0.47839255173E+02  0.35700067670E+02  0.38048432710E+03  0.38516085567E+03  0.41800000000E+01 0. -1.
         -5    1    3    3    0  502  0.50161959019E+01 -0.23382720644E+02  0.64823203030E+01  0.25127807755E+02  0.41800000000E+01 0. -1.
        -11    1    1    2    0    0 -0.71920431138E+02  0.81983208332E+01  0.15711147009E+03  0.17298489794E+03  0.00000000000E+00 0. -1.
         11    1    1    2    0    0  0.19064980063E+02 -0.20515667859E+02  0.24707150516E+02  0.37347146867E+02  0.00000000000E+00 0.  1.
</event>
<event>
 7    1  0.3151015E-009  0.1564194E+03  0.7561462E-02  0.1192800E+00
         -1   -1    0    0    0  501 -0.00000000000E+00  0.00000000000E+00  0.34615659384E+03  0.34615659384E+03  0.00000000000E+00 0.  1.
          1   -1    0    0  501    0  0.00000000000E+00 -0.00000000000E+00 -0.94411224958E+02  0.94411224958E+02  0.00000000000E+00 0. -1.
         25    2    1    2    0    0  0.97537129110E+02  0.85743818803E+02  0.56541718412E+02  0.18897037267E+03  0.12508933531E+03 0.  0.
          5    1    3    3  502    0  0.11227117126E+02 -0.31661710923E+02  0.17234005997E+02  0.37986780072E+02  0.41800000000E+01 0.  1.
         -5    1    3    3    0  502  0.86310011983E+02  0.11740552973E+03  0.39307712415E+02  0.15098359260E+03  0.41800000000E+01 0.  1.
        -11    1    1    2    0    0 -0.33551010703E+02 -0.12136794642E+02  0.26802216951E+01  0.35779263432E+02  0.00000000000E+00 0. -1.
         11    1    1    2    0    0 -0.63986118406E+02 -0.73607024162E+02  0.19252342877E+03  0.21581818269E+03  0.00000000000E+00 0.  1.
</event>
<event>
 7    1  0.3151015E-009  0.1317874E+03  0.7561462E-02  0.1224827E+00
          1   -1    0    0  501    0  0.00000000000E+00  0.00000000000E+00  0.39349694802E+02  0.39349694802E+02  0.00000000000E+00 0. -1.
         -1   -1    0    0    0  501 -0.00000000000E+00 -0.00000000000E+00 -0.44309240130E+03  0.44309240130E+03  0.00000000000E+00 0.  1.
         25    2    1    2    0    0 -0.36211496491E+01 -0.70482760232E+02 -0.21004497490E+03  0.25444214799E+03  0.12506391557E+03 0.  0.
          5    1    3    3  502    0  0.15019491450E+02  0.33961964108E+02 -0.57852243472E+02  0.68872016118E+02  0.41800000000E+01 0.  1.
         -5    1    3    3    0  502 -0.18640641099E+02 -0.10444472434E+03 -0.15219273143E+03  0.18557013187E+03  0.41800000000E+01 0.  1.
        -11    1    1    2    0    0  0.50072601101E+02  0.43365257644E+02 -0.11406282182E+03  0.13190200254E+03  0.00000000000E+00 0.  1.
         11    1    1    2    0    0 -0.46451451452E+02  0.27117502588E+02 -0.79634909778E+02  0.96097945576E+02  0.00000000000E+00 0. -1.
</event>
<event>
 7    1  0.3151015E-009  0.2831553E+03  0.7561462E-02  0.1093978E+00
          2   -1    0    0  501    0  0.00000000000E+00  0.00000000000E+00  0.18884385717E+04  0.18884385717E+04  0.00000000000E+00 0. -1.
         -2   -1    0    0    0  501 -0.00000000000E+00 -0.00000000000E+00 -0.49813653887E+02  0.49813653887E+02  0.00000000000E+00 0.  1.
         25    2    1    2    0    0  0.27287877436E+03 -0.50825901287E+02  0.71539195192E+03  0.77748627827E+03  0.12511263040E+03 0.  0.
          5    1    3    3  502    0  0.25734253504E+03 -0.54400083369E+02  0.71403210040E+03  0.76094931646E+03  0.41800000000E+01 0. -1.
         -5    1    3    3    0  502  0.15536239324E+02  0.35741820824E+01  0.13598515188E+01  0.16536961814E+02  0.41800000000E+01 0. -1.
        -11    1    1    2    0    0 -0.12333127424E+03 -0.13308311512E+02  0.60504247457E+03  0.61762780895E+03  0.00000000000E+00 0. -1.
         11    1    1    2    0    0 -0.14954750013E+03  0.64134212799E+02  0.51819049130E+03  0.54313813834E+03  0.00000000000E+00 0.  1.
</event>
<event>
 7    1  0.3151015E-009  0.9629262E+02  0.7561462E-02  0.1288291E+00
          1   -1    0    0  501    0  0.00000000000E+00  0.00000000000E+00  0.15421702761E+03  0.15421702761E+03  0.00000000000E+00 0.  1.
         -1   -1    0    0    0  501 -0.00000000000E+00 -0.00000000000E+00 -0.14112175781E+03  0.14112175781E+03  0.00000000000E+00 0. -1.
         25    2    1    2    0    0  0.61856610281E+02 -0.54001857256E+02 -0.50075210900E+02  0.15778961536E+03  0.12509034794E+03 0.  0.
          5    1    3    3  502    0  0.62636172336E+02 -0.30070410686E+02 -0.88333921976E+02  0.11246276653E+03  0.41800000000E+01 0.  1.
         -5    1    3    3    0  502 -0.77956205486E+00 -0.23931446570E+02  0.38258711076E+02  0.45326848833E+02  0.41800000000E+01 0.  1.
        -11    1    1    2    0    0 -0.70912612097E+02  0.38422689375E+02  0.98333294016E+01  0.81250206033E+02  0.00000000000E+00 0. -1.
         11    1    1    2    0    0  0.90560018165E+01  0.15579167881E+02  0.53337151304E+02  0.56298964022E+02  0.00000000000E+00 0.  1.
</event>
<event>
 7    1  0.3151015E-009  0.9513990E+02  0.7561462E-02  0.1290861E+00
         -2   -1    0    0    0  501 -0.00000000000E+00  0.00000000000E+00  0.30500449297E+02  0.30500449297E+02  0.00000000000E+00 0.  1.
          2   -1    0    0  501    0  0.00000000000E+00 -0.00000000000E+00 -0.51071042156E+03  0.51071042156E+03  0.00000000000E+00 0. -1.
         25    2    1    2    0    0 -0.59830455181E+02 -0.62203931232E+01 -0.29458034748E+03  0.32564204161E+03  0.12508709561E+03 0.  0.
          5    1    3    3  502    0 -0.15349594864E+02  0.37648430281E+02 -0.22920496723E+02  0.46859747494E+02  0.41800000000E+01 0.  1.
         -5    1    3    3    0  502 -0.44480860317E+02 -0.43868823405E+02 -0.27165985076E+03  0.27878229412E+03  0.41800000000E+01 0.  1.
        -11    1    1    2    0    0 -0.85830258338E+01 -0.13139452006E+02  0.11279891556E+01  0.15734862281E+02  0.00000000000E+00 0.  1.
         11    1    1    2    0    0  0.68413481015E+02  0.19359845129E+02 -0.18675761394E+03  0.19983396696E+03  0.00000000000E+00 0. -1.
</event>
<event>
 7    1  0.3151015E-009  0.5894685E+02  0.7561462E-02  0.1402305E+00
         -4   -1    0    0    0  501 -0.00000000000E+00  0.00000000000E+00  0.34975114605E+02  0.34975114605E+02  0.00000000000E+00 0.  1.
          4   -1    0    0  501    0  0.00000000000E+00 -0.00000000000E+00 -0.47023155637E+03  0.47023155637E+03  0.00000000000E+00 0. -1.
         25    2    1    2    0    0 -0.41107100462E+02 -0.26373386309E+01 -0.35059519368E+03  0.37451449593E+03  0.12508944225E+03 0.  0.
          5    1    3    3  502    0 -0.14635959483E+02 -0.23569359883E+02 -0.65742325277E+01  0.28816990971E+02  0.41800000000E+01 0.  1.
         -5    1    3    3    0  502 -0.26471140979E+02  0.20932021253E+02 -0.34402096116E+03  0.34569750496E+03  0.41800000000E+01 0.  1.
        -11    1    1    2    0    0 -0.33633339406E+00  0.13086786365E+02  0.16388522891E+02  0.20975242074E+02  0.00000000000E+00 0.  1.
         11    1    1    2    0    0  0.41443433856E+02 -0.10449447734E+02 -0.10104977097E+03  0.10971693297E+03  0.00000000000E+00 0. -1.
</event>
<event>
 6    1  0.3151015E-009  0.9539489E+02  0.7561462E-02  0.1290289E+00
          1   -1    0    0  501    0  0.00000000000E+00  0.00000000000E+00  0.46847840769E+02  0.46847840769E+02  0.00000000000E+00 0. -1.
         -1   -1    0    0    0  501 -0.00000000000E+00 -0.00000000000E+00 -0.42974892904E+03  0.42974892904E+03  0.00000000000E+00 0.  1.
          5    1    1    2  502    0 -0.58144597128E+02 -0.30355846226E+02  0.42230332701E+01  0.65860291415E+02  0.41800000000E+01 0. -1.
         -5    1    1    2    0  502  0.28585934372E+01 -0.10059751231E+02 -0.11267873849E+03  0.11324019012E+03  0.41800000000E+01 0. -1.
        -11    1    1    2    0    0 -0.25537672141E+02  0.87001264141E+01 -0.83203455074E+02  0.87468164690E+02  0.00000000000E+00 0.  1.
         11    1    1    2    0    0  0.80823675832E+02  0.31715471043E+02 -0.19124192798E+03  0.21002812358E+03  0.00000000000E+00 0. -1.
</event>
<event>
 7    1  0.3151015E-009  0.9415507E+02  0.7561462E-02  0.1293090E+00
          1   -1    0    0  501    0  0.00000000000E+00  0.00000000000E+00  0.36370435570E+03  0.36370435570E+03  0.00000000000E+00 0. -1.
         -1   -1    0    0    0  501 -0.00000000000E+00 -0.00000000000E+00 -0.35359465490E+02  0.35359465490E+02  0.00000000000E+00 0.  1.
         25    2    1    2    0    0  0.31741864020E+02  0.93943870940E+00  0.17307987145E+03  0.21589782783E+03  0.12508717634E+03 0.  0.
          5    1    3    3  502    0  0.15964156929E+02 -0.61595399513E+02  0.75081293011E+02  0.98506449067E+02  0.41800000000E+01 0. -1.
         -5    1    3    3    0  502  0.15777707091E+02  0.62534838222E+02  0.97998578437E+02  0.11739137876E+03  0.41800000000E+01 0. -1.
        -11    1    1    2    0    0 -0.37718987342E+02  0.16727664579E+02  0.15889516393E+03  0.16416519085E+03  0.00000000000E+00 0. -1.
         11    1    1    2    0    0  0.59771233219E+01 -0.17667103288E+02 -0.36301451679E+01  0.19000802502E+02  0.00000000000E+00 0.  1.
</event>
<event>
 7    1  0.3151015E-009  0.1114371E+03  0.7561462E-02  0.1257931E+00
         -2   -1    0    0    0  501 -0.00000000000E+00  0.00000000000E+00  0.19376612489E+03  0.19376612489E+03  0.00000000000E+00 0.  1.
          2   -1    0    0  501    0  0.00000000000E+00 -0.00000000000E+00 -0.66847762732E+02  0.66847762732E+02  0.00000000000E+00 0. -1.
         25    2    1    2    0    0  0.23861449047E+02 -0.16955094053E+02  0.86597818610E+02  0.15493103794E+03  0.12509036879E+03 0.  0.
          5    1    3    3  502    0 -0.11842289634E+02  0.48746198408E+02  0.52198832787E+02  0.72516358344E+02  0.41800000000E+01 0. -1.
         -5    1    3    3    0  502  0.35703738681E+02 -0.65701292462E+02  0.34398985823E+02  0.82414679594E+02  0.41800000000E+01 0. -1.
        -11    1    1    2    0    0  0.60977886106E+01  0.51532974871E+02  0.19825649264E+02  0.55550759614E+02  0.00000000000E+00 0.  1.
         11    1    1    2    0    0 -0.29959237658E+02 -0.34577880818E+02  0.20494894282E+02  0.50132090067E+02  0.00000000000E+00 0. -1.
</event>
<event>
 7    1  0.3151015E-009  0.1034141E+03  0.7561462E-02  0.1273276E+00
          2   -1    0    0  501    0  0.00000000000E+00  0.00000000000E+00  0.30585396162E+04  0.30585396162E+04  0.00000000000E+00 0.  1.
         -2   -1    0    0    0  501 -0.00000000000E+00 -0.00000000000E+00 -0.96431697746E+01  0.96431697746E+01  0.00000000000E+00 0. -1.
         25    2    1    2    0    0  0.33611767264E+02  0.38242891177E+02  0.27156407335E+04  0.27189955118E+04  0.12505890589E+03 0.  0.
          5    1    3    3  502    0  0.38580749991E+02 -0.21400891158E+02  0.37861111777E+03  0.38119591198E+03  0.41800000000E+01 0. -1.
         -5    1    3    3    0  502 -0.49689827273E+01  0.59643782336E+02  0.23370296158E+04  0.23377995998E+04  0.41800000000E+01 0. -1.
        -11    1    1    2    0    0  0.12239994773E+02 -0.52962991846E+02  0.20821490969E+03  0.21519373735E+03  0.00000000000E+00 0.  1.
         11    1    1    2    0    0 -0.45851762036E+02  0.14720100669E+02  0.12504080322E+03  0.13399353684E+03  0.00000000000E+00 0. -1.
</event>
<event>
 7    1  0.3151015E-009  0.1006276E+03  0.7561462E-02  0.1278982E+00
          1   -1    0    0  501    0  0.00000000000E+00  0.00000000000E+00  0.99148362323E+02  0.99148362323E+02  0.00000000000E+00 0. -1.
         -1   -1    0    0    0  501 -0.00000000000E+00 -0.00000000000E+00 -0.16301567280E+03  0.16301567280E+03  0.00000000000E+00 0.  1.
         25    2    1    2    0    0  0.59389028299E+01  0.52004048633E+02 -0.77466889349E+02  0.15618302697E+03  0.12510926156E+03 0.  0.
          5    1    3    3  502    0  0.99561673004E+01 -0.25883358332E+02 -0.72714712668E+02  0.77935712893E+02  0.41800000000E+01 0.  1.
         -5    1    3    3    0  502 -0.40172644705E+01  0.77887406965E+02 -0.47521766811E+01  0.78247314080E+02  0.41800000000E+01 0.  1.
        -11    1    1    2    0    0 -0.11067876928E+01  0.21457827861E+02 -0.15838341149E+02  0.26693002938E+02  0.00000000000E+00 0.  1.
         11    1    1    2    0    0 -0.48321151371E+01 -0.73461876494E+02  0.29437920022E+02  0.79288005209E+02  0.00000000000E+00 0. -1.
</event>
<event>
 7    1  0.3151015E-009  0.1158892E+03  0.7561462E-02  0.1250037E+00
          2   -1    0    0  501    0  0.00000000000E+00  0.00000000000E+00  0.25941713862E+03  0.25941713862E+03  0.00000000000E+00 0. -1.
         -2   -1    0    0    0  501 -0.00000000000E+00 -0.00000000000E+00 -0.57986774139E+02  0.57986774139E+02  0.00000000000E+00 0.  1.
         25    2    1    2    0    0  0.59720567753E+01 -0.50020748650E+02  0.14637222931E+03  0.19902143785E+03  0.12508781897E+03 0.  0.
          5    1    3    3  502    0 -0.48830768344E+02  0.59958080419E+01  0.27315483073E+02  0.56426958687E+02  0.41800000000E+01 0. -1.
         -5    1    3    3    0  502  0.54802825119E+02 -0.56016556692E+02  0.11905674623E+03  0.14259447917E+03  0.41800000000E+01 0. -1.
        -11    1    1    2    0    0  0.40090181487E+02  0.66094117538E+01  0.29070674384E+02  0.49960094922E+02  0.00000000000E+00 0. -1.
         11    1    1    2    0    0 -0.46062238263E+02  0.43411336897E+02  0.25987460795E+02  0.68422379990E+02  0.00000000000E+00 0.  1.
</event>
<event>
 7    1  0.3151015E-009  0.1880019E+03  0.7561462E-02  0.1160276E+00
         -1   -1    0    0    0  501 -0.00000000000E+00  0.00000000000E+00  0.64312308305E+02  0.64312308305E+02  0.00000000000E+00 0.  1.
          1   -1    0    0  501    0  0.00000000000E+00 -0.00000000000E+00 -0.10792192815E+04  0.10792192815E+04  0.00000000000E+00 0. -1.
         25    2    1    2    0    0 -0.18582464865E+03  0.11559650288E+02 -0.84924144179E+03  0.87836050918E+03  0.12506691040E+03 0.  0.
          5    1    3    3  502    0 -0.57791146431E+02  0.79344404798E+01 -0.83345808725E+02  0.10181732752E+03  0.41800000000E+01 0.  1.
         -5    1    3    3    0  502 -0.12803350222E+03  0.36252098079E+01 -0.76589563307E+03  0.77654318166E+03  0.41800000000E+01 0.  1.
        -11    1    1    2    0    0  0.11907887308E+03 -0.23998561521E+02 -0.50647435797E+02  0.13160878285E+03  0.00000000000E+00 0.  1.
         11    1    1    2    0    0  0.66745775564E+02  0.12438911233E+02 -0.11501809557E+03  0.13356229774E+03  0.00000000000E+00 0. -1.
</event>
<event>
 7    1  0.3151015E-009  0.2091912E+03  0.7561462E-02  0.1142208E+00
          3   -1    0    0  501    0  0.00000000000E+00  0.00000000000E+00  0.18311175583E+03  0.18311175583E+03  0.00000000000E+00 0. -1.
         -3   -1    0    0    0  501 -0.00000000000E+00 -0.00000000000E+00 -0.29145667250E+03  0.29145667250E+03  0.00000000000E+00 0.  1.
         25    2    1    2    0    0 -0.84124991630E+02 -0.18524595109E+03 -0.49932994075E+02  0.24399019638E+03  0.12507931652E+03 0.  0.
          5    1    3    3  502    0  0.29186800061E+01 -0.18974593860E+02  0.33282345544E+02  0.38648943454E+02  0.41800000000E+01 0.  1.
         -5    1    3    3    0  502 -0.87043671636E+02 -0.16627135723E+03 -0.83215339620E+02  0.20534125293E+03  0.41800000000E+01 0.  1.
        -11    1    1    2    0    0  0.20709690413E+02  0.11299518220E+03  0.57143278422E+01  0.11501937236E+03  0.00000000000E+00 0.  1.
         11    1    1    2    0    0  0.63415301217E+02  0.72250768895E+02 -0.64126250437E+02  0.11555885959E+03  0.00000000000E+00 0. -1.
</event>
<event>
 7    1  0.3151015E-009  0.1193247E+03  0.7561462E-02  0.1244215E+00
         -1   -1    0    0    0  501 -0.00000000000E+00  0.00000000000E+00  0.59265874224E+02  0.59265874224E+02  0.00000000000E+00 0.  1.
          1   -1    0    0  501    0  0.00000000000E+00 -0.00000000000E+00 -0.29920487094E+03  0.29920487094E+03  0.00000000000E+00 0. -1.
         25    2    1    2    0    0  0.60199290534E+02 -0.42348888149E+02 -0.16125417504E+03  0.21695260875E+03  0.12509253602E+03 0.  0.
          5    1    3    3  502    0  0.37821051435E+02  0.41502682722E+02 -0.81175964707E+02  0.98792278296E+02  0.41800000000E+01 0.  1.
         -5    1    3    3    0  502  0.22378239099E+02 -0.83851570871E+02 -0.80078210336E+02  0.11816033045E+03  0.41800000000E+01 0.  1.
        -11    1    1    2    0    0 -0.79087400267E+01  0.42434947667E+02  0.43562645625E+01  0.43384905132E+02  0.00000000000E+00 0.  1.
         11    1    1    2    0    0 -0.52290550508E+02 -0.86059518124E-01 -0.83041086232E+02  0.98133231279E+02  0.00000000000E+00 0. -1.
</event>
<event>
 7    1  0.3151015E-009  0.1237731E+03  0.7561462E-02  0.1236999E+00
         -4   -1    0    0    0  501 -0.00000000000E+00  0.00000000000E+00  0.10753953333E+03  0.10753953333E+03  0.00000000000E+00 0.  1.
          4   -1    0    0  501    0  0.00000000000E+00 -0.00000000000E+00 -0.17075480246E+03  0.17075480246E+03  0.00000000000E+00 0. -1.
         25    2    1    2    0    0 -0.24231101852E+02  0.71419598536E+02 -0.24689079336E+01  0.14608902223E+03  0.12509197239E+03 0.  0.
          5    1    3    3  502    0 -0.70000464144E+02  0.12584947949E+02  0.22605230116E+01  0.71281331774E+02  0.41800000000E+01 0.  1.
         -5    1    3    3    0  502  0.45769362291E+02  0.58834650586E+02 -0.47294309452E+01  0.74807690455E+02  0.41800000000E+01 0.  1.
        -11    1    1    2    0    0 -0.23883339052E+02 -0.19269252773E+02  0.97343803077E+01  0.32194349608E+02  0.00000000000E+00 0.  1.
         11    1    1    2    0    0  0.48114440905E+02 -0.52150345763E+02 -0.70480741512E+02  0.10001096395E+03  0.00000000000E+00 0. -1.
</event>
<event>
 7    1  0.3151015E-009  0.1507322E+03  0.7561462E-02  0.1199576E+00
          1   -1    0    0  501    0  0.00000000000E+00  0.00000000000E+00  0.10406248936E+04  0.10406248936E+04  0.00000000000E+00 0. -1.
         -1   -1    0    0    0  501 -0.00000000000E+00 -0.00000000000E+00 -0.43243564244E+02  0.43243564244E+02  0.00000000000E+00 0.  1.
         25    2    1    2    0    0  0.14170539365E+02 -0.14459479165E+03  0.79744271824E+03  0.82016487739E+03  0.12508828592E+03 0.  0.
          5    1    3    3  502    0 -0.10213152776E+02 -0.64463742267E+02  0.62498454601E+03  0.62839719741E+03  0.41800000000E+01 0. -1.
         -5    1    3    3    0  502  0.24383692141E+02 -0.80131049387E+02  0.17245817223E+03  0.19176767999E+03  0.41800000000E+01 0. -1.
        -11    1    1    2    0    0  0.15873152107E+02  0.32807878783E+02  0.47245152949E+01  0.36750985195E+02  0.00000000000E+00 0.  1.
         11    1    1    2    0    0 -0.30043691471E+02  0.11178691287E+03  0.19521409582E+03  0.22695259526E+03  0.00000000000E+00 0. -1.
</event>
<event>
 7    1  0.3151015E-009  0.1301029E+03  0.7561462E-02  0.1227303E+00
         -2   -1    0    0    0  501 -0.00000000000E+00  0.00000000000E+00  0.33378642810E+02  0.33378642810E+02  0.00000000000E+00 0.  1.
          2   -1    0    0  501    0  0.00000000000E+00 -0.00000000000E+00 -0.58371806405E+03  0.58371806405E+03  0.00000000000E+00 0. -1.
         25    2    1    2    0    0  0.86679226276E+02  0.38690219183E+02 -0.29160638586E+03  0.33119727792E+03  0.12508849387E+03 0.  0.
          5    1    3    3  502    0  0.40687580253E+02 -0.41573764558E+02 -0.15983117371E+03  0.17013915945E+03  0.41800000000E+01 0. -1.
         -5    1    3    3    0  502  0.45991646023E+02  0.80263983742E+02 -0.13177521214E+03  0.16105811847E+03  0.41800000000E+01 0. -1.
        -11    1    1    2    0    0 -0.79102931704E+02 -0.10146095018E+02 -0.23452231454E+03  0.24771139067E+03  0.00000000000E+00 0. -1.
         11    1    1    2    0    0 -0.75762945720E+01 -0.28544124165E+02 -0.24210720848E+02  0.38188038281E+02  0.00000000000E+00 0.  1.
</event>
<event>
 7    1  0.3151015E-009  0.1296134E+03  0.7561462E-02  0.1228030E+00
          1   -1    0    0  501    0  0.00000000000E+00  0.00000000000E+00  0.28858858150E+03  0.28858858150E+03  0.00000000000E+00 0. -1.
         -1   -1    0    0    0  501 -0.00000000000E+00 -0.00000000000E+00 -0.12098611962E+03  0.12098611962E+03  0.00000000000E+00 0.  1.
         25    2    1    2    0    0 -0.22380911565E+02 -0.12356619176E+03 -0.52717984712E+01  0.17732777876E+03  0.12509132789E+03 0.  0.
          5    1    3    3  502    0 -0.32303474055E+02 -0.53222802167E+02  0.55680398258E+02  0.83629900494E+02  0.41800000000E+01 0.  1.
         -5    1    3    3    0  502  0.99225624890E+01 -0.70343389589E+02 -0.60952196729E+02  0.93697878265E+02  0.41800000000E+01 0.  1.
        -11    1    1    2    0    0  0.69742943733E+01  0.51522181016E+02  0.14403328135E+03  0.15312988623E+03  0.00000000000E+00 0. -1.
         11    1    1    2    0    0  0.15406617192E+02  0.72044010739E+02  0.28840978992E+02  0.79117036130E+02  0.00000000000E+00 0.  1.
</event>
<event>
 7    1  0.3151015E-009  0.1543289E+03  0.7561462E-02  0.1195252E+00
         -2   -1    0    0    0  501 -0.00000000000E+00  0.00000000000E+00  0.27594184045E+02  0.27594184045E+02  0.00000000000E+00 0. -1.
          2   -1    0    0  501    0  0.00000000000E+00 -0.00000000000E+00 -0.12408132487E+04  0.12408132487E+04  0.00000000000E+00 0.  1.
         25    2    1    2    0    0  0.13483080215E+03  0.29624007173E+02 -0.44094516967E+03  0.47868350708E+03  0.12509328635E+03 0.  0.
          5    1    3    3  502    0  0.10944032289E+03 -0.72665964277E+01 -0.15919807966E+03  0.19336878927E+03  0.41800000000E+01 0.  1.
         -5    1    3    3    0  502  0.25390479264E+02  0.36890603601E+02 -0.28174709001E+03  0.28531471781E+03  0.41800000000E+01 0.  1.
        -11    1    1    2    0    0 -0.70191857049E+01 -0.25060960951E+02 -0.51620202513E+02  0.57809740003E+02  0.00000000000E+00 0. -1.
         11    1    1    2    0    0 -0.12781161645E+03 -0.45630462224E+01 -0.72065369244E+03  0.73191418562E+03  0.00000000000E+00 0.  1.
</event>
<event>
 7    1  0.3151015E-009  0.1051486E+03  0.7561462E-02  0.1269827E+00
          1   -1    0    0  501    0  0.00000000000E+00  0.00000000000E+00  0.12519712721E+04  0.12519712721E+04  0.00000000000E+00 0. -1.
         -1   -1    0    0    0  501 -0.00000000000E+00 -0.00000000000E+00 -0.14425073066E+02  0.14425073066E+02  0.00000000000E+00 0.  1.
         25    2    1    2    0    0 -0.84185335278E+01 -0.77080763518E+02  0.67225732384E+03  0.68817831254E+03  0.12508862696E+03 0.  0.
          5    1    3    3  502    0 -0.23120283063E+02 -0.16678676846E+02  0.25650254999E+02  0.38576336422E+02  0.41800000000E+01 0.  1.
         -5    1    3    3    0  502  0.14701749535E+02 -0.60402086672E+02  0.64660706884E+03  0.64960197612E+03  0.41800000000E+01 0.  1.
        -11    1    1    2    0    0  0.37570331301E+02  0.86799847317E+00  0.12892459291E+03  0.13429011085E+03  0.00000000000E+00 0. -1.
         11    1    1    2    0    0 -0.29151797773E+02  0.76212765045E+02  0.43636428230E+03  0.44392792178E+03  0.00000000000E+00 0.  1.
</event>
<event>
 7    1  0.3151015E-009  0.1103351E+03  0.7561462E-02  0.1259951E+00
          3   -1    0    0  501    0  0.00000000000E+00  0.00000000000E+00  0.22211814007E+02  0.22211814007E+02  0.00000000000E+00 0. -1.
         -3   -1    0    0    0  501 -0.00000000000E+00 -0.00000000000E+00 -0.14562623247E+04  0.14562623247E+04  0.00000000000E+00 0.  1.
         25    2    1    2    0    0 -0.35615299474E+02  0.29502463119E+02 -0.13158449399E+04  0.13225861299E+04  0.12508924966E+03 0.  0.
          5    1    3    3  502    0  0.15350123146E+02 -0.41962415454E+02 -0.38687551816E+03  0.38946965163E+03  0.41800000000E+01 0.  1.
         -5    1    3    3    0  502 -0.50965422621E+02  0.71464878574E+02 -0.92896942174E+03  0.93311647831E+03  0.41800000000E+01 0.  1.
        -11    1    1    2    0    0 -0.15087572155E+02  0.14394097763E+02 -0.70677461379E+02  0.73689405147E+02  0.00000000000E+00 0.  1.
         11    1    1    2    0    0  0.50702871630E+02 -0.43896560882E+02 -0.47528109374E+02  0.82198603574E+02  0.00000000000E+00 0. -1.
</event>
<event>
 7    1  0.3151015E-009  0.9082830E+02  0.7561462E-02  0.1300858E+00
         -1   -1    0    0    0  501 -0.00000000000E+00  0.00000000000E+00  0.12671894215E+03  0.12671894215E+03  0.00000000000E+00 0.  1.
          1   -1    0    0  501    0  0.00000000000E+00 -0.00000000000E+00 -0.10396254663E+03  0.10396254663E+03  0.00000000000E+00 0. -1.
         25    2    1    2    0    0  0.35533435292E+02 -0.16969233968E+02  0.15485729797E+02  0.13202455003E+03  0.12506036166E+03 0.  0.
          5    1    3    3  502    0 -0.59760934772E+01  0.23827780725E+02 -0.42815177999E+02  0.49538759518E+02  0.41800000000E+01 0. -1.
         -5    1    3    3    0  502  0.41509528769E+02 -0.40797014693E+02  0.58300907796E+02  0.82485790512E+02  0.41800000000E+01 0. -1.
        -11    1    1    2    0    0  0.21061403414E+02  0.33371953065E+02  0.32617676280E+01  0.39596831858E+02  0.00000000000E+00 0. -1.
         11    1    1    2    0    0 -0.56594838706E+02 -0.16402719097E+02  0.40088980944E+01  0.59060106890E+02  0.00000000000E+00 0.  1.
</event>
<event>
 7    1  0.3151015E-009  0.1801497E+03  0.7561462E-02  0.1167658E+00
         -2   -1    0    0    0  501 -0.00000000000E+00  0.00000000000E+00  0.88372696643E+03  0.88372696643E+03  0.00000000000E+00 0. -1.
          2   -1    0    0  501    0  0.00000000000E+00 -0.00000000000E+00 -0.59016404281E+02  0.59016404281E+02  0.00000000000E+00 0.  1.
         25    2    1    2    0    0 -0.10560952841E+03 -0.13438042427E+03  0.21024322390E+03  0.29843173600E+03  0.12509123445E+03 0.  0.
          5    1    3    3  502    0 -0.94197362023E+02 -0.10690852468E+03  0.77343314854E+02  0.16217902581E+03  0.41800000000E+01 0. -1.
         -5    1    3    3    0  502 -0.11412166386E+02 -0.27471899592E+02  0.13289990904E+03  0.13625271018E+03  0.41800000000E+01 0. -1.
        -11    1    1    2    0    0 -0.72149741363E+01  0.39912462222E+02  0.76562721079E+02  0.86642430433E+02  0.00000000000E+00 0. -1.
         11    1    1    2    0    0  0.11282450255E+03  0.94467962047E+02  0.53790461717E+03  0.55766920428E+03  0.00000000000E+00 0.  1.
</event>
<event>
 7    1  0.3151015E-009  0.8996321E+02  0.7561462E-02  0.1302941E+00
         -2   -1    0    0    0  501 -0.00000000000E+00  0.00000000000E+00  0.70643538436E+02  0.70643538436E+02  0.00000000000E+00 0.  1.
          2   -1    0    0  501    0  0.00000000000E+00 -0.00000000000E+00 -0.22687172193E+03  0.22687172193E+03  0.00000000000E+00 0. -1.
         25    2    1    2    0    0  0.92521069024E+01 -0.41603810378E+02 -0.14541664238E+03  0.19649359215E+03  0.12508898174E+03 0.  0.
          5    1    3    3  502    0  0.98103050591E+01 -0.85988498041E+02 -0.84727239673E+02  0.12118762900E+03  0.41800000000E+01 0. -1.
         -5    1    3    3    0  502 -0.55819815669E+00  0.44384687663E+02 -0.60689402710E+02  0.75305963147E+02  0.41800000000E+01 0. -1.
        -11    1    1    2    0    0 -0.11456537128E+02  0.58329986093E+01 -0.47811903242E+02  0.49510142469E+02  0.00000000000E+00 0. -1.
         11    1    1    2    0    0  0.22044302254E+01  0.35770811769E+02  0.37000362130E+02  0.51511525749E+02  0.00000000000E+00 0.  1.
</event>
<event>
 6    1  0.3151015E-009  0.8369712E+02  0.7561462E-02  0.1318875E+00
          1   -1    0    0  501    0  0.00000000000E+00  0.00000000000E+00  0.14888932017E+03  0.14888932017E+03  0.00000000000E+00 0. -1.
         -1   -1    0    0    0  501 -0.00000000000E+00 -0.00000000000E+00 -0.11736732061E+03  0.11736732061E+03  0.00000000000E+00 0.  1.
          5    1    1    2  502    0  0.21062073884E+02  0.56162544280E+02 -0.63703902562E+02  0.87598527031E+02  0.41800000000E+01 0.  1.
         -5    1    1    2    0  502  0.13086325136E+02  0.72771445993E+01  0.54750598811E+02  0.56914929581E+02  0.41800000000E+01 0.  1.
        -11    1    1    2    0    0 -0.16534287570E+02 -0.70745167622E+02  0.60167543113E+02  0.94331302607E+02  0.00000000000E+00 0. -1.
         11    1    1    2    0    0 -0.17614111450E+02  0.73054787424E+01 -0.19692239802E+02  0.27411881553E+02  0.00000000000E+00 0.  1.
</event>
<event>
 7    1  0.3151015E-009  0.7294236E+02  0.7561462E-02  0.1350364E+00
          2   -1    0    0  501    0  0.00000000000E+00  0.00000000000E+00  0.19145759263E+03  0.19145759263E+03  0.00000000000E+00 0. -1.
         -2   -1    0    0    0  501 -0.00000000000E+00 -0.00000000000E+00 -0.98646544121E+02  0.98646544121E+02  0.00000000000E+00 0.  1.
         25    2    1    2    0    0  0.13485320215E+02  0.21221391538E+02 -0.34354778226E+02  0.13213465032E+03  0.12508842355E+03 0.  0.
          5    1    3    3  502    0  0.34426244773E+02  0.15973580736E+02 -0.75993694063E+02  0.85046078969E+02  0.41800000000E+01 0.  1.
         -5    1    3    3    0  502 -0.20940924558E+02  0.52478108018E+01  0.41638915837E+02  0.47088571348E+02  0.41800000000E+01 0.  1.
        -11    1    1    2    0    0  0.17880745489E+01  0.31129509588E+02  0.18160047023E+02  0.36083665081E+02  0.00000000000E+00 0. -1.
         11    1    1    2    0    0 -0.15273394764E+02 -0.52350901126E+02  0.10900577971E+03  0.12188582135E+03  0.00000000000E+00 0.  1.
</event>
<event>
 7    1  0.3151015E-009  0.4422796E+02  0.7561462E-02  0.1479220E+00
          2   -1    0    0  501    0  0.00000000000E+00  0.00000000000E+00  0.44290999562E+03  0.44290999562E+03  0.00000000000E+00 0.  1.
         -2   -1    0    0    0  501 -0.00000000000E+00 -0.00000000000E+00 -0.29785371269E+02  0.29785371269E+02  0.00000000000E+00 0. -1.
         25    2    1    2    0    0 -0.30283234020E+01  0.14422142772E+02  0.31514010036E+03  0.33937912564E+03  0.12509092339E+03 0.  0.
          5    1    3    3  502    0 -0.36155055424E+01  0.22005708114E+02 -0.13885061753E+01  0.22731551186E+02  0.41800000000E+01 0. -1.
         -5    1    3    3    0  502  0.58718214041E+00 -0.75835653425E+01  0.31652860654E+03  0.31664757445E+03  0.41800000000E+01 0. -1.
        -11    1    1    2    0    0  0.48694220663E+01  0.21030685483E+02  0.95299945062E+02  0.97714280082E+02  0.00000000000E+00 0.  1.
         11    1    1    2    0    0 -0.18410986644E+01 -0.35452828255E+02  0.26845789280E+01  0.35601961176E+02  0.00000000000E+00 0. -1.
</event>
<event>
 7    1  0.3151015E-009  0.1066904E+03  0.7561462E-02  0.1266824E+00
          2   -1    0    0  501    0  0.00000000000E+00  0.00000000000E+00  0.27266151537E+03  0.27266151537E+03  0.00000000000E+00 0. -1.
         -2   -1    0    0    0  501 -0.00000000000E+00 -0.00000000000E+00 -0.72688814162E+02  0.72688814162E+02  0.00000000000E+00 0.  1.
         25    2    1    2    0    0 -0.81123786312E+02 -0.30703246487E+02  0.83257664617E+02  0.17350790240E+03  0.12509754365E+03 0.  0.
          5    1    3    3  502    0 -0.22064102181E+02  0.12648967908E+01  0.10136263352E+03  0.10382812935E+03  0.41800000000E+01 0. -1.
         -5    1    3    3    0  502 -0.59059684131E+02 -0.31968143278E+02 -0.18104968905E+02  0.69679773058E+02  0.41800000000E+01 0. -1.
        -11    1    1    2    0    0  0.34454111531E+02  0.59505416108E+02  0.47675053616E+02  0.83671327735E+02  0.00000000000E+00 0.  1.
         11    1    1    2    0    0  0.46669674781E+02 -0.28802169621E+02  0.69039982972E+02  0.88171099391E+02  0.00000000000E+00 0. -1.
</event>
<event>
 7    1  0.3151015E-009  0.1127549E+03  0.7561462E-02  0.1255552E+00
          1   -1    0    0  501    0  0.00000000000E+00  0.00000000000E+00  0.46431579356E+03  0.46431579356E+03  0.00000000000E+00 0. -1.
         -1   -1    0    0    0  501 -0.00000000000E+00 -0.00000000000E+00 -0.43317180814E+02  0.43317180814E+02  0.00000000000E+00 0.  1.
         25    2    1    2    0    0  0.31592936901E+02  0.49190039354E+02  0.11801712571E+03  0.18163938710E+03  0.12508817431E+03 0.  0.
          5    1    3    3  502    0  0.70913357125E+02  0.20433530708E+02  0.27698498801E+02  0.78936130078E+02  0.41800000000E+01 0.  1.
         -5    1    3    3    0  502 -0.39320420224E+02  0.28756508646E+02  0.90318626908E+02  0.10270325702E+03  0.41800000000E+01 0.  1.
        -11    1    1    2    0    0  0.14596067394E+02 -0.54301685893E+02  0.24659835845E+03  0.25292779338E+03  0.00000000000E+00 0. -1.
         11    1    1    2    0    0 -0.46189004295E+02  0.51116465385E+01  0.56383128584E+02  0.73065793892E+02  0.00000000000E+00 0.  1.
</event>
<event>
 7    1  0.3151015E-009  0.9610655E+02  0.7561462E-02  0.1288703E+00
          1   -1    0    0  501    0  0.00000000000E+00  0.00000000000E+00  0.28878856763E+02  0.28878856763E+02  0.00000000000E+00 0. -1.
         -1   -1    0    0    0  501 -0.00000000000E+00 -0.00000000000E+00 -0.56173491697E+03  0.56173491697E+03  0.00000000000E+00 0.  1.
         25    2    1    2    0    0 -0.12898403608E+02  0.75249992308E+02 -0.30597845725E+03  0.33926401400E+03  0.12509326416E+03 0.  0.
          5    1    3    3  502    0 -0.17559159845E+02  0.81709475184E+02 -0.89227742564E+02  0.12232671365E+03  0.41800000000E+01 0.  1.
         -5    1    3    3    0  502  0.46607562373E+01 -0.64594828758E+01 -0.21675071468E+03  0.21693730035E+03  0.41800000000E+01 0.  1.
        -11    1    1    2    0    0  0.98870721611E+01  0.10100754490E+02 -0.81709053945E+02  0.82922547801E+02  0.00000000000E+00 0.  1.
         11    1    1    2    0    0  0.30113314465E+01 -0.85350746798E+02 -0.14516854901E+03  0.16842721193E+03  0.00000000000E+00 0. -1.
</event>
<event>
 7    1  0.3151015E-009  0.1004038E+03  0.7561462E-02  0.1279449E+00
         -1   -1    0    0    0  501 -0.00000000000E+00  0.00000000000E+00  0.55498667494E+03  0.55498667494E+03  0.00000000000E+00 0.  1.
          1   -1    0    0  501    0  0.00000000000E+00 -0.00000000000E+00 -0.31345468106E+02  0.31345468106E+02  0.00000000000E+00 0. -1.
         25    2    1    2    0    0 -0.38075536706E+02 -0.15668893485E+02  0.43089532265E+03  0.45057069004E+03  0.12509159413E+03 0.  0.
          5    1    3    3  502    0  0.65296282752E+00  0.37170477514E+02  0.42300779034E+02  0.56470337930E+02  0.41800000000E+01 0. -1.
         -5    1    3    3    0  502 -0.38728499533E+02 -0.52839370998E+02  0.38859454361E+03  0.39410035211E+03  0.41800000000E+01 0. -1.
        -11    1    1    2    0    0 -0.26100159668E+02 -0.10911034664E+02  0.37695795567E+02  0.47130054271E+02  0.00000000000E+00 0.  1.
         11    1    1    2    0    0  0.64175696373E+02  0.26579928148E+02  0.55050088616E+02  0.88631398737E+02  0.00000000000E+00 0. -1.
</event>
<event>
 7    1  0.3151015E-009  0.9021076E+02  0.7561462E-02  0.1302342E+00
         -1   -1    0    0    0  501 -0.00000000000E+00  0.00000000000E+00  0.96532743993E+02  0.96532743993E+02  0.00000000000E+00 0.  1.
          1   -1    0    0  501    0  0.00000000000E+00 -0.00000000000E+00 -0.13544621311E+03  0.13544621311E+03  0.00000000000E+00 0. -1.
         25    2    1    2    0    0  0.32084259258E+02  0.15413347433E+02 -0.34164651676E+02  0.13446969244E+03  0.12509158161E+03 0.  0.
          5    1    3    3  502    0  0.10170252122E+02  0.53318827467E+02 -0.61929265625E+02  0.82456277696E+02  0.41800000000E+01 0.  1.
         -5    1    3    3    0  502  0.21914007136E+02 -0.37905480034E+02  0.27764613949E+02  0.52013414742E+02  0.41800000000E+01 0.  1.
        -11    1    1    2    0    0  0.10898979000E+02  0.22296104132E+02 -0.26523453026E+02  0.36323512538E+02  0.00000000000E+00 0. -1.
         11    1    1    2    0    0 -0.42983238259E+02 -0.37709451564E+02  0.21774635585E+02  0.61185752127E+02  0.00000000000E+00 0.  1.
</event>
<event>
 7    1  0.3151015E-009  0.1634121E+03  0.7561462E-02  0.1184898E+00
         -4   -1    0    0    0  501 -0.00000000000E+00  0.00000000000E+00  0.38492419019E+03  0.38492419019E+03  0.00000000000E+00 0.  1.
          4   -1    0    0  501    0  0.00000000000E+00 -0.00000000000E+00 -0.10231857223E+03  0.10231857223E+03  0.00000000000E+00 0. -1.
         25    2    1    2    0    0 -0.13853159696E+03  0.26569590908E+02  0.41143662669E+02  0.19296586248E+03  0.12508427793E+03 0.  0.
          5    1    3    3  502    0 -0.94469045886E+02 -0.17785609506E+02 -0.27451715605E+02  0.10005897074E+03  0.41800000000E+01 0.  1.
         -5    1    3    3    0  502 -0.44062551077E+02  0.44355200414E+02  0.68595378274E+02  0.92906891734E+02  0.41800000000E+01 0.  1.
        -11    1    1    2    0    0  0.87690846502E+02 -0.60752865126E+02  0.14529117989E+03  0.18025016542E+03  0.00000000000E+00 0. -1.
         11    1    1    2    0    0  0.50840750461E+02  0.34183274218E+02  0.96170775408E+02  0.11402673452E+03  0.00000000000E+00 0.  1.
</event>
<event>
 7    1  0.3151015E-009  0.1059568E+03  0.7561462E-02  0.1268246E+00
         -1   -1    0    0    0  501 -0.00000000000E+00  0.00000000000E+00  0.31691201826E+03  0.31691201826E+03  0.00000000000E+00 0.  1.
          1   -1    0    0  501    0  0.00000000000E+00 -0.00000000000E+00 -0.52441547885E+02  0.52441547885E+02  0.00000000000E+00 0. -1.
         25    2    1    2    0    0 -0.65872676401E+02 -0.19419279986E+02  0.12853553556E+03  0.19205251722E+03  0.12508584068E+03 0.  0.
          5    1    3    3  502    0 -0.81697343934E+02 -0.49135707293E+02  0.52786980248E+02  0.10905370888E+03  0.41800000000E+01 0. -1.
         -5    1    3    3    0  502  0.15824667533E+02  0.29716427307E+02  0.75748555310E+02  0.82998808341E+02  0.41800000000E+01 0. -1.
        -11    1    1    2    0    0  0.22811376640E+02  0.30509784884E+02  0.12614217116E+03  0.13176893876E+03  0.00000000000E+00 0.  1.
         11    1    1    2    0    0  0.43061299761E+02 -0.11090504898E+02  0.97927636646E+01  0.45532110166E+02  0.00000000000E+00 0. -1.
</event>
<event>
 7    1  0.3151015E-009  0.7197975E+02  0.7561462E-02  0.1353487E+00
          1   -1    0    0  501    0  0.00000000000E+00  0.00000000000E+00  0.44045626350E+03  0.44045626350E+03  0.00000000000E+00 0. -1.
         -1   -1    0    0    0  501 -0.00000000000E+00 -0.00000000000E+00 -0.42175803063E+02  0.42175803063E+02  0.00000000000E+00 0.  1.
         25    2    1    2    0    0  0.36912108853E+02  0.13833529106E+02  0.35945471501E+03  0.38263492987E+03  0.12509167479E+03 0.  0.
          5    1    3    3  502    0  0.15313801830E+02 -0.25249453489E+02  0.32425073975E+03  0.32561950504E+03  0.41800000000E+01 0.  1.
         -5    1    3    3    0  502  0.21598307023E+02  0.39082982595E+02  0.35203975257E+02  0.57015424831E+02  0.41800000000E+01 0.  1.
        -11    1    1    2    0    0 -0.52331320118E+01 -0.32230258007E+02  0.51716619567E+02  0.61161948476E+02  0.00000000000E+00 0. -1.
         11    1    1    2    0    0 -0.31678976841E+02  0.18396728902E+02 -0.12890874143E+02  0.38835188221E+02  0.00000000000E+00 0.  1.
</event>
<event>
 7    1  0.3151015E-009  0.1300319E+03  0.7561462E-02  0.1227408E+00
         -1   -1    0    0    0  501 -0.00000000000E+00  0.00000000000E+00  0.51606809928E+02  0.51606809928E+02  0.00000000000E+00 0.  1.
          1   -1    0    0  501    0  0.00000000000E+00 -0.00000000000E+00 -0.51605142774E+03  0.51605142774E+03  0.00000000000E+00 0. -1.
         25    2    1    2    0    0  0.15811424157E+02  0.86925443650E+02 -0.39592424649E+03  0.42451118242E+03  0.12509077167E+03 0.  0.
          5    1    3    3  502    0 -0.42934277537E+02  0.54075970481E+02 -0.29589697750E+03  0.30387506720E+03  0.41800000000E+01 0. -1.
         -5    1    3    3    0  502  0.58745701694E+02  0.32849473168E+02 -0.10002726899E+03  0.12063611522E+03  0.41800000000E+01 0. -1.
        -11    1    1    2    0    0  0.34480102778E+02 -0.51346628678E+02 -0.20907243817E+02  0.65287568558E+02  0.00000000000E+00 0.  1.
         11    1    1    2    0    0 -0.50291526936E+02 -0.35578814971E+02 -0.47613127505E+02  0.77859486686E+02  0.00000000000E+00 0. -1.
</event>
<event>
 7    1  0.3151015E-009  0.1084091E+03  0.7561462E-02  0.1263545E+00
         -1   -1    0    0    0  501 -0.00000000000E+00  0.00000000000E+00  0.37705296909E+03  0.37705296909E+03  0.00000000000E+00 0.  1.
          1   -1    0    0  501    0  0.00000000000E+00 -0.00000000000E+00 -0.36046370385E+02  0.36046370385E+02  0.00000000000E+00 0. -1.
         25    2    1    2    0    0  0.13363588635E+02 -0.36875400799E+02  0.18147246069E+03  0.22387090760E+03  0.12509016186E+03 0.  0.
          5    1    3    3  502    0  0.60546427859E+02 -0.29320032714E+02  0.50002722476E+02  0.83924245007E+02  0.41800000000E+01 0. -1.
         -5    1    3    3    0  502 -0.47182839224E+02 -0.75553680843E+01  0.13146973821E+03  0.13994666259E+03  0.41800000000E+01 0. -1.
        -11    1    1    2    0    0  0.38916078806E+02  0.27389045300E+01  0.68709146143E+02  0.79012084843E+02  0.00000000000E+00 0.  1.
         11    1    1    2    0    0 -0.52279667441E+02  0.34136496269E+02  0.90824991874E+02  0.11021634704E+03  0.00000000000E+00 0. -1.
</event>
<event>
 7    1  0.3151015E-009  0.6033299E+02  0.7561462E-02  0.1396440E+00
         -1   -1    0    0    0  501 -0.00000000000E+00  0.00000000000E+00  0.88780358666E+02  0.88780358666E+02  0.00000000000E+00 0.  1.
          1   -1    0    0  501    0  0.00000000000E+00 -0.00000000000E+00 -0.13936601608E+03  0.13936601608E+03  0.00000000000E+00 0. -1.
         25    2    1    2    0    0  0.17410941335E+02  0.18444845974E+02 -0.30302636505E+02  0.13118230862E+03  0.12508874887E+03 0.  0.
          5    1    3    3  502    0  0.21814739334E+02 -0.57641329375E+01 -0.75849787997E+02  0.79245005015E+02  0.41800000000E+01 0. -1.
         -5    1    3    3    0  502 -0.44037979995E+01  0.24208978911E+02  0.45547151491E+02  0.51937303605E+02  0.41800000000E+01 0. -1.
        -11    1    1    2    0    0 -0.20912721329E+02  0.23046813544E+02 -0.40174066146E+02  0.50817842522E+02  0.00000000000E+00 0. -1.
         11    1    1    2    0    0  0.35017799940E+01 -0.41491659518E+02  0.19891045234E+02  0.46146223607E+02  0.00000000000E+00 0.  1.
</event>
<event>
 7    1  0.3151015E-009  0.1083181E+03  0.7561462E-02  0.1263717E+00
          1   -1    0    0  501    0  0.00000000000E+00  0.00000000000E+00  0.83261010653E+03  0.83261010653E+03  0.00000000000E+00 0. -1.
         -1   -1    0    0    0  501 -0.00000000000E+00 -0.00000000000E+00 -0.29454094189E+02  0.29454094189E+02  0.00000000000E+00 0.  1.
         25    2    1    2    0    0  0.64967609977E+02  0.48717135237E+02  0.63790237287E+03  0.65510443476E+03  0.12509289958E+03 0.  0.
          5    1    3    3  502    0  0.86341503549E+01 -0.27442211198E+02  0.36580623950E+03  0.36695953560E+03  0.41800000000E+01 0. -1.
         -5    1    3    3    0  502  0.56333459622E+02  0.76159346435E+02  0.27209613336E+03  0.28814489916E+03  0.41800000000E+01 0. -1.
        -11    1    1    2    0    0 -0.17696811972E+02 -0.41251391461E+02  0.12080099761E+02  0.46484225944E+02  0.00000000000E+00 0.  1.
         11    1    1    2    0    0 -0.47270798006E+02 -0.74657437758E+01  0.15317353971E+03  0.16047554001E+03  0.00000000000E+00 0. -1.
</event>
<event>
 7    1  0.3151015E-009  0.1321668E+03  0.7561462E-02  0.1224276E+00
          2   -1    0    0  501    0  0.00000000000E+00  0.00000000000E+00  0.69324165051E+02  0.69324165051E+02  0.00000000000E+00 0. -1.
         -2   -1    0    0    0  501 -0.00000000000E+00 -0.00000000000E+00 -0.44935266822E+03  0.44935266822E+03  0.00000000000E+00 0.  1.
         25    2    1    2    0    0  0.36433385879E+02 -0.74856519344E+02 -0.36577758660E+03  0.39543696248E+03  0.12508500447E+03 0.  0.
          5    1    3    3  502    0 -0.42973140218E+02 -0.12920196133E+02 -0.72949988606E+02  0.85748443052E+02  0.41800000000E+01 0. -1.
         -5    1    3    3    0  502  0.79406526097E+02 -0.61936323210E+02 -0.29282759800E+03  0.30968851943E+03  0.41800000000E+01 0. -1.
        -11    1    1    2    0    0 -0.61187994675E+02  0.70481364032E+02 -0.23843897674E+02  0.96333404510E+02  0.00000000000E+00 0.  1.
         11    1    1    2    0    0  0.24754608796E+02  0.43751553113E+01  0.95929811112E+01  0.26906466272E+02  0.00000000000E+00 0. -1.
</event>
<event>
 7    1  0.3151015E-009  0.7610704E+02  0.7561462E-02  0.1340477E+00
          2   -1    0    0  501    0  0.00000000000E+00  0.00000000000E+00  0.46678409128E+02  0.46678409128E+02  0.00000000000E+00 0. -1.
         -2   -1    0    0    0  501 -0.00000000000E+00 -0.00000000000E+00 -0.30803500726E+03  0.30803500726E+03  0.00000000000E+00 0.  1.
         25    2    1    2    0    0  0.21240104569E+02 -0.10539324050E+02 -0.21196625311E+03  0.24726360755E+03  0.12508948705E+03 0.  0.
          5    1    3    3  502    0 -0.89056647076E+01 -0.22726006828E+02 -0.21302840604E+03  0.21446294885E+03  0.41800000000E+01 0.  1.
         -5    1    3    3    0  502  0.30145769277E+02  0.12186682778E+02  0.10621529340E+01  0.32800658702E+02  0.41800000000E+01 0.  1.
        -11    1    1    2    0    0 -0.45510622130E+02  0.37078546657E+02 -0.37100847441E+02  0.69444281475E+02  0.00000000000E+00 0.  1.
         11    1    1    2    0    0  0.24270517560E+02 -0.26539222606E+02 -0.12289497590E+02  0.38005527364E+02  0.00000000000E+00 0. -1.
</event>
<event>
 7    1  0.3151015E-009  0.8990096E+02  0.7561462E-02  0.1303092E+00
          1   -1    0    0  501    0  0.00000000000E+00  0.00000000000E+00  0.41671661608E+02  0.41671661608E+02  0.00000000000E+00 0. -1.
         -1   -1    0    0    0  501 -0.00000000000E+00 -0.00000000000E+00 -0.42565892251E+03  0.42565892251E+03  0.00000000000E+00 0.  1.
         25    2    1    2    0    0 -0.25831268695E+02 -0.63748617634E+02 -0.15115413616E+03  0.20790547895E+03  0.12508387029E+03 0.  0.
          5    1    3    3  502    0  0.38503318716E+01 -0.46755480459E+02  0.55796540876E+01  0.47428946311E+02  0.41800000000E+01 0.  1.
         -5    1    3    3    0  502 -0.29681600567E+02 -0.16993137176E+02 -0.15673379024E+03  0.16047653264E+03  0.41800000000E+01 0.  1.
        -11    1    1    2    0    0  0.19116465885E+02  0.79159892303E+02 -0.22773677444E+03  0.24185898009E+03  0.00000000000E+00 0.  1.
         11    1    1    2    0    0  0.67148028102E+01 -0.15411274668E+02 -0.50963502982E+01  0.17566125072E+02  0.00000000000E+00 0. -1.
</event>
<event>
 7    1  0.3151015E-009  0.1077324E+03  0.7561462E-02  0.1264828E+00
          1   -1    0    0  501    0  0.00000000000E+00  0.00000000000E+00  0.11413697443E+04  0.11413697443E+04  0.00000000000E+00 0. -1.
         -1   -1    0    0    0  501 -0.00000000000E+00 -0.00000000000E+00 -0.13626002672E+02  0.13626002672E+02  0.00000000000E+00 0.  1.
         25    2    1    2    0    0  0.43432610579E+02 -0.45035020642E+02  0.94353016408E+03  0.95384048447E+03  0.12509178449E+03 0.  0.
          5    1    3    3  502    0  0.86380869897E+02 -0.31502448494E+02  0.54046454665E+03  0.54824580029E+03  0.41800000000E+01 0. -1.
         -5    1    3    3    0  502 -0.42948259317E+02 -0.13532572148E+02  0.40306561742E+03  0.40559468418E+03  0.41800000000E+01 0. -1.
        -11    1    1    2    0    0 -0.50663324686E+02  0.24199830745E+02  0.15266621815E+03  0.16266338998E+03  0.00000000000E+00 0.  1.
         11    1    1    2    0    0  0.72307141068E+01  0.20835189897E+02  0.31547359380E+02  0.38491872498E+02  0.00000000000E+00 0. -1.
</event>
<event>
 7    1  0.3151015E-009  0.1013924E+03  0.7561462E-02  0.1277395E+00
         -3   -1    0    0    0  501 -0.00000000000E+00  0.00000000000E+00  0.51195615867E+03  0.51195615867E+03  0.00000000000E+00 0.  1.
          3   -1    0    0  501    0  0.00000000000E+00 -0.00000000000E+00 -0.28038580366E+02  0.28038580366E+02  0.00000000000E+00 0. -1.
         25    2    1    2    0    0  0.29543346250E+02  0.42666402694E+02  0.31834925242E+03  0.34595648667E+03  0.12508562236E+03 0.  0.
          5    1    3    3  502    0  0.34335307554E+02 -0.39711935655E+02  0.11640317403E+03  0.12776197596E+03  0.41800000000E+01 0. -1.
         -5    1    3    3    0  502 -0.47919613037E+01  0.82378338348E+02  0.20194607840E+03  0.21819451070E+03  0.41800000000E+01 0. -1.
        -11    1    1    2    0    0 -0.36082172161E+02 -0.15010818535E+02  0.16728701663E+02  0.42509966835E+02  0.00000000000E+00 0. -1.
         11    1    1    2    0    0  0.65388259115E+01 -0.27655584159E+02  0.14883962422E+03  0.15152828554E+03  0.00000000000E+00 0.  1.
</event>
<event>
 7    1  0.3151015E-009  0.1865548E+03  0.7561462E-02  0.1161606E+00
          3   -1    0    0  501    0  0.00000000000E+00  0.00000000000E+00  0.13989753807E+03  0.13989753807E+03  0.00000000000E+00 0. -1.
         -3   -1    0    0    0  501 -0.00000000000E+00 -0.00000000000E+00 -0.30176239473E+03  0.30176239473E+03  0.00000000000E+00 0.  1.
         25    2    1    2    0    0 -0.59934463404E+02  0.14524980292E+03 -0.40385328003E+01  0.20087661634E+03  0.12508181359E+03 0.  0.
          5    1    3    3  502    0  0.24153386065E+02  0.83337600337E+02 -0.32199525130E+02  0.92643529223E+02  0.41800000000E+01 0. -1.
         -5    1    3    3    0  502 -0.84087849470E+02  0.61912202582E+02  0.28160992330E+02  0.10823308711E+03  0.41800000000E+01 0. -1.
        -11    1    1    2    0    0  0.84488063425E+02 -0.11683838829E+03 -0.12179984973E+03  0.18874492108E+03  0.00000000000E+00 0.  1.
         11    1    1    2    0    0 -0.24553600020E+02 -0.28411414625E+02 -0.36026474137E+02  0.52038395380E+02  0.00000000000E+00 0. -1.
</event>
<event>
 7    1  0.3151015E-009  0.2347411E+03  0.7561462E-02  0.1123347E+00
          1   -1    0    0  501    0  0.00000000000E+00  0.00000000000E+00  0.10598213608E+04  0.10598213608E+04  0.00000000000E+00 0. -1.
         -1   -1    0    0    0  501 -0.00000000000E+00 -0.00000000000E+00 -0.86493519627E+02  0.86493519627E+02  0.00000000000E+00 0.  1.
         25    2    1    2    0    0 -0.22561134300E+03 -0.33769264761E+02  0.18130472938E+03  0.31711281286E+03  0.12509312472E+03 0.  0.
          5    1    3    3  502    0 -0.18993077065E+03 -0.52615396885E+02  0.89002915787E+02  0.21628931792E+03  0.41800000000E+01 0.  1.
         -5    1    3    3    0  502 -0.35680572347E+02  0.18846132125E+02  0.92301813589E+02  0.10082349494E+03  0.41800000000E+01 0.  1.
        -11    1    1    2    0    0  0.77469399693E+02 -0.79647654288E+01  0.15026880720E+03  0.16925028742E+03  0.00000000000E+00 0.  1.
         11    1    1    2    0    0  0.14814194330E+03  0.41734030189E+02  0.64175430463E+03  0.65995178017E+03  0.00000000000E+00 0. -1.
</event>
<event>
 7    1  0.3151015E-009  0.1229849E+03  0.7561462E-02  0.1238253E+00
         -4   -1    0    0    0  501 -0.00000000000E+00  0.00000000000E+00  0.80683988412E+03  0.80683988412E+03  0.00000000000E+00 0.  1.
          4   -1    0    0  501    0  0.00000000000E+00 -0.00000000000E+00 -0.20661846821E+02  0.20661846821E+02  0.00000000000E+00 0. -1.
         25    2    1    2    0    0 -0.60317873022E+02  0.42468643570E+01  0.32304198303E+03  0.35165189393E+03  0.12508657018E+03 0.  0.
          5    1    3    3  502    0 -0.98103576677E+02 -0.91277421835E+01  0.23193272144E+03  0.25202755229E+03  0.41800000000E+01 0.  1.
         -5    1    3    3    0  502  0.37785703655E+02  0.13374606541E+02  0.91109261584E+02  0.99624341640E+02  0.41800000000E+01 0.  1.
        -11    1    1    2    0    0  0.31339683260E+02 -0.46344521156E+02  0.28915899019E+03  0.29452149666E+03  0.00000000000E+00 0.  1.
         11    1    1    2    0    0  0.28978189762E+02  0.42097656798E+02  0.17397706408E+03  0.18132834035E+03  0.00000000000E+00 0. -1.
</event>
<event>
 7    1  0.3151015E-009  0.1020097E+03  0.7561462E-02  0.1276126E+00
         -2   -1    0    0    0  501 -0.00000000000E+00  0.00000000000E+00  0.46497860212E+02  0.46497860212E+02  0.00000000000E+00 0.  1.
          2   -1    0    0  501    0  0.00000000000E+00 -0.00000000000E+00 -0.35270658863E+03  0.35270658863E+03  0.00000000000E+00 0. -1.
         25    2    1    2    0    0  0.36623930897E+02  0.56827454316E+02 -0.15482488614E+03  0.21020869891E+03  0.12508509043E+03 0.  0.
          5    1    3    3  502    0  0.70143469044E+02  0.74938778011E+01 -0.41164837460E+02  0.81781909351E+02  0.41800000000E+01 0. -1.
         -5    1    3    3    0  502 -0.33519538147E+02  0.49333576514E+02 -0.11366004868E+03  0.12842678956E+03  0.41800000000E+01 0. -1.
        -11    1    1    2    0    0 -0.30729267208E+02 -0.20918231058E+02 -0.14783071396E+03  0.15243287127E+03  0.00000000000E+00 0. -1.
         11    1    1    2    0    0 -0.58946636889E+01 -0.35909223257E+02 -0.35531283084E+01  0.36562878657E+02  0.00000000000E+00 0.  1.
</event>
<event>
 7    1  0.3151015E-009  0.1158796E+03  0.7561462E-02  0.1250053E+00
          1   -1    0    0  501    0  0.00000000000E+00  0.00000000000E+00  0.22436669609E+03  0.22436669609E+03  0.00000000000E+00 0. -1.
         -1   -1    0    0    0  501 -0.00000000000E+00 -0.00000000000E+00 -0.73732303595E+02  0.73732303595E+02  0.00000000000E+00 0.  1.
         25    2    1    2    0    0 -0.62978861126E+02 -0.86181795717E+01  0.63837690569E+02  0.15415310504E+03  0.12508924449E+03 0.  0.
          5    1    3    3  502    0  0.13577682033E+02  0.38911147194E+02 -0.35191158219E+01  0.41572676141E+02  0.41800000000E+01 0.  1.
         -5    1    3    3    0  502 -0.76556543159E+02 -0.47529326766E+02  0.67356806391E+02  0.11258042890E+03  0.41800000000E+01 0.  1.
        -11    1    1    2    0    0 -0.15595845833E+02  0.14550946685E+02  0.54969300349E+02  0.58962568105E+02  0.00000000000E+00 0. -1.
         11    1    1    2    0    0  0.78574706959E+02 -0.59327671128E+01  0.31827401579E+02  0.84983326545E+02  0.00000000000E+00 0.  1.
</event>
<event>
 7    1  0.3151015E-009  0.1454128E+03  0.7561462E-02  0.1206226E+00
          2   -1    0    0  501    0  0.00000000000E+00  0.00000000000E+00  0.17621421957E+03  0.17621421957E+03  0.00000000000E+00 0. -1.
         -2   -1    0    0    0  501 -0.00000000000E+00 -0.00000000000E+00 -0.12680988391E+03  0.12680988391E+03  0.00000000000E+00 0.  1.
         25    2    1    2    0    0 -0.95349371381E+02  0.31583588984E+02  0.33385895000E+01  0.16046119672E+03  0.12509046229E+03 0.  0.
          5    1    3    3  502    0 -0.10032177737E+03 -0.24790800908E+02  0.64811610728E+01  0.10362683376E+03  0.41800000000E+01 0.  1.
         -5    1    3    3    0  502  0.49724059935E+01  0.56374389892E+02 -0.31425715728E+01  0.56834362961E+02  0.41800000000E+01 0.  1.
        -11    1    1    2    0    0  0.94902092491E+02 -0.53359058632E+02  0.23858517582E+02  0.11145772812E+03  0.00000000000E+00 0. -1.
         11    1    1    2    0    0  0.44727889063E+00  0.21775469648E+02  0.22207228576E+02  0.31105178633E+02  0.00000000000E+00 0.  1.
</event>
<event>
 7    1  0.3151015E-009  0.9142394E+02  0.7561462E-02  0.1299440E+00
          2   -1    0    0  501    0  0.00000000000E+00  0.00000000000E+00  0.61149159531E+03  0.61149159531E+03  0.00000000000E+00 0. -1.
         -2   -1    0    0    0  501 -0.00000000000E+00 -0.00000000000E+00 -0.26581729027E+02  0.26581729027E+02  0.00000000000E+00 0.  1.
         25    2    1    2    0    0  0.47902852486E+02 -0.15326904660E+02  0.44466839237E+03  0.46465918289E+03  0.12509428359E+03 0.  0.
          5    1    3    3  502    0  0.77716717977E+02 -0.44490623488E+02  0.34665958461E+03  0.35806374269E+03  0.41800000000E+01 0.  1.
         -5    1    3    3    0  502 -0.29813865492E+02  0.29163718829E+02  0.98008807763E+02  0.10659544020E+03  0.41800000000E+01 0.  1.
        -11    1    1    2    0    0 -0.25612881249E+02  0.13414234723E+02  0.14717838662E+03  0.14999146265E+03  0.00000000000E+00 0. -1.
         11    1    1    2    0    0 -0.22289971237E+02  0.19126699372E+01 -0.69369127117E+01  0.23422678797E+02  0.00000000000E+00 0.  1.
</event>
<event>
 7    1  0.3151015E-009  0.1695199E+03  0.7561462E-02  0.1178349E+00
          1   -1    0    0  501    0  0.00000000000E+00  0.00000000000E+00  0.44075920015E+03  0.44075920015E+03  0.00000000000E+00 0.  1.
         -1   -1    0    0    0  501 -0.00000000000E+00 -0.00000000000E+00 -0.79131127541E+02  0.79131127541E+02  0.00000000000E+00 0. -1.
         25    2    1    2    0    0 -0.13762373402E+03 -0.23765203785E+00  0.10126250702E+03  0.21175010791E+03  0.12507463463E+03 0.  0.
          5    1    3    3  502    0 -0.66572943386E+02  0.55755542038E+02  0.81275292621E+02  0.11901169207E+03  0.41800000000E+01 0. -1.
         -5    1    3    3    0  502 -0.71050790631E+02 -0.55993194076E+02  0.19987214398E+02  0.92738415834E+02  0.41800000000E+01 0. -1.
        -11    1    1    2    0    0  0.11009245643E+03 -0.36184592090E+02  0.21214767153E+03  0.24173603001E+03  0.00000000000E+00 0.  1.
         11    1    1    2    0    0  0.27531277588E+02  0.36422244127E+02  0.48217894061E+02  0.66404189782E+02  0.00000000000E+00 0. -1.
</event>
<event>
 7    1  0.3151015E-009  0.8275899E+02  0.7561462E-02  0.1321399E+00
          2   -1    0    0  501    0  0.00000000000E+00  0.00000000000E+00  0.10995203904E+03  0.10995203904E+03  0.00000000000E+00 0. -1.
         -2   -1    0    0    0  501 -0.00000000000E+00 -0.00000000000E+00 -0.12188187639E+03  0.12188187639E+03  0.00000000000E+00 0.  1.
         25    2    1    2    0    0 -0.34115201582E+02 -0.12747124840E+02  0.17054276126E+02  0.13139588895E+03  0.12509074757E+03 0.  0.
          5    1    3    3  502    0 -0.46863146360E+02  0.27430884661E+02 -0.34654483535E+02  0.64552409321E+02  0.41800000000E+01 0. -1.
         -5    1    3    3    0  502  0.12747944777E+02 -0.40178009501E+02  0.51708759661E+02  0.66843479631E+02  0.41800000000E+01 0. -1.
        -11    1    1    2    0    0 -0.57116390538E+01  0.26080134931E+02 -0.47538688067E+02  0.54522684470E+02  0.00000000000E+00 0.  1.
         11    1    1    2    0    0  0.39826840636E+02 -0.13333010091E+02  0.18554574588E+02  0.45915342003E+02  0.00000000000E+00 0. -1.
</event>
<event>
 7    1  0.3151015E-009  0.1650165E+03  0.7561462E-02  0.1183147E+00
          3   -1    0    0  501    0  0.00000000000E+00  0.00000000000E+00  0.24558095579E+03  0.24558095579E+03  0.00000000000E+00 0.  1.
         -3   -1    0    0    0  501 -0.00000000000E+00 -0.00000000000E+00 -0.15599436022E+03  0.15599436022E+03  0.00000000000E+00 0. -1.
         25    2    1    2    0    0  0.14154770942E+03  0.59567093715E+02 -0.74304115362E+01  0.19820690994E+03  0.12508707142E+03 0.  0.
          5    1    3    3  502    0  0.11228755042E+03  0.78073026970E+02 -0.47731564545E+02  0.14491261565E+03  0.41800000000E+01 0.  1.
         -5    1    3    3    0  502  0.29260158992E+02 -0.18505933256E+02  0.40301153009E+02  0.53294294289E+02  0.41800000000E+01 0.  1.
        -11    1    1    2    0    0 -0.54741927046E+02 -0.32045225450E+01 -0.85859078848E+01  0.55503741817E+02  0.00000000000E+00 0. -1.
         11    1    1    2    0    0 -0.86805782369E+02 -0.56362571170E+02  0.10560291499E+03  0.14786466426E+03  0.00000000000E+00 0.  1.
</event>
<event>
 7    1  0.3151015E-009  0.1127406E+03  0.7561462E-02  0.1255577E+00
         -2   -1    0    0    0  501 -0.00000000000E+00  0.00000000000E+00  0.18110507253E+03  0.18110507253E+03  0.00000000000E+00 0.  1.
          2   -1    0    0  501    0  0.00000000000E+00 -0.00000000000E+00 -0.13104606861E+03  0.13104606861E+03  0.00000000000E+00 0. -1.
         25    2    1    2    0    0 -0.83723083278E+02 -0.10118357173E+01 -0.45802305590E+02  0.15733828063E+03  0.12508758879E+03 0.  0.
          5    1    3    3  502    0 -0.70333218835E+02 -0.26351316717E+02  0.26258227937E+02  0.79675093341E+02  0.41800000000E+01 0.  1.
         -5    1    3    3    0  502 -0.13389864442E+02  0.25339481000E+02 -0.72060533528E+02  0.77663187286E+02  0.41800000000E+01 0.  1.
        -11    1    1    2    0    0  0.45502919241E+02  0.44329148183E+02  0.55334418039E+02  0.84246583657E+02  0.00000000000E+00 0.  1.
         11    1    1    2    0    0  0.38220164037E+02 -0.43317312466E+02  0.40526891468E+02  0.70566276863E+02  0.00000000000E+00 0. -1.
</event>
<event>
 7    1  0.3151015E-009  0.1380997E+03  0.7561462E-02  0.1215909E+00
         -2   -1    0    0    0  501 -0.00000000000E+00  0.00000000000E+00  0.19102116206E+02  0.19102116206E+02  0.00000000000E+00 0.  1.
          2   -1    0    0  501    0  0.00000000000E+00 -0.00000000000E+00 -0.12433147174E+04  0.12433147174E+04  0.00000000000E+00 0. -1.
         25    2    1    2    0    0 -0.44946280351E+01 -0.96196691180E+02 -0.89749640908E+03  0.91127401840E+03  0.12508607930E+03 0.  0.
          5    1    3    3  502    0  0.51747710727E+02 -0.27859868354E+02 -0.21059856752E+03  0.21868522325E+03  0.41800000000E+01 0.  1.
         -5    1    3    3    0  502 -0.56242338762E+02 -0.68336822826E+02 -0.68689784156E+03  0.69258879515E+03  0.41800000000E+01 0.  1.
        -11    1    1    2    0    0  0.38482091808E+02  0.16188122000E+02 -0.10647232396E+03  0.11436469059E+03  0.00000000000E+00 0. -1.
         11    1    1    2    0    0 -0.33987463773E+02  0.80008569181E+02 -0.22024386818E+03  0.23677812463E+03  0.00000000000E+00 0.  1.
</event>
<event>
 7    1  0.3151015E-009  0.1166639E+03  0.7561462E-02  0.1248704E+00
          2   -1    0    0  501    0  0.00000000000E+00  0.00000000000E+00  0.13408027404E+03  0.13408027404E+03  0.00000000000E+00 0. -1.
         -2   -1    0    0    0  501 -0.00000000000E+00 -0.00000000000E+00 -0.12192369415E+03  0.12192369415E+03  0.00000000000E+00 0.  1.
         25    2    1    2    0    0 -0.55974150535E+02  0.42402411935E+02  0.84498137476E+00  0.14340841409E+03  0.12503675128E+03 0.  0.
          5    1    3    3  502    0 -0.29405490174E+02 -0.41827077767E+02 -0.15288174625E+02  0.53529318791E+02  0.41800000000E+01 0.  1.
         -5    1    3    3    0  502 -0.26568660361E+02  0.84229489702E+02  0.16133155999E+02  0.89879095296E+02  0.41800000000E+01 0.  1.
        -11    1    1    2    0    0  0.64605453998E+02 -0.17035537668E+02  0.36229991751E+02  0.76004516525E+02  0.00000000000E+00 0. -1.
         11    1    1    2    0    0 -0.86313034631E+01 -0.25366874267E+02 -0.24918393240E+02  0.36591037580E+02  0.00000000000E+00 0.  1.
</event>
<event>
 7    1  0.3151015E-009  0.1131189E+03  0.7561462E-02  0.1254901E+00
         -2   -1    0    0    0  501 -0.00000000000E+00  0.00000000000E+00  0.92431742166E+03  0.92431742166E+03  0.00000000000E+00 0.  1.
          2   -1    0    0  501    0  0.00000000000E+00 -0.00000000000E+00 -0.22200689175E+02  0.22200689175E+02  0.00000000000E+00 0. -1.
         25    2    1    2    0    0 -0.23343884465E+02 -0.87994805746E+02  0.55359887685E+03  0.57481035269E+03  0.12508877778E+03 0.  0.
          5    1    3    3  502    0 -0.25932607872E+02 -0.10395648113E+03  0.54605711342E+03  0.55648476496E+03  0.41800000000E+01 0. -1.
         -5    1    3    3    0  502  0.25887234068E+01  0.15961675382E+02  0.75417634343E+01  0.18325587728E+02  0.41800000000E+01 0. -1.
        -11    1    1    2    0    0 -0.10967520269E+02  0.49695844993E+02  0.60148017374E+02  0.78789260083E+02  0.00000000000E+00 0. -1.
         11    1    1    2    0    0  0.34311404733E+02  0.38298960753E+02  0.28836983826E+03  0.29291849806E+03  0.00000000000E+00 0.  1.
</event>
<event>
 7    1  0.3151015E-009  0.2821048E+03  0.7561462E-02  0.1094545E+00
         -2   -1    0    0    0  501 -0.00000000000E+00  0.00000000000E+00  0.82789385398E+02  0.82789385398E+02  0.00000000000E+00 0.  1.
          2   -1    0    0  501    0  0.00000000000E+00 -0.00000000000E+00 -0.11522442946E+04  0.11522442946E+04  0.00000000000E+00 0. -1.
         25    2    1    2    0    0  0.13027249567E+03  0.24816866844E+03 -0.40284616270E+03  0.50644446469E+03  0.12506939627E+03 0.  0.
          5    1    3    3  502    0  0.97643077775E+02  0.17983270150E+03 -0.18543238793E+03  0.27618221170E+03  0.41800000000E+01 0.  1.
         -5    1    3    3    0  502  0.32629417899E+02  0.68335966941E+02 -0.21741377477E+03  0.23026225298E+03  0.41800000000E+01 0.  1.
        -11    1    1    2    0    0 -0.99948670798E+02 -0.22267490989E+03 -0.62579949286E+03  0.67171337455E+03  0.00000000000E+00 0. -1.
         11    1    1    2    0    0 -0.30323824877E+02 -0.25493758554E+02 -0.40809253687E+02  0.56875840801E+02  0.00000000000E+00 0.  1.
</event>
<event>
 7    1  0.3151015E-009  0.1633057E+03  0.7561462E-02  0.1185014E+00
          1   -1    0    0  501    0  0.00000000000E+00  0.00000000000E+00  0.10474763211E+04  0.10474763211E+04  0.00000000000E+00 0. -1.
         -1   -1    0    0    0  501 -0.00000000000E+00 -0.00000000000E+00 -0.25544174615E+02  0.25544174615E+02  0.00000000000E+00 0.  1.
         25    2    1    2    0    0 -0.52317181704E+02 -0.11137897747E+03  0.54343896486E+03  0.57106582836E+03  0.12509159712E+03 0.  0.
          5    1    3    3  502    0  0.40385349323E+02 -0.20123734312E+02  0.14274629412E+03  0.14976621117E+03  0.41800000000E+01 0.  1.
         -5    1    3    3    0  502 -0.92702531027E+02 -0.91255243153E+02  0.40069267073E+03  0.42129961719E+03  0.41800000000E+01 0.  1.
        -11    1    1    2    0    0 -0.86887852404E+01 -0.11230736696E+02  0.58460082988E+02  0.60159834929E+02  0.00000000000E+00 0.  1.
         11    1    1    2    0    0  0.61005966944E+02  0.12260971416E+03  0.42003309867E+03  0.44179483246E+03  0.00000000000E+00 0. -1.
</event>
<event>
 7    1  0.3151015E-009  0.6244744E+02  0.7561462E-02  0.1387839E+00
         -4   -1    0    0    0  501 -0.00000000000E+00  0.00000000000E+00  0.39691111818E+03  0.39691111818E+03  0.00000000000E+00 0.  1.
          4   -1    0    0  501    0  0.00000000000E+00 -0.00000000000E+00 -0.58636313859E+02  0.58636313859E+02  0.00000000000E+00 0. -1.
         25    2    1    2    0    0  0.52073480333E+02 -0.20847708311E+02  0.33386847432E+03  0.36091905686E+03  0.12509249845E+03 0.  0.
          5    1    3    3  502    0  0.18489044346E+02  0.58341694861E+01 -0.40676487312E+01  0.20245998632E+02  0.41800000000E+01 0.  1.
         -5    1    3    3    0  502  0.33584435988E+02 -0.26681877797E+02  0.33793612305E+03  0.34067305823E+03  0.41800000000E+01 0.  1.
        -11    1    1    2    0    0 -0.43122825909E+02  0.27204505742E+02  0.35186098172E+02  0.61949372488E+02  0.00000000000E+00 0.  1.
         11    1    1    2    0    0 -0.89506544242E+01 -0.63567974309E+01 -0.30779768169E+02  0.32679002689E+02  0.00000000000E+00 0. -1.
</event>
<event>
 7    1  0.3278442E-009  0.8150458E+02  0.7561462E-02  0.1324835E+00
          2   -1    0    0  501    0  0.00000000000E+00  0.00000000000E+00  0.39168384014E+03  0.39168384014E+03  0.00000000000E+00 0. -1.
         -2   -1    0    0    0  501 -0.00000000000E+00 -0.00000000000E+00 -0.32453607685E+02  0.32453607685E+02  0.00000000000E+00 0.  1.
         25    2    1    2    0    0  0.28632739391E+02  0.31789784295E+01  0.18068492228E+03  0.22164390187E+03  0.12509611675E+03 0.  0.
          5    1    3    3  502    0  0.39907040335E+02  0.32614351735E+02  0.18260934124E+03  0.18978912433E+03  0.41800000000E+01 0.  1.
         -5    1    3    3    0  502 -0.11274300943E+02 -0.29435373305E+02 -0.19244189552E+01  0.31854777533E+02  0.41800000000E+01 0.  1.
        -11    1    1    2    0    0 -0.33232861785E+02 -0.34467572196E+02  0.46607123154E+02  0.66818115539E+02  0.00000000000E+00 0.  1.
         11    1    1    2    0    0  0.46001223938E+01  0.31288593767E+02  0.13193818702E+03  0.13567543042E+03  0.00000000000E+00 0. -1.
</event>
<event>
 7    1  0.3151015E-009  0.6809885E+02  0.7561462E-02  0.1366680E+00
         -2   -1    0    0    0  501 -0.00000000000E+00  0.00000000000E+00  0.39978104036E+03  0.39978104036E+03  0.00000000000E+00 0.  1.
          2   -1    0    0  501    0  0.00000000000E+00 -0.00000000000E+00 -0.36284378071E+02  0.36284378071E+02  0.00000000000E+00 0. -1.
         25    2    1    2    0    0 -0.98622248782E+01  0.71508071463E+01  0.29881746017E+03  0.32417092819E+03  0.12508604502E+03 0.  0.
          5    1    3    3  502    0  0.19825560988E+02  0.92718152732E+01 -0.15194975547E+01  0.22333846506E+02  0.41800000000E+01 0. -1.
         -5    1    3    3    0  502 -0.29687785866E+02 -0.21210081269E+01  0.30033695773E+03  0.30183708169E+03  0.41800000000E+01 0. -1.
        -11    1    1    2    0    0 -0.27915683739E+02 -0.28972183121E+02  0.53350558821E+02  0.66820318167E+02  0.00000000000E+00 0.  1.
         11    1    1    2    0    0  0.37777908617E+02  0.21821375974E+02  0.11328643295E+02  0.45074172070E+02  0.00000000000E+00 0. -1.
</event>
<event>
 7    1  0.3151015E-009  0.1267363E+03  0.7561462E-02  0.1232380E+00
         -1   -1    0    0    0  501 -0.00000000000E+00  0.00000000000E+00  0.39291303068E+02  0.39291303068E+02  0.00000000000E+00 0.  1.
          1   -1    0    0  501    0  0.00000000000E+00 -0.00000000000E+00 -0.48049343134E+03  0.48049343134E+03  0.00000000000E+00 0. -1.
         25    2    1    2    0    0 -0.41934885071E+02  0.71441520245E+02 -0.26136760926E+03  0.30136926210E+03  0.12509188450E+03 0.  0.
          5    1    3    3  502    0  0.33902784395E+01  0.97176561345E+02 -0.18055223375E+03  0.20511304097E+03  0.41800000000E+01 0.  1.
         -5    1    3    3    0  502 -0.45325163511E+02 -0.25735041100E+02 -0.80815375503E+02  0.96256221126E+02  0.41800000000E+01 0.  1.
        -11    1    1    2    0    0  0.57372907068E+02 -0.43737585761E+02 -0.58135502635E+02  0.92651840458E+02  0.00000000000E+00 0.  1.
         11    1    1    2    0    0 -0.15438021997E+02 -0.27703934484E+02 -0.12169901639E+03  0.12576363186E+03  0.00000000000E+00 0. -1.
</event>
<event>
 7    1  0.3151015E-009  0.1082405E+03  0.7561462E-02  0.1263863E+00
          1   -1    0    0  501    0  0.00000000000E+00  0.00000000000E+00  0.71085709911E+03  0.71085709911E+03  0.00000000000E+00 0. -1.
         -1   -1    0    0    0  501 -0.00000000000E+00 -0.00000000000E+00 -0.17388063507E+02  0.17388063507E+02  0.00000000000E+00 0.  1.
         25    2    1    2    0    0  0.19408787759E+02 -0.16882084714E+02  0.42333032100E+03  0.44217268560E+03  0.12508564018E+03 0.  0.
          5    1    3    3  502    0 -0.47507954242E+02 -0.27132329727E+02  0.13004263336E+03  0.14114435137E+03  0.41800000000E+01 0. -1.
         -5    1    3    3    0  502  0.66916742001E+02  0.10250245013E+02  0.29328768764E+03  0.30102833422E+03  0.41800000000E+01 0. -1.
        -11    1    1    2    0    0 -0.43025985082E+02 -0.21975943648E+02  0.15154438743E+03  0.15905935638E+03  0.00000000000E+00 0.  1.
         11    1    1    2    0    0  0.23617197323E+02  0.38858028362E+02  0.11859432718E+03  0.12701312064E+03  0.00000000000E+00 0. -1.
</event>
<event>
 7    1  0.5062076E-009  0.7724813E+02  0.7561462E-02  0.1337047E+00
          2   -1    0    0  501    0  0.00000000000E+00  0.00000000000E+00  0.17468781470E+03  0.17468781470E+03  0.00000000000E+00 0.  1.
         -2   -1    0    0    0  501 -0.00000000000E+00 -0.00000000000E+00 -0.88434345069E+02  0.88434345069E+02  0.00000000000E+00 0. -1.
         25    2    1    2    0    0 -0.39872366587E+02 -0.37924302371E+02  0.21640201249E+02  0.13835984748E+03  0.12508833182E+03 0.  0.
          5    1    3    3  502    0 -0.39389291190E+02  0.17715782717E+01 -0.45436196549E+02  0.60304022311E+02  0.41800000000E+01 0.  1.
         -5    1    3    3    0  502 -0.48307539697E+00 -0.39695880643E+02  0.67076397798E+02  0.78055825173E+02  0.41800000000E+01 0.  1.
        -11    1    1    2    0    0  0.39226674931E+02  0.49598650603E+02  0.43608502795E+01  0.63385922593E+02  0.00000000000E+00 0. -1.
         11    1    1    2    0    0  0.64569165616E+00 -0.11674348231E+02  0.60252418107E+02  0.61376389696E+02  0.00000000000E+00 0.  1.
</event>
<event>
 7    1  0.3151015E-009  0.1910089E+03  0.7561462E-02  0.1157555E+00
          1   -1    0    0  501    0  0.00000000000E+00  0.00000000000E+00  0.12745599968E+03  0.12745599968E+03  0.00000000000E+00 0. -1.
         -1   -1    0    0    0  501 -0.00000000000E+00 -0.00000000000E+00 -0.40583469067E+03  0.40583469067E+03  0.00000000000E+00 0.  1.
         25    2    1    2    0    0 -0.14126782805E+03  0.12063950310E+03 -0.56234502555E+02  0.23091202750E+03  0.12509019233E+03 0.  0.
          5    1    3    3  502    0 -0.13152201371E+03  0.12758837808E+03 -0.83069097163E+02  0.20123315238E+03  0.41800000000E+01 0. -1.
         -5    1    3    3    0  502 -0.97458143322E+01 -0.69488749826E+01  0.26834594609E+02  0.29678875119E+02  0.41800000000E+01 0. -1.
        -11    1    1    2    0    0  0.92980105116E+02 -0.85684890890E+02 -0.20410784257E+03  0.24009833792E+03  0.00000000000E+00 0.  1.
         11    1    1    2    0    0  0.48287722929E+02 -0.34954612213E+02 -0.18036345873E+02  0.62280324928E+02  0.00000000000E+00 0. -1.
</event>
<event>
 7    1  0.3151015E-009  0.7911038E+02  0.7561462E-02  0.1331595E+00
          1   -1    0    0  501    0  0.00000000000E+00  0.00000000000E+00  0.96857407156E+02  0.96857407156E+02  0.00000000000E+00 0. -1.
         -1   -1    0    0    0  501 -0.00000000000E+00 -0.00000000000E+00 -0.13127663518E+03  0.13127663518E+03  0.00000000000E+00 0.  1.
         25    2    1    2    0    0  0.26893125816E+02 -0.16744823785E+02 -0.46347429513E+02  0.13710974700E+03  0.12508944464E+03 0.  0.
          5    1    3    3  502    0 -0.32275029588E+02 -0.15847577591E+02 -0.65445357263E+02  0.74788972701E+02  0.41800000000E+01 0. -1.
         -5    1    3    3    0  502  0.59168155404E+02 -0.89724619391E+00  0.19097927749E+02  0.62320774297E+02  0.41800000000E+01 0. -1.
        -11    1    1    2    0    0 -0.41882330977E+02  0.23968336802E+01 -0.24877558064E+02  0.48772608654E+02  0.00000000000E+00 0.  1.
         11    1    1    2    0    0  0.14989205160E+02  0.14347990105E+02  0.36805759553E+02  0.42251686684E+02  0.00000000000E+00 0. -1.
</event>
<event>
 7    1  0.3151015E-009  0.1048385E+03  0.7561462E-02  0.1270438E+00
         -3   -1    0    0    0  501 -0.00000000000E+00  0.00000000000E+00  0.19695792277E+03  0.19695792277E+03  0.00000000000E+00 0.  1.
          3   -1    0    0  501    0  0.00000000000E+00 -0.00000000000E+00 -0.79975040834E+02  0.79975040834E+02  0.00000000000E+00 0. -1.
         25    2    1    2    0    0 -0.19763701524E+01  0.22018846488E+01  0.12133491901E+03  0.17429397167E+03  0.12508985432E+03 0.  0.
          5    1    3    3  502    0 -0.39388789562E+02 -0.39952563354E+02  0.98304363374E+02  0.11326475321E+03  0.41800000000E+01 0. -1.
         -5    1    3    3    0  502  0.37412419409E+02  0.42154448003E+02  0.23030555635E+02  0.61029218455E+02  0.41800000000E+01 0. -1.
        -11    1    1    2    0    0  0.49370636849E+02  0.11892398791E+01  0.14577789253E+02  0.51491611102E+02  0.00000000000E+00 0.  1.
         11    1    1    2    0    0 -0.47394266696E+02 -0.33911245279E+01 -0.18929826328E+02  0.51147380833E+02  0.00000000000E+00 0. -1.
</event>
<event>
 7    1  0.3151015E-009  0.1107552E+03  0.7561462E-02  0.1259178E+00
          2   -1    0    0  501    0  0.00000000000E+00  0.00000000000E+00  0.21537839722E+03  0.21537839722E+03  0.00000000000E+00 0. -1.
         -2   -1    0    0    0  501 -0.00000000000E+00 -0.00000000000E+00 -0.10549590263E+03  0.10549590263E+03  0.00000000000E+00 0.  1.
         25    2    1    2    0    0  0.95101776827E+02 -0.27050556607E+01  0.13436897658E+02  0.15774992618E+03  0.12511124533E+03 0.  0.
          5    1    3    3  502    0  0.45202163437E+02 -0.64211183394E+01  0.69010842670E+02  0.82851886799E+02  0.41800000000E+01 0. -1.
         -5    1    3    3    0  502  0.49899613390E+02  0.37160626787E+01 -0.55573945012E+02  0.74898039377E+02  0.41800000000E+01 0. -1.
        -11    1    1    2    0    0 -0.68926568510E+02  0.40147853312E+02  0.83859824286E+02  0.11573760021E+03  0.00000000000E+00 0. -1.
         11    1    1    2    0    0 -0.26175208317E+02 -0.37442797651E+02  0.12585772640E+02  0.47386773464E+02  0.00000000000E+00 0.  1.
</event>
<event>
 7    1  0.3151015E-009  0.1215799E+03  0.7561462E-02  0.1240513E+00
         -4   -1    0    0    0  501 -0.00000000000E+00  0.00000000000E+00  0.13606762871E+02  0.13606762871E+02  0.00000000000E+00 0.  1.
          4   -1    0    0  501    0  0.00000000000E+00 -0.00000000000E+00 -0.11427642167E+04  0.11427642167E+04  0.00000000000E+00 0. -1.
         25    2    1    2    0    0  0.43159482667E+02  0.44002269960E+02 -0.62083469591E+03  0.63630239538E+03  0.12508428362E+03 0.  0.
          5    1    3    3  502    0 -0.26907728258E+02 -0.24214140673E+02 -0.25540604425E+03  0.25799238417E+03  0.41800000000E+01 0.  1.
         -5    1    3    3    0  502  0.70067210925E+02  0.68216410633E+02 -0.36542865166E+03  0.37831001121E+03  0.41800000000E+01 0.  1.
        -11    1    1    2    0    0  0.13294621412E+02 -0.50308927584E+02 -0.20716539407E+03  0.21360064526E+03  0.00000000000E+00 0.  1.
         11    1    1    2    0    0 -0.56454104080E+02  0.63066576243E+01 -0.30115736384E+03  0.30646793893E+03  0.00000000000E+00 0. -1.
</event>
<event>
 7    1  0.3151015E-009  0.1805410E+03  0.7561462E-02  0.1167280E+00
          1   -1    0    0  501    0  0.00000000000E+00  0.00000000000E+00  0.12488228124E+03  0.12488228124E+03  0.00000000000E+00 0. -1.
         -1   -1    0    0    0  501 -0.00000000000E+00 -0.00000000000E+00 -0.34607823218E+03  0.34607823218E+03  0.00000000000E+00 0.  1.
         25    2    1    2    0    0  0.72180107286E+02  0.13020330545E+03 -0.66593900029E+01  0.19455925531E+03  0.12508432241E+03 0.  0.
          5    1    3    3  502    0  0.10033687335E+03  0.12203208220E+03  0.13681551955E+02  0.15863156843E+03  0.41800000000E+01 0.  1.
         -5    1    3    3    0  502 -0.28156766064E+02  0.81712232520E+01 -0.20340941958E+02  0.35927686878E+02  0.41800000000E+01 0.  1.
        -11    1    1    2    0    0 -0.25331454656E+02 -0.12353537383E+03 -0.16767313591E+03  0.20980217274E+03  0.00000000000E+00 0.  1.
         11    1    1    2    0    0 -0.46848652630E+02 -0.66679316220E+01 -0.46863425036E+02  0.66599085365E+02  0.00000000000E+00 0. -1.
</event>
<event>
 7    1  0.3151015E-009  0.1113900E+03  0.7561462E-02  0.1258017E+00
          1   -1    0    0  501    0  0.00000000000E+00  0.00000000000E+00  0.72080342125E+02  0.72080342125E+02  0.00000000000E+00 0. -1.
         -1   -1    0    0    0  501 -0.00000000000E+00 -0.00000000000E+00 -0.20652936151E+03  0.20652936151E+03  0.00000000000E+00 0.  1.
         25    2    1    2    0    0  0.11557582467E+02 -0.48479951115E+02 -0.57561822732E+02  0.14644065091E+03  0.12509043700E+03 0.  0.
          5    1    3    3  502    0 -0.43610793590E+02  0.54420615989E+01  0.82993590018E+01  0.44920698034E+02  0.41800000000E+01 0. -1.
         -5    1    3    3    0  502  0.55168376057E+02 -0.53922012714E+02 -0.65861181734E+02  0.10151995287E+03  0.41800000000E+01 0. -1.
        -11    1    1    2    0    0 -0.46173041672E+02  0.59737821232E+01 -0.13730594852E+02  0.48540344921E+02  0.00000000000E+00 0. -1.
         11    1    1    2    0    0  0.34615459206E+02  0.42506168992E+02 -0.63156601800E+02  0.83628707806E+02  0.00000000000E+00 0.  1.
</event>
<event>
 7    1  0.3151015E-009  0.1613686E+03  0.7561462E-02  0.1187160E+00
         -1   -1    0    0    0  501 -0.00000000000E+00  0.00000000000E+00  0.76176696817E+03  0.76176696817E+03  0.00000000000E+00 0.  1.
          1   -1    0    0  501    0  0.00000000000E+00 -0.00000000000E+00 -0.46401930213E+02  0.46401930213E+02  0.00000000000E+00 0. -1.
         25    2    1    2    0    0 -0.67829044462E+02  0.13720152133E+03  0.38445323553E+03  0.43229491691E+03  0.12509823398E+03 0.  0.
          5    1    3    3  502    0 -0.49823518142E+02  0.12375370497E+03  0.16766283910E+03  0.21430273556E+03  0.41800000000E+01 0.  1.
         -5    1    3    3    0  502 -0.18005526320E+02  0.13447816356E+02  0.21679039643E+03  0.21799218134E+03  0.41800000000E+01 0.  1.
        -11    1    1    2    0    0  0.36582145798E+02 -0.12902020811E+03  0.30899013255E+03  0.33683730421E+03  0.00000000000E+00 0.  1.
         11    1    1    2    0    0  0.31246898664E+02 -0.81813132131E+01  0.21921669876E+02  0.39036677269E+02  0.00000000000E+00 0. -1.
</event>
<event>
 7    1  0.3151015E-009  0.9813980E+02  0.7561462E-02  0.1284257E+00
         -2   -1    0    0    0  501 -0.00000000000E+00  0.00000000000E+00  0.46420836500E+02  0.46420836500E+02  0.00000000000E+00 0.  1.
          2   -1    0    0  501    0  0.00000000000E+00 -0.00000000000E+00 -0.30837091782E+03  0.30837091782E+03  0.00000000000E+00 0. -1.
         25    2    1    2    0    0 -0.16768028778E+02 -0.26716589593E+02 -0.89739668904E+02  0.15715801389E+03  0.12510191927E+03 0.  0.
          5    1    3    3  502    0  0.41109891972E+02  0.10961804206E+02 -0.75133864235E+02  0.86445094275E+02  0.41800000000E+01 0.  1.
         -5    1    3    3    0  502 -0.57877920751E+02 -0.37678393799E+02 -0.14605804669E+02  0.70712919610E+02  0.41800000000E+01 0.  1.
        -11    1    1    2    0    0  0.46587218295E+02  0.38178264484E+01 -0.44626903385E+02  0.64625886554E+02  0.00000000000E+00 0.  1.
         11    1    1    2    0    0 -0.29819189516E+02  0.22898763145E+02 -0.12758350903E+03  0.13300785388E+03  0.00000000000E+00 0. -1.
</event>
<event>
 7    1  0.3151015E-009  0.2185686E+03  0.7561462E-02  0.1134955E+00
         -1   -1    0    0    0  501 -0.00000000000E+00  0.00000000000E+00  0.20809928285E+03  0.20809928285E+03  0.00000000000E+00 0.  1.
          1   -1    0    0  501    0  0.00000000000E+00 -0.00000000000E+00 -0.28747906903E+03  0.28747906903E+03  0.00000000000E+00 0. -1.
         25    2    1    2    0    0 -0.12587941331E+03 -0.16377114246E+03 -0.11353936150E+03  0.26684317689E+03  0.12508989025E+03 0.  0.
          5    1    3    3  502    0 -0.12961512441E+03 -0.11975888134E+03 -0.40063251640E+02  0.18101051535E+03  0.41800000000E+01 0.  1.
         -5    1    3    3    0  502  0.37357110990E+01 -0.44012261124E+02 -0.73476109859E+02  0.85832661538E+02  0.41800000000E+01 0.  1.
        -11    1    1    2    0    0  0.28457307822E+02  0.89003606388E+02 -0.18259924275E+02  0.95209690437E+02  0.00000000000E+00 0. -1.
         11    1    1    2    0    0  0.97422105489E+02  0.74767536071E+02  0.52419499598E+02  0.13352548456E+03  0.00000000000E+00 0.  1.
</event>
<event>
 7    1  0.3151015E-009  0.1338240E+03  0.7561462E-02  0.1221889E+00
         -2   -1    0    0    0  501 -0.00000000000E+00  0.00000000000E+00  0.16764426098E+03  0.16764426098E+03  0.00000000000E+00 0.  1.
          2   -1    0    0  501    0  0.00000000000E+00 -0.00000000000E+00 -0.13125880998E+03  0.13125880998E+03  0.00000000000E+00 0. -1.
         25    2    1    2    0    0  0.83737337466E+02 -0.54079754778E+02  0.86836460020E+01  0.16018580669E+03  0.12509006913E+03 0.  0.
          5    1    3    3  502    0  0.10318500642E+02  0.29546449502E+02 -0.28749664296E+02  0.42702221614E+02  0.41800000000E+01 0.  1.
         -5    1    3    3    0  502  0.73418836824E+02 -0.83626204280E+02  0.37433310298E+02  0.11748358508E+03  0.41800000000E+01 0.  1.
        -11    1    1    2    0    0 -0.92113291696E+02  0.26440731311E+02  0.44114462370E+02  0.10549908326E+03  0.00000000000E+00 0.  1.
         11    1    1    2    0    0  0.83759542301E+01  0.27639023467E+02 -0.16412657375E+02  0.33218181010E+02  0.00000000000E+00 0. -1.
</event>
<event>
 7    1  0.3151015E-009  0.8988763E+02  0.7561462E-02  0.1303124E+00
         -2   -1    0    0    0  501 -0.00000000000E+00  0.00000000000E+00  0.29247889925E+02  0.29247889925E+02  0.00000000000E+00 0.  1.
          2   -1    0    0  501    0  0.00000000000E+00 -0.00000000000E+00 -0.93355243389E+03  0.93355243389E+03  0.00000000000E+00 0. -1.
         25    2    1    2    0    0 -0.52966135219E+01 -0.38726815773E+02 -0.85034975839E+03  0.86039069764E+03  0.12509844371E+03 0.  0.
          5    1    3    3  502    0  0.92656333256E+01 -0.80731868157E+02 -0.42628409424E+03  0.43398051558E+03  0.41800000000E+01 0.  1.
         -5    1    3    3    0  502 -0.14562246848E+02  0.42005052384E+02 -0.42406566414E+03  0.42641018206E+03  0.41800000000E+01 0.  1.
        -11    1    1    2    0    0  0.13874677891E+02 -0.21550288373E+00  0.16435026392E+02  0.21509607635E+02  0.00000000000E+00 0.  1.
         11    1    1    2    0    0 -0.85780643695E+01  0.38942318656E+02 -0.70389811967E+02  0.80900018538E+02  0.00000000000E+00 0. -1.
</event>
<event>
 7    1  0.3151015E-009  0.1183428E+03  0.7561462E-02  0.1245856E+00
          1   -1    0    0  501    0  0.00000000000E+00  0.00000000000E+00  0.47117842403E+03  0.47117842403E+03  0.00000000000E+00 0.  1.
         -1   -1    0    0    0  501 -0.00000000000E+00 -0.00000000000E+00 -0.60218127752E+02  0.60218127752E+02  0.00000000000E+00 0. -1.
         25    2    1    2    0    0  0.87739689063E+02 -0.38582458618E+02  0.35467861116E+03  0.38811155930E+03  0.12508719398E+03 0.  0.
          5    1    3    3  502    0  0.24334553301E+02  0.93219627494E+01  0.27229430511E+03  0.27357033916E+03  0.41800000000E+01 0. -1.
         -5    1    3    3    0  502  0.63405135762E+02 -0.47904421367E+02  0.82384306053E+02  0.11454122014E+03  0.41800000000E+01 0. -1.
        -11    1    1    2    0    0 -0.10521004272E+03  0.23888084515E+02  0.39260146371E+02  0.11480920156E+03  0.00000000000E+00 0.  1.
         11    1    1    2    0    0  0.17470353656E+02  0.14694374103E+02  0.17021538749E+02  0.28475790920E+02  0.00000000000E+00 0. -1.
</event>
<event>
 7    1  0.3151015E-009  0.2816984E+03  0.7561462E-02  0.1094765E+00
         -2   -1    0    0    0  501 -0.00000000000E+00  0.00000000000E+00  0.39682588813E+03  0.39682588813E+03  0.00000000000E+00 0.  1.
          2   -1    0    0  501    0  0.00000000000E+00 -0.00000000000E+00 -0.23755453702E+03  0.23755453702E+03  0.00000000000E+00 0. -1.
         25    2    1    2    0    0 -0.25895009130E+03  0.71317186512E+02  0.18543200178E+03  0.34953400719E+03  0.12509078313E+03 0.  0.
          5    1    3    3  502    0 -0.12171815773E+03 -0.18722392787E+02  0.38211390239E+02  0.12900938205E+03  0.41800000000E+01 0. -1.
         -5    1    3    3    0  502 -0.13723193357E+03  0.90039579299E+02  0.14722061154E+03  0.22052462514E+03  0.41800000000E+01 0. -1.
        -11    1    1    2    0    0  0.13484971361E+03 -0.69881280733E+02 -0.47029023817E+02  0.15899549597E+03  0.00000000000E+00 0. -1.
         11    1    1    2    0    0  0.12410037769E+03 -0.14359057796E+01  0.20868373143E+02  0.12585092199E+03  0.00000000000E+00 0.  1.
</event>
<event>
 7    1  0.3411903E-009  0.1948872E+03  0.7561462E-02  0.1154126E+00
         -1   -1    0    0    0  501 -0.00000000000E+00  0.00000000000E+00  0.14500449571E+03  0.14500449571E+03  0.00000000000E+00 0.  1.
          1   -1    0    0  501    0  0.00000000000E+00 -0.00000000000E+00 -0.38983961061E+03  0.38983961061E+03  0.00000000000E+00 0. -1.
         25    2    1    2    0    0 -0.17937865196E+03  0.11085734640E+02 -0.17256678265E+01  0.21897735625E+03  0.12509400598E+03 0.  0.
          5    1    3    3  502    0 -0.60975286918E+01  0.20948592363E+02  0.35065380085E+02  0.41509958548E+02  0.41800000000E+01 0.  1.
         -5    1    3    3    0  502 -0.17328112326E+03 -0.98628577234E+01 -0.36791047911E+02  0.17746739771E+03  0.41800000000E+01 0.  1.
        -11    1    1    2    0    0  0.43724829928E+02 -0.35242947960E+02 -0.34662841069E+02  0.65995747470E+02  0.00000000000E+00 0. -1.
         11    1    1    2    0    0  0.13565382203E+03  0.24157213320E+02 -0.20844660600E+03  0.24987100260E+03  0.00000000000E+00 0.  1.
</event>
<event>
 7    1  0.3151015E-009  0.1164606E+03  0.7561462E-02  0.1249053E+00
          1   -1    0    0  501    0  0.00000000000E+00  0.00000000000E+00  0.74934548321E+02  0.74934548321E+02  0.00000000000E+00 0. -1.
         -1   -1    0    0    0  501 -0.00000000000E+00 -0.00000000000E+00 -0.25708937293E+03  0.25708937293E+03  0.00000000000E+00 0.  1.
         25    2    1    2    0    0 -0.56273146813E+02  0.64306572369E+02 -0.83738377454E+02  0.17310996486E+03  0.12511171716E+03 0.  0.
          5    1    3    3  502    0 -0.70707721998E+02  0.88514810391E+02 -0.38651379695E+02  0.11977418403E+03  0.41800000000E+01 0.  1.
         -5    1    3    3    0  502  0.14434575185E+02 -0.24208238023E+02 -0.45086997759E+02  0.53335780821E+02  0.41800000000E+01 0.  1.
        -11    1    1    2    0    0  0.32643525071E+02 -0.58080673426E+02 -0.11247149986E+03  0.13072414710E+03  0.00000000000E+00 0.  1.
         11    1    1    2    0    0  0.23629621742E+02 -0.62258989421E+01  0.14055052706E+02  0.28189809291E+02  0.00000000000E+00 0. -1.
</event>
<event>
 7    1  0.3151015E-009  0.1063073E+03  0.7561462E-02  0.1267565E+00
         -1   -1    0    0    0  501 -0.00000000000E+00  0.00000000000E+00  0.18699776246E+02  0.18699776246E+02  0.00000000000E+00 0.  1.
          1   -1    0    0  501    0  0.00000000000E+00 -0.00000000000E+00 -0.94440970472E+03  0.94440970472E+03  0.00000000000E+00 0. -1.
         25    2    1    2    0    0  0.29468204999E+02  0.78168618378E+02 -0.53461737289E+03  0.55537457330E+03  0.12508586356E+03 0.  0.
          5    1    3    3  502    0 -0.49300498819E+01  0.56603406455E+02 -0.49575598005E+03  0.49901875232E+03  0.41800000000E+01 0. -1.
         -5    1    3    3    0  502  0.34398254881E+02  0.21565211924E+02 -0.38861392843E+02  0.56355820976E+02  0.41800000000E+01 0. -1.
        -11    1    1    2    0    0 -0.85766134840E+01 -0.90276479088E+02 -0.29288383856E+03  0.30660127832E+03  0.00000000000E+00 0.  1.
         11    1    1    2    0    0 -0.20891591515E+02  0.12107860710E+02 -0.98208717017E+02  0.10113362935E+03  0.00000000000E+00 0. -1.
</event>
<event>
 7    1  0.3151015E-009  0.3920096E+03  0.7561462E-02  0.1046582E+00
          2   -1    0    0  501    0  0.00000000000E+00  0.00000000000E+00  0.31596378139E+03  0.31596378139E+03  0.00000000000E+00 0. -1.
         -2   -1    0    0    0  501 -0.00000000000E+00 -0.00000000000E+00 -0.54035137058E+03  0.54035137058E+03  0.00000000000E+00 0.  1.
         25    2    1    2    0    0 -0.26762088873E+03 -0.28265894697E+03 -0.12270482607E+03  0.42687252264E+03  0.12508659344E+03 0.  0.
          5    1    3    3  502    0 -0.96339525621E+02 -0.14003691086E+03  0.47317867753E+01  0.17009263008E+03  0.41800000000E+01 0.  1.
         -5    1    3    3    0  502 -0.17128136311E+03 -0.14262203611E+03 -0.12743661284E+03  0.25677989256E+03  0.41800000000E+01 0.  1.
        -11    1    1    2    0    0  0.63298272615E+02  0.91525623292E+02 -0.10006184165E+03  0.14965287565E+03  0.00000000000E+00 0. -1.
         11    1    1    2    0    0  0.20432261612E+03  0.19113332367E+03 -0.16209214777E+01  0.27978975368E+03  0.00000000000E+00 0.  1.
</event>
<event>
 7    1  0.4282994E-009  0.1516010E+03  0.7561462E-02  0.1198519E+00
          2   -1    0    0  501    0  0.00000000000E+00  0.00000000000E+00  0.20326674310E+04  0.20326674310E+04  0.00000000000E+00 0. -1.
         -2   -1    0    0    0  501 -0.00000000000E+00 -0.00000000000E+00 -0.25097236708E+02  0.25097236708E+02  0.00000000000E+00 0.  1.
         25    2    1    2    0    0 -0.94039129216E+02  0.84499129477E+02  0.17340907606E+04  0.17431874841E+04  0.12509347606E+03 0.  0.
          5    1    3    3  502    0 -0.81962524652E+02 -0.81411770928E+01  0.68814771249E+03  0.69307206033E+03  0.41800000000E+01 0.  1.
         -5    1    3    3    0  502 -0.12076604564E+02  0.92640306569E+02  0.10459430482E+04  0.10501154237E+04  0.41800000000E+01 0.  1.
        -11    1    1    2    0    0  0.67207766201E+02 -0.68544903202E+02  0.10118035020E+03  0.13947311877E+03  0.00000000000E+00 0.  1.
         11    1    1    2    0    0  0.26831363015E+02 -0.15954226274E+02  0.17229908345E+03  0.17510406487E+03  0.00000000000E+00 0. -1.
</event>
<event>
 7    1  0.3151015E-009  0.1117883E+03  0.7561462E-02  0.1257294E+00
          2   -1    0    0  501    0  0.00000000000E+00  0.00000000000E+00  0.40875030901E+03  0.40875030901E+03  0.00000000000E+00 0. -1.
         -2   -1    0    0    0  501 -0.00000000000E+00 -0.00000000000E+00 -0.45959030142E+02  0.45959030142E+02  0.00000000000E+00 0.  1.
         25    2    1    2    0    0  0.64149859729E+02 -0.41073428123E+02  0.13992409800E+03  0.20255317695E+03  0.12508719075E+03 0.  0.
          5    1    3    3  502    0  0.47772791621E+02 -0.67873079284E+02  0.14810644848E+03  0.16982928779E+03  0.41800000000E+01 0.  1.
         -5    1    3    3    0  502  0.16377068108E+02  0.26799651160E+02 -0.81823504796E+01  0.32723889156E+02  0.41800000000E+01 0.  1.
        -11    1    1    2    0    0 -0.15831859613E+02 -0.23378481280E+02  0.22175261922E+02  0.35901857989E+02  0.00000000000E+00 0.  1.
         11    1    1    2    0    0 -0.48318000116E+02  0.64451909403E+02  0.20069191894E+03  0.21625430421E+03  0.00000000000E+00 0. -1.
</event>
<event>
 7    1  0.3151015E-009  0.1157190E+03  0.7561462E-02  0.1250331E+00
         -2   -1    0    0    0  501 -0.00000000000E+00  0.00000000000E+00  0.36014614132E+02  0.36014614132E+02  0.00000000000E+00 0.  1.
          2   -1    0    0  501    0  0.00000000000E+00 -0.00000000000E+00 -0.56139389281E+03  0.56139389281E+03  0.00000000000E+00 0. -1.
         25    2    1    2    0    0  0.37423428345E+02 -0.80776876772E+02 -0.31337006995E+03  0.34895455389E+03  0.12507223166E+03 0.  0.
          5    1    3    3  502    0  0.56907824204E+02 -0.54233094035E+02 -0.30462178630E+03  0.31462935978E+03  0.41800000000E+01 0. -1.
         -5    1    3    3    0  502 -0.19484395858E+02 -0.26543782737E+02 -0.87482836403E+01  0.34325194109E+02  0.41800000000E+01 0. -1.
        -11    1    1    2    0    0 -0.28476056514E+02 -0.85641762914E+01 -0.18218548390E+02  0.34873290863E+02  0.00000000000E+00 0.  1.
         11    1    1    2    0    0 -0.89473718306E+01  0.89341053064E+02 -0.19379066034E+03  0.21358066219E+03  0.00000000000E+00 0. -1.
</event>
<event>
 7    1  0.3151015E-009  0.1301855E+03  0.7561462E-02  0.1227181E+00
         -1   -1    0    0    0  501 -0.00000000000E+00  0.00000000000E+00  0.11640517119E+03  0.11640517119E+03  0.00000000000E+00 0. -1.
          1   -1    0    0  501    0  0.00000000000E+00 -0.00000000000E+00 -0.19398725935E+03  0.19398725935E+03  0.00000000000E+00 0.  1.
         25    2    1    2    0    0 -0.92937720503E+02  0.16936358979E+02  0.16128377812E+01  0.15675661649E+03  0.12508307407E+03 0.  0.
          5    1    3    3  502    0  0.19667164506E+02  0.32050909307E+02 -0.17125989177E+02  0.41531073336E+02  0.41800000000E+01 0.  1.
         -5    1    3    3    0  502 -0.11260488501E+03 -0.15114550329E+02  0.18738826958E+02  0.11522554315E+03  0.41800000000E+01 0.  1.
        -11    1    1    2    0    0 -0.20537968647E-01 -0.15879466743E+02 -0.55461275735E+02  0.57689782389E+02  0.00000000000E+00 0.  1.
         11    1    1    2    0    0  0.92958258472E+02 -0.10568922357E+01 -0.23733650200E+02  0.95946031659E+02  0.00000000000E+00 0. -1.
</event>
<event>
 7    1  0.3151015E-009  0.1036906E+03  0.7561462E-02  0.1272721E+00
          1   -1    0    0  501    0  0.00000000000E+00  0.00000000000E+00  0.17811602698E+03  0.17811602698E+03  0.00000000000E+00 0. -1.
         -1   -1    0    0    0  501 -0.00000000000E+00 -0.00000000000E+00 -0.10285268263E+03  0.10285268263E+03  0.00000000000E+00 0.  1.
         25    2    1    2    0    0  0.64575221773E+02 -0.88664032405E+01 -0.55025689582E+01  0.14117457053E+03  0.12510559031E+03 0.  0.
          5    1    3    3  502    0 -0.17907033325E+02 -0.37648895332E+02 -0.28583132323E+02  0.50720498968E+02  0.41800000000E+01 0. -1.
         -5    1    3    3    0  502  0.82482255097E+02  0.28782492091E+02  0.23080563364E+02  0.90454071562E+02  0.41800000000E+01 0. -1.
        -11    1    1    2    0    0 -0.43808100694E+02  0.26136148107E+02 -0.36694067882E+01  0.51144036510E+02  0.00000000000E+00 0.  1.
         11    1    1    2    0    0 -0.20767121078E+02 -0.17269744867E+02  0.84435320098E+02  0.88650102570E+02  0.00000000000E+00 0. -1.
</event>
<event>
 7    1  0.3151015E-009  0.1417825E+03  0.7561462E-02  0.1210950E+00
          1   -1    0    0  501    0  0.00000000000E+00  0.00000000000E+00  0.90052405241E+02  0.90052405241E+02  0.00000000000E+00 0. -1.
         -1   -1    0    0    0  501 -0.00000000000E+00 -0.00000000000E+00 -0.24999434623E+03  0.24999434623E+03  0.00000000000E+00 0.  1.
         25    2    1    2    0    0 -0.85863906271E+02  0.56068009746E+02 -0.99177027878E+02  0.18973235060E+03  0.12508417122E+03 0.  0.
          5    1    3    3  502    0  0.23876218116E+02  0.39699404877E+01  0.98357818177E+01  0.26458443321E+02  0.41800000000E+01 0. -1.
         -5    1    3    3    0  502 -0.10974012439E+03  0.52098069258E+02 -0.10901280970E+03  0.16327390728E+03  0.41800000000E+01 0. -1.
        -11    1    1    2    0    0  0.67193079621E+02  0.10773868675E+02 -0.31726037612E+02  0.75083471269E+02  0.00000000000E+00 0.  1.
         11    1    1    2    0    0  0.18670826650E+02 -0.66841878421E+02 -0.29038875501E+02  0.75230929603E+02  0.00000000000E+00 0. -1.
</event>
<event>
 7    1  0.3151015E-009  0.3759970E+03  0.7561462E-02  0.1052423E+00
         -1   -1    0    0    0  501 -0.00000000000E+00  0.00000000000E+00  0.15103162155E+03  0.15103162155E+03  0.00000000000E+00 0.  1.
          1   -1    0    0  501    0  0.00000000000E+00 -0.00000000000E+00 -0.94138657604E+03  0.94138657604E+03  0.00000000000E+00 0. -1.
         25    2    1    2    0    0 -0.35202068738E+03  0.78635031877E+02 -0.40044498869E+03  0.55326514671E+03  0.12507638073E+03 0.  0.
          5    1    3    3  502    0 -0.16719181482E+01 -0.16692159697E+02 -0.95894558472E+01  0.19770016922E+02  0.41800000000E+01 0.  1.
         -5    1    3    3    0  502 -0.35034876923E+03  0.95327191574E+02 -0.39085553284E+03  0.53349512979E+03  0.41800000000E+01 0.  1.
        -11    1    1    2    0    0  0.30061328498E+03 -0.98713525888E+02 -0.31908196427E+03  0.44936177766E+03  0.00000000000E+00 0.  1.
         11    1    1    2    0    0  0.51407402400E+02  0.20078494011E+02 -0.70828001540E+02  0.89791273214E+02  0.00000000000E+00 0. -1.
</event>
<event>
 7    1  0.3151015E-009  0.1565193E+03  0.7561462E-02  0.1192683E+00
         -2   -1    0    0    0  501 -0.00000000000E+00  0.00000000000E+00  0.14859284353E+03  0.14859284353E+03  0.00000000000E+00 0.  1.
          2   -1    0    0  501    0  0.00000000000E+00 -0.00000000000E+00 -0.20516613231E+03  0.20516613231E+03  0.00000000000E+00 0. -1.
         25    2    1    2    0    0  0.13156837440E+03  0.34242299908E+02 -0.50810065926E+02  0.19160373884E+03  0.12509019822E+03 0.  0.
          5    1    3    3  502    0  0.12086737617E+02 -0.32857441907E+02  0.16437048039E+02  0.38901795115E+02  0.41800000000E+01 0. -1.
         -5    1    3    3    0  502  0.11948163679E+03  0.67099741815E+02 -0.67247113965E+02  0.15270194372E+03  0.41800000000E+01 0. -1.
        -11    1    1    2    0    0 -0.96992705686E+02 -0.41256714832E+02  0.32315398236E+02  0.11024511979E+03  0.00000000000E+00 0.  1.
         11    1    1    2    0    0 -0.34575668716E+02  0.70144149245E+01 -0.38078621098E+02  0.51910117209E+02  0.00000000000E+00 0. -1.
</event>
<event>
 7    1  0.3151015E-009  0.8443795E+02  0.7561462E-02  0.1316909E+00
         -2   -1    0    0    0  501 -0.00000000000E+00  0.00000000000E+00  0.15527051706E+02  0.15527051706E+02  0.00000000000E+00 0.  1.
          2   -1    0    0  501    0  0.00000000000E+00 -0.00000000000E+00 -0.10074059269E+04  0.10074059269E+04  0.00000000000E+00 0. -1.
         25    2    1    2    0    0 -0.12896334856E+02  0.21072213125E+02 -0.79354035645E+03  0.80371959276E+03  0.12509409603E+03 0.  0.
          5    1    3    3  502    0  0.12950982308E+02 -0.36151515174E+02 -0.57508785448E+03  0.57638370272E+03  0.41800000000E+01 0. -1.
         -5    1    3    3    0  502 -0.25847317165E+02  0.57223728299E+02 -0.21845250197E+03  0.22733589005E+03  0.41800000000E+01 0. -1.
        -11    1    1    2    0    0 -0.19062202904E+02  0.11027599081E+02 -0.77967248290E+01  0.23361601810E+02  0.00000000000E+00 0.  1.
         11    1    1    2    0    0  0.31958537761E+02 -0.32099812207E+02 -0.19054179388E+03  0.19585178399E+03  0.00000000000E+00 0. -1.
</event>
<event>
 7    1  0.3151015E-009  0.6429100E+02  0.7561462E-02  0.1380658E+00
          2   -1    0    0  501    0  0.00000000000E+00  0.00000000000E+00  0.78786854189E+02  0.78786854189E+02  0.00000000000E+00 0.  1.
         -2   -1    0    0    0  501 -0.00000000000E+00 -0.00000000000E+00 -0.16554324265E+03  0.16554324265E+03  0.00000000000E+00 0. -1.
         25    2    1    2    0    0  0.10978041607E+02  0.18277932548E+02 -0.14287096580E+02  0.12770079171E+03  0.12509504730E+03 0.  0.
          5    1    3    3  502    0  0.29863776090E+01  0.29001245916E+02  0.52101291933E+02  0.59849876666E+02  0.41800000000E+01 0.  1.
         -5    1    3    3    0  502  0.79916639980E+01 -0.10723313368E+02 -0.66388388513E+02  0.67850915045E+02  0.41800000000E+01 0.  1.
        -11    1    1    2    0    0 -0.14633754501E+02 -0.50556918125E+02 -0.22979116698E+02  0.57429857612E+02  0.00000000000E+00 0.  1.
         11    1    1    2    0    0  0.36557128944E+01  0.32278985577E+02 -0.49490175183E+02  0.59199447517E+02  0.00000000000E+00 0. -1.
</event>
<event>
 7    1  0.3151015E-009  0.1475725E+03  0.7561462E-02  0.1203488E+00
         -1   -1    0    0    0  501 -0.00000000000E+00  0.00000000000E+00  0.48821500179E+02  0.48821500179E+02  0.00000000000E+00 0.  1.
          1   -1    0    0  501    0  0.00000000000E+00 -0.00000000000E+00 -0.72648038620E+03  0.72648038620E+03  0.00000000000E+00 0. -1.
         25    2    1    2    0    0 -0.42017177759E+02  0.10717657127E+03 -0.56306517467E+03  0.58816899613E+03  0.12509243154E+03 0.  0.
          5    1    3    3  502    0 -0.44629867090E+02  0.12359252338E+03 -0.55273803305E+03  0.56815820196E+03  0.41800000000E+01 0. -1.
         -5    1    3    3    0  502  0.26126893305E+01 -0.16415952115E+02 -0.10327141616E+02  0.20010794170E+02  0.41800000000E+01 0. -1.
        -11    1    1    2    0    0  0.55675555303E+02 -0.21351050393E+02 -0.34176618033E+02  0.68729004295E+02  0.00000000000E+00 0. -1.
         11    1    1    2    0    0 -0.13658377544E+02 -0.85825520876E+02 -0.80417093317E+02  0.11840388595E+03  0.00000000000E+00 0.  1.
</event>
<event>
 7    1  0.3151015E-009  0.1204130E+03  0.7561462E-02  0.1242417E+00
          1   -1    0    0  501    0  0.00000000000E+00  0.00000000000E+00  0.23947501108E+03  0.23947501108E+03  0.00000000000E+00 0. -1.
         -1   -1    0    0    0  501 -0.00000000000E+00 -0.00000000000E+00 -0.79620503542E+02  0.79620503542E+02  0.00000000000E+00 0.  1.
         25    2    1    2    0    0 -0.55536166001E+02  0.11423403322E+02  0.10992358102E+02  0.13777923794E+03  0.12509007392E+03 0.  0.
          5    1    3    3  502    0  0.40355944313E+02  0.76221882586E+01  0.33209844108E+01  0.41414989227E+02  0.41800000000E+01 0.  1.
         -5    1    3    3    0  502 -0.95892110313E+02  0.38012150634E+01  0.76713736914E+01  0.96364248716E+02  0.41800000000E+01 0.  1.
        -11    1    1    2    0    0 -0.43786615455E+01 -0.37778034256E+02  0.52595493450E+02  0.64904841733E+02  0.00000000000E+00 0. -1.
         11    1    1    2    0    0  0.59914827546E+02  0.26354630934E+02  0.96266655984E+02  0.11641143494E+03  0.00000000000E+00 0.  1.
</event>
<event>
 7    1  0.3151015E-009  0.1042199E+03  0.7561462E-02  0.1271664E+00
         -2   -1    0    0    0  501 -0.00000000000E+00  0.00000000000E+00  0.48235169711E+03  0.48235169711E+03  0.00000000000E+00 0.  1.
          2   -1    0    0  501    0  0.00000000000E+00 -0.00000000000E+00 -0.58031142999E+02  0.58031142999E+02  0.00000000000E+00 0. -1.
         25    2    1    2    0    0  0.37984410608E+02  0.94485168562E+02  0.10344078251E+03  0.19161640038E+03  0.12508631772E+03 0.  0.
          5    1    3    3  502    0  0.30803000734E+02  0.43749363552E+02 -0.20488410941E+02  0.57446314488E+02  0.41800000000E+01 0.  1.
         -5    1    3    3    0  502  0.71814098745E+01  0.50735805010E+02  0.12392919345E+03  0.13417008589E+03  0.41800000000E+01 0.  1.
        -11    1    1    2    0    0 -0.12373210744E+02 -0.54413752505E+02  0.28162785734E+03  0.28710312230E+03  0.00000000000E+00 0.  1.
         11    1    1    2    0    0 -0.25611199865E+02 -0.40071416057E+02  0.39251914260E+02  0.61663317429E+02  0.00000000000E+00 0. -1.
</event>
<event>
 7    1  0.3151015E-009  0.1080139E+03  0.7561462E-02  0.1264293E+00
         -4   -1    0    0    0  501 -0.00000000000E+00  0.00000000000E+00  0.66681778840E+02  0.66681778840E+02  0.00000000000E+00 0.  1.
          4   -1    0    0  501    0  0.00000000000E+00 -0.00000000000E+00 -0.19877131140E+03  0.19877131140E+03  0.00000000000E+00 0. -1.
         25    2    1    2    0    0 -0.42298983998E+02  0.82496861647E+01 -0.79840605833E+02  0.15455821904E+03  0.12512577418E+03 0.  0.
          5    1    3    3  502    0 -0.84135182716E+02 -0.27744988816E+00 -0.31524656139E+02  0.89944884756E+02  0.41800000000E+01 0.  1.
         -5    1    3    3    0  502  0.41836198718E+02  0.85271360529E+01 -0.48315949694E+02  0.64613334284E+02  0.41800000000E+01 0.  1.
        -11    1    1    2    0    0 -0.97755822015E+01  0.25177007305E+02  0.39604325226E+01  0.27297046177E+02  0.00000000000E+00 0.  1.
         11    1    1    2    0    0  0.52074566199E+02 -0.33426693470E+02 -0.56209359246E+02  0.83597825020E+02  0.00000000000E+00 0. -1.
</event>
<event>
 7    1  0.3151015E-009  0.1995133E+03  0.7561462E-02  0.1150150E+00
          2   -1    0    0  501    0  0.00000000000E+00  0.00000000000E+00  0.99078697432E+02  0.99078697432E+02  0.00000000000E+00 0.  1.
         -2   -1    0    0    0  501 -0.00000000000E+00 -0.00000000000E+00 -0.73086464552E+03  0.73086464552E+03  0.00000000000E+00 0. -1.
         25    2    1    2    0    0 -0.17636474698E+03 -0.78224287178E+02 -0.55933482298E+03  0.60475321436E+03  0.12508973981E+03 0.  0.
          5    1    3    3  502    0 -0.13485685778E+03 -0.79149754742E+02 -0.26693609987E+03  0.30939199986E+03  0.41800000000E+01 0.  1.
         -5    1    3    3    0  502 -0.41507889198E+02  0.92546756375E+00 -0.29239872311E+03  0.29536121450E+03  0.41800000000E+01 0.  1.
        -11    1    1    2    0    0  0.84014275646E+02  0.67757240339E+02 -0.96580908769E+00  0.10793690248E+03  0.00000000000E+00 0.  1.
         11    1    1    2    0    0  0.92350471333E+02  0.10467046840E+02 -0.71485316024E+02  0.11725322610E+03  0.00000000000E+00 0. -1.
</event>
<event>
 7    1  0.3151015E-009  0.2919117E+03  0.7561462E-02  0.1089355E+00
          1   -1    0    0  501    0  0.00000000000E+00  0.00000000000E+00  0.13767566968E+04  0.13767566968E+04  0.00000000000E+00 0. -1.
         -1   -1    0    0    0  501 -0.00000000000E+00 -0.00000000000E+00 -0.72113983561E+02  0.72113983561E+02  0.00000000000E+00 0.  1.
         25    2    1    2    0    0  0.19975698952E+03  0.20249850287E+03  0.47976861306E+03  0.57160520402E+03  0.12508432622E+03 0.  0.
          5    1    3    3  502    0  0.10132215681E+03  0.39579428794E+02  0.25353901793E+03  0.27592067095E+03  0.41800000000E+01 0. -1.
         -5    1    3    3    0  502  0.98434832707E+02  0.16291907407E+03  0.22622959513E+03  0.29568453308E+03  0.41800000000E+01 0. -1.
        -11    1    1    2    0    0 -0.49897149852E+02 -0.55923875774E+02  0.35387650381E+03  0.36172611931E+03  0.00000000000E+00 0. -1.
         11    1    1    2    0    0 -0.14985983967E+03 -0.14657462709E+03  0.47099759632E+03  0.51553935698E+03  0.00000000000E+00 0.  1.
</event>
<event>
 7    1  0.3151015E-009  0.1655272E+03  0.7561462E-02  0.1182594E+00
         -2   -1    0    0    0  501 -0.00000000000E+00  0.00000000000E+00  0.27940479450E+03  0.27940479450E+03  0.00000000000E+00 0.  1.
          2   -1    0    0  501    0  0.00000000000E+00 -0.00000000000E+00 -0.13478342601E+03  0.13478342601E+03  0.00000000000E+00 0. -1.
         25    2    1    2    0    0  0.13759545807E+03 -0.22619553651E+02  0.16160022839E+03  0.24739852463E+03  0.12508893588E+03 0.  0.
          5    1    3    3  502    0 -0.74732473836E+01  0.15087354344E+02  0.69034786953E+02  0.71181120371E+02  0.41800000000E+01 0. -1.
         -5    1    3    3    0  502  0.14506870546E+03 -0.37706907995E+02  0.92565441439E+02  0.17621740425E+03  0.41800000000E+01 0. -1.
        -11    1    1    2    0    0 -0.13766149733E+03  0.42349972907E+02 -0.23659511202E+02  0.14595883160E+03  0.00000000000E+00 0. -1.
         11    1    1    2    0    0  0.66039254731E-01 -0.19730419257E+02  0.66806512966E+01  0.20830864288E+02  0.00000000000E+00 0.  1.
</event>
<event>
 7    1  0.3151015E-009  0.9539699E+02  0.7561462E-02  0.1290284E+00
         -1   -1    0    0    0  501 -0.00000000000E+00  0.00000000000E+00  0.96625616297E+02  0.96625616297E+02  0.00000000000E+00 0.  1.
          1   -1    0    0  501    0  0.00000000000E+00 -0.00000000000E+00 -0.15713430644E+03  0.15713430644E+03  0.00000000000E+00 0. -1.
         25    2    1    2    0    0  0.28683575839E+02 -0.18504963296E+02  0.16436831205E+02  0.13069075508E+03  0.12507886654E+03 0.  0.
          5    1    3    3  502    0  0.64478341888E+02  0.28333947629E+02  0.86314752089E+01  0.71079138466E+02  0.41800000000E+01 0.  1.
         -5    1    3    3    0  502 -0.35794766048E+02 -0.46838910925E+02  0.78053559965E+01  0.59611616614E+02  0.41800000000E+01 0.  1.
        -11    1    1    2    0    0 -0.22490310938E+02  0.36075806697E+02 -0.90528186820E+02  0.10001315175E+03  0.00000000000E+00 0. -1.
         11    1    1    2    0    0 -0.61932649012E+01 -0.17570843401E+02  0.13582665472E+02  0.23056015902E+02  0.00000000000E+00 0.  1.
</event>
<event>
 7    1  0.3151015E-009  0.1050451E+03  0.7561462E-02  0.1270031E+00
         -1   -1    0    0    0  501 -0.00000000000E+00  0.00000000000E+00  0.35592431706E+02  0.35592431706E+02  0.00000000000E+00 0.  1.
          1   -1    0    0  501    0  0.00000000000E+00 -0.00000000000E+00 -0.38132299410E+03  0.38132299410E+03  0.00000000000E+00 0. -1.
         25    2    1    2    0    0  0.28350913714E+02 -0.31184299353E+02 -0.20686359945E+03  0.24538911553E+03  0.12508810657E+03 0.  0.
          5    1    3    3  502    0  0.58067670971E+02 -0.63253962882E+02 -0.15656103876E+03  0.17861060856E+03  0.41800000000E+01 0. -1.
         -5    1    3    3    0  502 -0.29716757257E+02  0.32069663529E+02 -0.50302560692E+02  0.66778506969E+02  0.41800000000E+01 0. -1.
        -11    1    1    2    0    0  0.42092065785E+01  0.44736670625E+02 -0.12635129258E+03  0.13410345356E+03  0.00000000000E+00 0. -1.
         11    1    1    2    0    0 -0.32560120292E+02 -0.13552371272E+02 -0.12515670359E+02  0.37422856720E+02  0.00000000000E+00 0.  1.
</event>
<event>
 7    1  0.3151015E-009  0.1076324E+03  0.7561462E-02  0.1265018E+00
          1   -1    0    0  501    0  0.00000000000E+00  0.00000000000E+00  0.15519935751E+03  0.15519935751E+03  0.00000000000E+00 0. -1.
         -1   -1    0    0    0  501 -0.00000000000E+00 -0.00000000000E+00 -0.27125846498E+03  0.27125846498E+03  0.00000000000E+00 0.  1.
         25    2    1    2    0    0  0.70336149868E+02  0.44222651050E+02  0.98213307408E+02  0.17943353813E+03  0.12509086302E+03 0.  0.
          5    1    3    3  502    0  0.73494743193E+02  0.16116874502E+02 -0.18359414040E+01  0.75379533042E+02  0.41800000000E+01 0. -1.
         -5    1    3    3    0  502 -0.31585933254E+01  0.28105776548E+02  0.10004924881E+03  0.10405400509E+03  0.41800000000E+01 0. -1.
        -11    1    1    2    0    0 -0.14931769202E+02  0.20982282323E+02 -0.10567785704E+03  0.10877050782E+03  0.00000000000E+00 0.  1.
         11    1    1    2    0    0 -0.55404380666E+02 -0.65204933373E+02 -0.10859455784E+03  0.13825377654E+03  0.00000000000E+00 0. -1.
</event>
<event>
 7    1  0.3151015E-009  0.8553662E+02  0.7561462E-02  0.1314035E+00
         -1   -1    0    0    0  501 -0.00000000000E+00  0.00000000000E+00  0.10039792044E+03  0.10039792044E+03  0.00000000000E+00 0.  1.
          1   -1    0    0  501    0  0.00000000000E+00 -0.00000000000E+00 -0.20290770770E+03  0.20290770770E+03  0.00000000000E+00 0. -1.
         25    2    1    2    0    0  0.56321946119E+02 -0.51793830283E+02 -0.11288962131E+03  0.18505953280E+03  0.12509277202E+03 0.  0.
          5    1    3    3  502    0  0.41657639807E+02 -0.62991844497E+02 -0.13574217974E+03  0.15539222370E+03  0.41800000000E+01 0. -1.
         -5    1    3    3    0  502  0.14664306311E+02  0.11198014214E+02  0.22852558434E+02  0.29667309094E+02  0.41800000000E+01 0. -1.
        -11    1    1    2    0    0 -0.40694517049E+02  0.37784281187E+02  0.49151065825E+02  0.74158768156E+02  0.00000000000E+00 0.  1.
         11    1    1    2    0    0 -0.15627429069E+02  0.14009549096E+02 -0.38771231775E+02  0.44087327187E+02  0.00000000000E+00 0. -1.
</event>
<event>
 7    1  0.3151015E-009  0.9104027E+02  0.7561462E-02  0.1300352E+00
         -2   -1    0    0    0  501 -0.00000000000E+00  0.00000000000E+00  0.37419738529E+02  0.37419738529E+02  0.00000000000E+00 0.  1.
          2   -1    0    0  501    0  0.00000000000E+00 -0.00000000000E+00 -0.34118470328E+03  0.34118470328E+03  0.00000000000E+00 0. -1.
         25    2    1    2    0    0  0.32833123181E+01  0.19523332678E+02 -0.12247688118E+03  0.17616646604E+03  0.12506836800E+03 0.  0.
          5    1    3    3  502    0 -0.40247837228E+02  0.31005102171E+02 -0.12058017118E+03  0.13091315765E+03  0.41800000000E+01 0. -1.
         -5    1    3    3    0  502  0.43531149547E+02 -0.11481769494E+02 -0.18967099968E+01  0.45253308391E+02  0.41800000000E+01 0. -1.
        -11    1    1    2    0    0 -0.43248711033E+02 -0.58106513455E+01 -0.12250649607E+03  0.13004636195E+03  0.00000000000E+00 0. -1.
         11    1    1    2    0    0  0.39965398714E+02 -0.13712681332E+02 -0.58781587498E+02  0.72391613827E+02  0.00000000000E+00 0.  1.
</event>
<event>
 7    1  0.3151015E-009  0.7770269E+02  0.7561462E-02  0.1335700E+00
          1   -1    0    0  501    0  0.00000000000E+00  0.00000000000E+00  0.56221910970E+02  0.56221910970E+02  0.00000000000E+00 0. -1.
         -1   -1    0    0    0  501 -0.00000000000E+00 -0.00000000000E+00 -0.25160312302E+03  0.25160312302E+03  0.00000000000E+00 0.  1.
         25    2    1    2    0    0 -0.27821204323E+02  0.50599541819E+01 -0.16877253611E+03  0.21197034291E+03  0.12509050636E+03 0.  0.
          5    1    3    3  502    0 -0.45430502404E+02 -0.39257928657E+02 -0.34399239303E+02  0.69324566899E+02  0.41800000000E+01 0. -1.
         -5    1    3    3    0  502  0.17609298081E+02  0.44317882839E+02 -0.13437329680E+03  0.14264577601E+03  0.41800000000E+01 0. -1.
        -11    1    1    2    0    0  0.27942910021E+02 -0.18753300825E+02 -0.54917189565E+02  0.64407998121E+02  0.00000000000E+00 0.  1.
         11    1    1    2    0    0 -0.12170569800E+00  0.13693346643E+02  0.28308513625E+02  0.31446692962E+02  0.00000000000E+00 0. -1.
</event>
<event>
 7    1  0.3151015E-009  0.1035252E+03  0.7561462E-02  0.1273053E+00
         -1   -1    0    0    0  501 -0.00000000000E+00  0.00000000000E+00  0.13391895475E+03  0.13391895475E+03  0.00000000000E+00 0.  1.
          1   -1    0    0  501    0  0.00000000000E+00 -0.00000000000E+00 -0.12821067403E+03  0.12821067403E+03  0.00000000000E+00 0. -1.
         25    2    1    2    0    0 -0.55098487277E+02 -0.10572819250E+02 -0.42569750463E+02  0.14355787091E+03  0.12509616636E+03 0.  0.
          5    1    3    3  502    0 -0.63467369548E+01 -0.41497620260E+02 -0.68247445387E+02  0.80234155813E+02  0.41800000000E+01 0. -1.
         -5    1    3    3    0  502 -0.48751750322E+02  0.30924801010E+02  0.25677694924E+02  0.63323715096E+02  0.41800000000E+01 0. -1.
        -11    1    1    2    0    0  0.72638789244E+02 -0.16717529688E+02  0.41908192713E+02  0.85511204636E+02  0.00000000000E+00 0.  1.
         11    1    1    2    0    0 -0.17540301967E+02  0.27290348939E+02  0.63698384697E+01  0.33060553238E+02  0.00000000000E+00 0. -1.
</event>
<event>
 7    1  0.3151015E-009  0.1011905E+03  0.7561462E-02  0.1277812E+00
          3   -1    0    0  501    0  0.00000000000E+00  0.00000000000E+00  0.38931745165E+02  0.38931745165E+02  0.00000000000E+00 0. -1.
         -3   -1    0    0    0  501 -0.00000000000E+00 -0.00000000000E+00 -0.36637010496E+03  0.36637010496E+03  0.00000000000E+00 0.  1.
         25    2    1    2    0    0  0.13199828168E+01  0.51774263516E+02 -0.21320070333E+03  0.25255618055E+03  0.12509103771E+03 0.  0.
          5    1    3    3  502    0  0.21383058860E+02 -0.37603553035E+02 -0.61783555603E+02  0.75537689600E+02  0.41800000000E+01 0. -1.
         -5    1    3    3    0  502 -0.20063076044E+02  0.89377816551E+02 -0.15141714773E+03  0.17701849095E+03  0.41800000000E+01 0. -1.
        -11    1    1    2    0    0  0.20695300871E+02 -0.22129052149E+02 -0.11169617082E+03  0.11573255809E+03  0.00000000000E+00 0.  1.
         11    1    1    2    0    0 -0.22015283688E+02 -0.29645211367E+02 -0.25414856507E+01  0.37013111490E+02  0.00000000000E+00 0. -1.
</event>
<event>
 7    1  0.3151015E-009  0.9412425E+02  0.7561462E-02  0.1293161E+00
          1   -1    0    0  501    0  0.00000000000E+00  0.00000000000E+00  0.97882234570E+03  0.97882234570E+03  0.00000000000E+00 0. -1.
         -1   -1    0    0    0  501 -0.00000000000E+00 -0.00000000000E+00 -0.14659406403E+02  0.14659406403E+02  0.00000000000E+00 0.  1.
         25    2    1    2    0    0 -0.60087542732E+01 -0.34258486092E+02  0.69548633968E+03  0.70750156247E+03  0.12508982058E+03 0.  0.
          5    1    3    3  502    0 -0.26429373470E+02  0.25786227704E+02  0.74327023863E+02  0.83098857980E+02  0.41800000000E+01 0. -1.
         -5    1    3    3    0  502  0.20420619197E+02 -0.60044713796E+02  0.62115931582E+03  0.62440270449E+03  0.41800000000E+01 0. -1.
        -11    1    1    2    0    0  0.35952458795E+02 -0.69211726919E+01  0.18035453240E+03  0.18403325592E+03  0.00000000000E+00 0. -1.
         11    1    1    2    0    0 -0.29943704522E+02  0.41179658784E+02  0.88322067211E+02  0.10194693372E+03  0.00000000000E+00 0.  1.
</event>
<event>
 7    1  0.3151015E-009  0.1047675E+03  0.7561462E-02  0.1270578E+00
          1   -1    0    0  501    0  0.00000000000E+00  0.00000000000E+00  0.16238337692E+03  0.16238337692E+03  0.00000000000E+00 0. -1.
         -1   -1    0    0    0  501 -0.00000000000E+00 -0.00000000000E+00 -0.16902286706E+03  0.16902286706E+03  0.00000000000E+00 0.  1.
         25    2    1    2    0    0  0.83106657734E+02 -0.39880575902E+02  0.80773690419E+02  0.17512036621E+03  0.12508227973E+03 0.  0.
          5    1    3    3  502    0  0.18081161285E+02 -0.41495395596E+02  0.97718817094E+02  0.10777400365E+03  0.41800000000E+01 0. -1.
         -5    1    3    3    0  502  0.65025496450E+02  0.16148196948E+01 -0.16945126675E+02  0.67346362554E+02  0.41800000000E+01 0. -1.
        -11    1    1    2    0    0 -0.64299701035E+02  0.12220355551E+02 -0.30362569769E+01  0.65521046233E+02  0.00000000000E+00 0. -1.
         11    1    1    2    0    0 -0.18806956699E+02  0.27660220350E+02 -0.84376923584E+02  0.90764831535E+02  0.00000000000E+00 0.  1.
</event>
<event>
 7    1  0.3151015E-009  0.1180581E+03  0.7561462E-02  0.1246335E+00
         -2   -1    0    0    0  501 -0.00000000000E+00  0.00000000000E+00  0.87917562743E+02  0.87917562743E+02  0.00000000000E+00 0.  1.
          2   -1    0    0  501    0  0.00000000000E+00 -0.00000000000E+00 -0.22036417166E+03  0.22036417166E+03  0.00000000000E+00 0. -1.
         25    2    1    2    0    0  0.40399967145E+02 -0.66666405991E+02 -0.32088341009E+02  0.15085154130E+03  0.12509979556E+03 0.  0.
          5    1    3    3  502    0 -0.32623842816E+02  0.98813162629E+01  0.11696687132E+02  0.36280027854E+02  0.41800000000E+01 0.  1.
         -5    1    3    3    0  502  0.73023809961E+02 -0.76547722254E+02 -0.43785028141E+02  0.11457151344E+03  0.41800000000E+01 0.  1.
        -11    1    1    2    0    0 -0.26369019156E+02 -0.13950022751E+01  0.89677682042E+01  0.27887130888E+02  0.00000000000E+00 0.  1.
         11    1    1    2    0    0 -0.14030947988E+02  0.68061408266E+02 -0.10932603611E+03  0.12954306222E+03  0.00000000000E+00 0. -1.
</event>
<event>
 7    1  0.3151015E-009  0.9378662E+02  0.7561462E-02  0.1293933E+00
          1   -1    0    0  501    0  0.00000000000E+00  0.00000000000E+00  0.15642122421E+03  0.15642122421E+03  0.00000000000E+00 0. -1.
         -1   -1    0    0    0  501 -0.00000000000E+00 -0.00000000000E+00 -0.77864338967E+02  0.77864338967E+02  0.00000000000E+00 0.  1.
         25    2    1    2    0    0  0.21566683699E+01  0.13051024973E+02  0.28315081563E+02  0.12893300365E+03  0.12508794952E+03 0.  0.
          5    1    3    3  502    0  0.24207215999E+02 -0.51681999771E+02  0.14679864289E+02  0.59076130732E+02  0.41800000000E+01 0.  1.
         -5    1    3    3    0  502 -0.22050547629E+02  0.64733024744E+02  0.13635217274E+02  0.69856872914E+02  0.41800000000E+01 0.  1.
        -11    1    1    2    0    0  0.24300121863E+02 -0.23107860839E+02  0.65215793416E+02  0.73331908921E+02  0.00000000000E+00 0. -1.
         11    1    1    2    0    0 -0.26456790233E+02  0.10056835866E+02 -0.14973989734E+02  0.32020650612E+02  0.00000000000E+00 0.  1.
</event>
<event>
 7    1  0.3151015E-009  0.1736547E+03  0.7561462E-02  0.1174089E+00
          3   -1    0    0  501    0  0.00000000000E+00  0.00000000000E+00  0.35147778204E+02  0.35147778204E+02  0.00000000000E+00 0. -1.
         -3   -1    0    0    0  501 -0.00000000000E+00 -0.00000000000E+00 -0.11884051925E+04  0.11884051925E+04  0.00000000000E+00 0.  1.
         25    2    1    2    0    0  0.15820660515E+03  0.67246618273E+02 -0.65594175501E+03  0.68953482246E+03  0.12508895970E+03 0.  0.
          5    1    3    3  502    0  0.12487717080E+03  0.39474231434E+02 -0.61803136669E+03  0.63176955082E+03  0.41800000000E+01 0. -1.
         -5    1    3    3    0  502  0.33329434352E+02  0.27772386840E+02 -0.37910388321E+02  0.57765271640E+02  0.41800000000E+01 0. -1.
        -11    1    1    2    0    0 -0.38197038431E+02 -0.24078513739E+02 -0.26661365034E+03  0.27041010912E+03  0.00000000000E+00 0.  1.
         11    1    1    2    0    0 -0.12000956672E+03 -0.43168104535E+02 -0.23070200891E+03  0.26360803909E+03  0.00000000000E+00 0. -1.
</event>
<event>
 7    1  0.3151015E-009  0.1485224E+03  0.7561462E-02  0.1202301E+00
          2   -1    0    0  501    0  0.00000000000E+00  0.00000000000E+00  0.16059627514E+03  0.16059627514E+03  0.00000000000E+00 0. -1.
         -2   -1    0    0    0  501 -0.00000000000E+00 -0.00000000000E+00 -0.16812358284E+03  0.16812358284E+03  0.00000000000E+00 0.  1.
         25    2    1    2    0    0  0.55106309370E+02 -0.10996015947E+03  0.64831980445E+00  0.17542721879E+03  0.12508535793E+03 0.  0.
          5    1    3    3  502    0 -0.15054561666E+02 -0.58619216236E+02 -0.46501111946E+02  0.76437413296E+02  0.41800000000E+01 0.  1.
         -5    1    3    3    0  502  0.70160871036E+02 -0.51340943235E+02  0.47149431751E+02  0.98989805492E+02  0.41800000000E+01 0.  1.
        -11    1    1    2    0    0 -0.69057080769E+02  0.43916995714E+02  0.12293088379E+02  0.82756890582E+02  0.00000000000E+00 0. -1.
         11    1    1    2    0    0  0.13950771399E+02  0.66043163756E+02 -0.20468715884E+02  0.70535748607E+02  0.00000000000E+00 0.  1.
</event>
<event>
 7    1  0.3151015E-009  0.1120495E+03  0.7561462E-02  0.1256821E+00
         -1   -1    0    0    0  501 -0.00000000000E+00  0.00000000000E+00  0.10044972129E+03  0.10044972129E+03  0.00000000000E+00 0.  1.
          1   -1    0    0  501    0  0.00000000000E+00 -0.00000000000E+00 -0.15218840646E+03  0.15218840646E+03  0.00000000000E+00 0. -1.
         25    2    1    2    0    0 -0.36298844412E+01  0.52840962672E+02 -0.52123519817E+02  0.14549853857E+03  0.12509044732E+03 0.  0.
          5    1    3    3  502    0  0.44928016921E+02 -0.14377478883E+02  0.20202824850E+00  0.47357700735E+02  0.41800000000E+01 0.  1.
         -5    1    3    3    0  502 -0.48557901362E+02  0.67218441555E+02 -0.52325548065E+02  0.98140837831E+02  0.41800000000E+01 0.  1.
        -11    1    1    2    0    0  0.37161441756E+02 -0.46605100149E+02  0.25450428153E+02  0.64813057377E+02  0.00000000000E+00 0.  1.
         11    1    1    2    0    0 -0.33531557315E+02 -0.62358625227E+01 -0.25065593502E+02  0.42326531809E+02  0.00000000000E+00 0. -1.
</event>
<event>
 7    1  0.3151015E-009  0.1225680E+03  0.7561462E-02  0.1238920E+00
          2   -1    0    0  501    0  0.00000000000E+00  0.00000000000E+00  0.67423052695E+03  0.67423052695E+03  0.00000000000E+00 0.  1.
         -2   -1    0    0    0  501 -0.00000000000E+00 -0.00000000000E+00 -0.24010809958E+02  0.24010809958E+02  0.00000000000E+00 0. -1.
         25    2    1    2    0    0 -0.29422166634E+02 -0.58048485368E+02  0.33152730885E+03  0.36026930553E+03  0.12509326701E+03 0.  0.
          5    1    3    3  502    0  0.40151425570E+02 -0.55337569854E+02  0.12885087467E+03  0.14592602206E+03  0.41800000000E+01 0.  1.
         -5    1    3    3    0  502 -0.69573592205E+02 -0.27109155133E+01  0.20267643418E+03  0.21434328346E+03  0.41800000000E+01 0.  1.
        -11    1    1    2    0    0  0.13893862615E+02  0.79332876639E+02  0.27851496982E+03  0.28992642713E+03  0.00000000000E+00 0.  1.
         11    1    1    2    0    0  0.15528304019E+02 -0.21284391271E+02  0.40177438333E+02  0.48045604258E+02  0.00000000000E+00 0. -1.
</event>
<event>
 7    1  0.3151015E-009  0.9546707E+02  0.7561462E-02  0.1290128E+00
         -2   -1    0    0    0  501 -0.00000000000E+00  0.00000000000E+00  0.27424943028E+02  0.27424943028E+02  0.00000000000E+00 0.  1.
          2   -1    0    0  501    0  0.00000000000E+00 -0.00000000000E+00 -0.57123454661E+03  0.57123454661E+03  0.00000000000E+00 0. -1.
         25    2    1    2    0    0 -0.44198000325E+02  0.39545001273E+02 -0.35353308969E+03  0.37967050162E+03  0.12508706541E+03 0.  0.
          5    1    3    3  502    0  0.14897657924E+02  0.56579396690E+02 -0.26736030788E+03  0.27371915346E+03  0.41800000000E+01 0.  1.
         -5    1    3    3    0  502 -0.59095658250E+02 -0.17034395416E+02 -0.86172781811E+02  0.10595134816E+03  0.41800000000E+01 0.  1.
        -11    1    1    2    0    0  0.50851513274E+02 -0.30138764629E+02 -0.19698060687E+03  0.20565889482E+03  0.00000000000E+00 0. -1.
         11    1    1    2    0    0 -0.66535129491E+01 -0.94062366443E+01  0.67040929716E+01  0.13330093208E+02  0.00000000000E+00 0.  1.
</event>
<event>
 7    1  0.3151015E-009  0.1057453E+03  0.7561462E-02  0.1268658E+00
          2   -1    0    0  501    0  0.00000000000E+00  0.00000000000E+00  0.81826427364E+03  0.81826427364E+03  0.00000000000E+00 0. -1.
         -2   -1    0    0    0  501 -0.00000000000E+00 -0.00000000000E+00 -0.16346746942E+02  0.16346746942E+02  0.00000000000E+00 0.  1.
         25    2    1    2    0    0 -0.32226469092E+02 -0.28169440833E+02  0.45777342270E+03  0.47648273631E+03  0.12508888344E+03 0.  0.
          5    1    3    3  502    0 -0.11478992224E+02  0.40224212870E+02  0.66211489261E+02  0.78429511497E+02  0.41800000000E+01 0. -1.
         -5    1    3    3    0  502 -0.20747476868E+02 -0.68393653703E+02  0.39156193344E+03  0.39805322481E+03  0.41800000000E+01 0. -1.
        -11    1    1    2    0    0  0.24886842871E+01  0.56636957489E+02  0.17079333965E+03  0.17995639297E+03  0.00000000000E+00 0.  1.
         11    1    1    2    0    0  0.29737784805E+02 -0.28467516656E+02  0.17335076435E+03  0.17817189130E+03  0.00000000000E+00 0. -1.
</event>
<event>
 7    1  0.3151015E-009  0.1131947E+03  0.7561462E-02  0.1254766E+00
         -1   -1    0    0    0  501 -0.00000000000E+00  0.00000000000E+00  0.19848807550E+02  0.19848807550E+02  0.00000000000E+00 0.  1.
          1   -1    0    0  501    0  0.00000000000E+00 -0.00000000000E+00 -0.84872345225E+03  0.84872345225E+03  0.00000000000E+00 0. -1.
         25    2    1    2    0    0  0.47627271485E+02 -0.61150261590E+01 -0.41257084671E+03  0.43378417403E+03  0.12509298761E+03 0.  0.
          5    1    3    3  502    0 -0.17285593722E+02 -0.44019896121E+02 -0.82033186933E+02  0.94781111848E+02  0.41800000000E+01 0.  1.
         -5    1    3    3    0  502  0.64912865207E+02  0.37904869962E+02 -0.33053765978E+03  0.33900306218E+03  0.41800000000E+01 0.  1.
        -11    1    1    2    0    0  0.26894799356E+02  0.10744172782E+02 -0.31431208686E+02  0.42739774925E+02  0.00000000000E+00 0.  1.
         11    1    1    2    0    0 -0.74522070841E+02 -0.46291466231E+01 -0.38487258930E+03  0.39204831085E+03  0.00000000000E+00 0. -1.
</event>
<event>
 7    1  0.3151015E-009  0.1259393E+03  0.7561462E-02  0.1233609E+00
         -1   -1    0    0    0  501 -0.00000000000E+00  0.00000000000E+00  0.44880910993E+02  0.44880910993E+02  0.00000000000E+00 0.  1.
          1   -1    0    0  501    0  0.00000000000E+00 -0.00000000000E+00 -0.38318352956E+03  0.38318352956E+03  0.00000000000E+00 0. -1.
         25    2    1    2    0    0 -0.30275576212E+02  0.58417906950E+02 -0.13087419873E+03  0.19262710621E+03  0.12509150166E+03 0.  0.
          5    1    3    3  502    0  0.20786876395E+02  0.81869918366E+02 -0.71162664040E+02  0.11052771108E+03  0.41800000000E+01 0. -1.
         -5    1    3    3    0  502 -0.51062452608E+02 -0.23452011416E+02 -0.59711534687E+02  0.82099395128E+02  0.41800000000E+01 0. -1.
        -11    1    1    2    0    0 -0.22941952004E+02  0.93685506354E+01 -0.55192410656E+02  0.60500455344E+02  0.00000000000E+00 0.  1.
         11    1    1    2    0    0  0.53217528217E+02 -0.67786457586E+02 -0.15223600918E+03  0.17493687900E+03  0.00000000000E+00 0. -1.
</event>
<event>
 7    1  0.3151015E-009  0.2579879E+03  0.7561462E-02  0.1108358E+00
         -2   -1    0    0    0  501 -0.00000000000E+00  0.00000000000E+00  0.77313850696E+03  0.77313850696E+03  0.00000000000E+00 0.  1.
          2   -1    0    0  501    0  0.00000000000E+00 -0.00000000000E+00 -0.96880182790E+02  0.96880182790E+02  0.00000000000E+00 0. -1.
         25    2    1    2    0    0 -0.41798097385E+02  0.24168310812E+03  0.42968055872E+03  0.51032422088E+03  0.12509045598E+03 0.  0.
          5    1    3    3  502    0 -0.75015836891E+02  0.13121184990E+03  0.17878859498E+03  0.23415114656E+03  0.41800000000E+01 0. -1.
         -5    1    3    3    0  502  0.33217739506E+02  0.11047125822E+03  0.25089196374E+03  0.27617307432E+03  0.41800000000E+01 0. -1.
        -11    1    1    2    0    0  0.30836237955E+02 -0.61224099381E+02  0.12264503758E+03  0.14050291513E+03  0.00000000000E+00 0.  1.
         11    1    1    2    0    0  0.10961859430E+02 -0.18045900874E+03  0.12393272787E+03  0.21919155374E+03  0.00000000000E+00 0. -1.
</event>
<event>
 7    1  0.3151015E-009  0.1349343E+03  0.7561462E-02  0.1220313E+00
          2   -1    0    0  501    0  0.00000000000E+00  0.00000000000E+00  0.23019069373E+03  0.23019069373E+03  0.00000000000E+00 0. -1.
         -2   -1    0    0    0  501 -0.00000000000E+00 -0.00000000000E+00 -0.10018559371E+03  0.10018559371E+03  0.00000000000E+00 0.  1.
         25    2    1    2    0    0  0.10337833254E+02 -0.10438745790E+03  0.83875201650E+02  0.18353551125E+03  0.12508645920E+03 0.  0.
          5    1    3    3  502    0 -0.48150462027E+02 -0.81074999544E+02  0.73403637846E+02  0.11957085344E+03  0.41800000000E+01 0. -1.
         -5    1    3    3    0  502  0.58488295281E+02 -0.23312458358E+02  0.10471563803E+02  0.63964657804E+02  0.41800000000E+01 0. -1.
        -11    1    1    2    0    0  0.15584838088E+02  0.43272875199E+02 -0.22633884124E+02  0.51261307209E+02  0.00000000000E+00 0. -1.
         11    1    1    2    0    0 -0.25922671342E+02  0.61114582702E+02  0.68763782498E+02  0.95579468987E+02  0.00000000000E+00 0.  1.
</event>
<event>
 7    1  0.3151015E-009  0.1077255E+03  0.7561462E-02  0.1264841E+00
          1   -1    0    0  501    0  0.00000000000E+00  0.00000000000E+00  0.10883331880E+03  0.10883331880E+03  0.00000000000E+00 0. -1.
         -1   -1    0    0    0  501 -0.00000000000E+00 -0.00000000000E+00 -0.24499606441E+03  0.24499606441E+03  0.00000000000E+00 0.  1.
         25    2    1    2    0    0  0.21202317098E+02  0.35136979540E+02 -0.19686193393E+03  0.23682971387E+03  0.12509814850E+03 0.  0.
          5    1    3    3  502    0  0.46436003066E+02  0.65529137893E+02 -0.80146563467E+02  0.11353992394E+03  0.41800000000E+01 0. -1.
         -5    1    3    3    0  502 -0.25233685967E+02 -0.30392158353E+02 -0.11671537046E+03  0.12328978992E+03  0.41800000000E+01 0. -1.
        -11    1    1    2    0    0 -0.54481943413E+02 -0.15414300594E+02  0.18069326169E+02  0.59433857094E+02  0.00000000000E+00 0.  1.
         11    1    1    2    0    0  0.33279626314E+02 -0.19722678946E+02  0.42629862155E+02  0.57565812248E+02  0.00000000000E+00 0. -1.
</event>
<event>
 7    1  0.3151015E-009  0.8804491E+02  0.7561462E-02  0.1307656E+00
         -2   -1    0    0    0  501 -0.00000000000E+00  0.00000000000E+00  0.31409398614E+02  0.31409398614E+02  0.00000000000E+00 0.  1.
          2   -1    0    0  501    0  0.00000000000E+00 -0.00000000000E+00 -0.47343723829E+03  0.47343723829E+03  0.00000000000E+00 0. -1.
         25    2    1    2    0    0  0.39879156492E+02 -0.87448372073E+01 -0.17453484847E+03  0.21855961175E+03  0.12505627236E+03 0.  0.
          5    1    3    3  502    0 -0.39234579137E+01  0.21647440870E+02  0.11370804797E+02  0.25115191019E+02  0.41800000000E+01 0. -1.
         -5    1    3    3    0  502  0.43802614406E+02 -0.30392278077E+02 -0.18590565327E+03  0.19344442073E+03  0.41800000000E+01 0. -1.
        -11    1    1    2    0    0 -0.11296701911E+02 -0.41174303627E+02 -0.88166941952E+02  0.97960953478E+02  0.00000000000E+00 0.  1.
         11    1    1    2    0    0 -0.28582454581E+02  0.49919140834E+02 -0.17932604925E+03  0.18832607167E+03  0.00000000000E+00 0. -1.
</event>
<event>
 7    1  0.3151015E-009  0.1114970E+03  0.7561462E-02  0.1257823E+00
          1   -1    0    0  501    0  0.00000000000E+00  0.00000000000E+00  0.65248652606E+03  0.65248652606E+03  0.00000000000E+00 0. -1.
         -1   -1    0    0    0  501 -0.00000000000E+00 -0.00000000000E+00 -0.25458047802E+02  0.25458047802E+02  0.00000000000E+00 0.  1.
         25    2    1    2    0    0 -0.53978361703E+02  0.70798985198E+01  0.46321471725E+03  0.48288606278E+03  0.12508911566E+03 0.  0.
          5    1    3    3  502    0  0.40167247579E+02 -0.33343091816E+01  0.11224401749E+03  0.11933447640E+03  0.41800000000E+01 0. -1.
         -5    1    3    3    0  502 -0.94145609282E+02  0.10414207701E+02  0.35097069975E+03  0.36355158637E+03  0.41800000000E+01 0. -1.
        -11    1    1    2    0    0 -0.73789366774E+01 -0.23096833575E+02  0.59963432121E+01  0.24977360941E+02  0.00000000000E+00 0.  1.
         11    1    1    2    0    0  0.61357298380E+02  0.16016935055E+02  0.15781741780E+03  0.17008115015E+03  0.00000000000E+00 0. -1.
</event>
<event>
 7    1  0.3151015E-009  0.4026611E+03  0.7561462E-02  0.1042862E+00
          1   -1    0    0  501    0  0.00000000000E+00  0.00000000000E+00  0.11660349703E+04  0.11660349703E+04  0.00000000000E+00 0. -1.
         -1   -1    0    0    0  501 -0.00000000000E+00 -0.00000000000E+00 -0.15503526476E+03  0.15503526476E+03  0.00000000000E+00 0.  1.
         25    2    1    2    0    0  0.27615625240E+03 -0.28175119886E+03  0.71173681379E+03  0.82332362922E+03  0.12508594054E+03 0.  0.
          5    1    3    3  502    0  0.38756349292E+02 -0.11280435915E+03  0.25489611969E+03  0.28145405005E+03  0.41800000000E+01 0.  1.
         -5    1    3    3    0  502  0.23739990310E+03 -0.16894683971E+03  0.45684069410E+03  0.54186957917E+03  0.41800000000E+01 0.  1.
        -11    1    1    2    0    0 -0.15514841002E+02  0.17813872625E+02  0.35295086380E+02  0.42471019198E+02  0.00000000000E+00 0. -1.
         11    1    1    2    0    0 -0.26064141139E+03  0.26393732624E+03  0.26396780533E+03  0.45527558661E+03  0.00000000000E+00 0.  1.
</event>
<event>
 7    1  0.3151015E-009  0.1304655E+03  0.7561462E-02  0.1226767E+00
          2   -1    0    0  501    0  0.00000000000E+00  0.00000000000E+00  0.10788849690E+04  0.10788849690E+04  0.00000000000E+00 0. -1.
         -2   -1    0    0    0  501 -0.00000000000E+00 -0.00000000000E+00 -0.16899358834E+02  0.16899358834E+02  0.00000000000E+00 0.  1.
         25    2    1    2    0    0  0.18106225157E+02  0.19891169153E+01  0.56709538380E+03  0.58101343401E+03  0.12509054397E+03 0.  0.
          5    1    3    3  502    0  0.82225421603E+01  0.62028679659E+02  0.34712575308E+03  0.35274484851E+03  0.41800000000E+01 0.  1.
         -5    1    3    3    0  502  0.98836829967E+01 -0.60039562744E+02  0.21996963072E+03  0.22826858549E+03  0.41800000000E+01 0.  1.
        -11    1    1    2    0    0  0.59554155261E+02 -0.97109710405E+00  0.15334637356E+03  0.16450760080E+03  0.00000000000E+00 0.  1.
         11    1    1    2    0    0 -0.77660380418E+02 -0.10180198113E+01  0.34154385278E+03  0.35026329300E+03  0.00000000000E+00 0. -1.
</event>
<event>
 7    1  0.3151015E-009  0.1703117E+03  0.7561462E-02  0.1177523E+00
         -2   -1    0    0    0  501 -0.00000000000E+00  0.00000000000E+00  0.21314935864E+02  0.21314935864E+02  0.00000000000E+00 0.  1.
          2   -1    0    0  501    0  0.00000000000E+00 -0.00000000000E+00 -0.17483306479E+04  0.17483306479E+04  0.00000000000E+00 0. -1.
         25    2    1    2    0    0  0.13340299537E+03  0.86785174977E+02 -0.94343368656E+03  0.96490547054E+03  0.12508964938E+03 0.  0.
          5    1    3    3  502    0  0.68049611052E+01 -0.16098556321E+02 -0.18896729493E+02  0.26077380942E+02  0.41800000000E+01 0.  1.
         -5    1    3    3    0  502  0.12659803426E+03  0.10288373130E+03 -0.92453695707E+03  0.93882808960E+03  0.41800000000E+01 0.  1.
        -11    1    1    2    0    0 -0.90033591200E+01 -0.91108800568E+01 -0.73351814868E+01  0.14760538550E+02  0.00000000000E+00 0.  1.
         11    1    1    2    0    0 -0.12439963625E+03 -0.77674294921E+02 -0.77624684400E+03  0.78997957468E+03  0.00000000000E+00 0. -1.
</event>
<event>
 7    1  0.3151015E-009  0.8446813E+02  0.7561462E-02  0.1316829E+00
          2   -1    0    0  501    0  0.00000000000E+00  0.00000000000E+00  0.73056808960E+03  0.73056808960E+03  0.00000000000E+00 0. -1.
         -2   -1    0    0    0  501 -0.00000000000E+00 -0.00000000000E+00 -0.24931374200E+02  0.24931374200E+02  0.00000000000E+00 0.  1.
         25    2    1    2    0    0  0.18997656900E+02 -0.57601250081E+02  0.53342367874E+03  0.55124189241E+03  0.12509191794E+03 0.  0.
          5    1    3    3  502    0  0.29257926585E+02 -0.58802950949E+02  0.53581710270E+03  0.53984373040E+03  0.41800000000E+01 0. -1.
         -5    1    3    3    0  502 -0.10260269685E+02  0.12017008678E+01 -0.23934239616E+01  0.11398162012E+02  0.41800000000E+01 0. -1.
        -11    1    1    2    0    0 -0.10340283285E+00 -0.15995753214E+02 -0.33476862248E-01  0.15996122459E+02  0.00000000000E+00 0. -1.
         11    1    1    2    0    0 -0.18894254067E+02  0.73597003295E+02  0.17224651352E+03  0.18826144892E+03  0.00000000000E+00 0.  1.
</event>
<event>
 7    1  0.3151015E-009  0.1022906E+03  0.7561462E-02  0.1275551E+00
         -1   -1    0    0    0  501 -0.00000000000E+00  0.00000000000E+00  0.36754391824E+02  0.36754391824E+02  0.00000000000E+00 0.  1.
          1   -1    0    0  501    0  0.00000000000E+00 -0.00000000000E+00 -0.38660724859E+03  0.38660724859E+03  0.00000000000E+00 0. -1.
         25    2    1    2    0    0 -0.39245125878E+02  0.30414238913E+02 -0.17796102046E+03  0.22311940779E+03  0.12508772719E+03 0.  0.
          5    1    3    3  502    0 -0.16834170743E+02  0.61212297542E+02 -0.30117112046E+02  0.70390677742E+02  0.41800000000E+01 0.  1.
         -5    1    3    3    0  502 -0.22410955135E+02 -0.30798058629E+02 -0.14784390842E+03  0.15272873004E+03  0.41800000000E+01 0.  1.
        -11    1    1    2    0    0  0.64979844091E+01 -0.58888470428E+02 -0.95479193064E+02  0.11236704169E+03  0.00000000000E+00 0.  1.
         11    1    1    2    0    0  0.32747141469E+02  0.28474231515E+02 -0.76412643240E+02  0.87875190934E+02  0.00000000000E+00 0. -1.
</event>
<event>
 7    1  0.3151015E-009  0.1063091E+03  0.7561462E-02  0.1267562E+00
         -1   -1    0    0    0  501 -0.00000000000E+00  0.00000000000E+00  0.76496594286E+02  0.76496594286E+02  0.00000000000E+00 0.  1.
          1   -1    0    0  501    0  0.00000000000E+00 -0.00000000000E+00 -0.16743627594E+03  0.16743627594E+03  0.00000000000E+00 0. -1.
         25    2    1    2    0    0 -0.14504798231E+02 -0.12147450879E+02 -0.25613021206E+02  0.12908978988E+03  0.12510074844E+03 0.  0.
          5    1    3    3  502    0  0.40562881896E+02  0.33591860892E+02  0.33053452029E+00  0.52833153975E+02  0.41800000000E+01 0. -1.
         -5    1    3    3    0  502 -0.55067680127E+02 -0.45739311771E+02 -0.25943555726E+02  0.76256635905E+02  0.41800000000E+01 0. -1.
        -11    1    1    2    0    0  0.38240660428E+02 -0.23770282685E+02 -0.12567178420E+02  0.46747282513E+02  0.00000000000E+00 0.  1.
         11    1    1    2    0    0 -0.23735862198E+02  0.35917733564E+02 -0.52759482032E+02  0.68095797836E+02  0.00000000000E+00 0. -1.
</event>
<event>
 7    1  0.3151015E-009  0.1069613E+03  0.7561462E-02  0.1266303E+00
         -4   -1    0    0    0  501 -0.00000000000E+00  0.00000000000E+00  0.31205947936E+02  0.31205947936E+02  0.00000000000E+00 0.  1.
          4   -1    0    0  501    0  0.00000000000E+00 -0.00000000000E+00 -0.68917086320E+03  0.68917086320E+03  0.00000000000E+00 0. -1.
         25    2    1    2    0    0  0.33749407450E+02  0.54413528664E+02 -0.53620529233E+03  0.55431373458E+03  0.12509095176E+03 0.  0.
          5    1    3    3  502    0 -0.35459394093E+02 -0.17712607162E+02 -0.17730736228E+03  0.18173188548E+03  0.41800000000E+01 0. -1.
         -5    1    3    3    0  502  0.69208801543E+02  0.72126135826E+02 -0.35889793005E+03  0.37258184910E+03  0.41800000000E+01 0. -1.
        -11    1    1    2    0    0  0.13026798083E+01 -0.32825553856E+02  0.45952512357E+01  0.33171226907E+02  0.00000000000E+00 0.  1.
         11    1    1    2    0    0 -0.35052087258E+02 -0.21587974809E+02 -0.12635487416E+03  0.13289184964E+03  0.00000000000E+00 0. -1.
</event>
<event>
 7    1  0.3151015E-009  0.2244369E+03  0.7561462E-02  0.1130618E+00
         -3   -1    0    0    0  501 -0.00000000000E+00  0.00000000000E+00  0.90201261528E+03  0.90201261528E+03  0.00000000000E+00 0.  1.
          3   -1    0    0  501    0  0.00000000000E+00 -0.00000000000E+00 -0.74646534135E+02  0.74646534135E+02  0.00000000000E+00 0. -1.
         25    2    1    2    0    0 -0.75301120533E+02 -0.20223734493E+03  0.24771528822E+03  0.35154016163E+03  0.12508964301E+03 0.  0.
          5    1    3    3  502    0  0.15659824419E+02 -0.39637568248E+02  0.16323440044E+01  0.42854449762E+02  0.41800000000E+01 0.  1.
         -5    1    3    3    0  502 -0.90960944952E+02 -0.16259977668E+03  0.24608294421E+03  0.30868571187E+03  0.41800000000E+01 0.  1.
        -11    1    1    2    0    0 -0.10628915017E+01  0.43772933225E+02  0.47283713931E+02  0.64443378439E+02  0.00000000000E+00 0.  1.
         11    1    1    2    0    0  0.76364012035E+02  0.15846441170E+03  0.53236707900E+03  0.56067560934E+03  0.00000000000E+00 0. -1.
</event>
<event>
 7    1  0.8847237E-009  0.1472906E+03  0.7561462E-02  0.1203842E+00
         -2   -1    0    0    0  501 -0.00000000000E+00  0.00000000000E+00  0.14870552988E+02  0.14870552988E+02  0.00000000000E+00 0. -1.
          2   -1    0    0  501    0  0.00000000000E+00 -0.00000000000E+00 -0.16148561685E+04  0.16148561685E+04  0.00000000000E+00 0.  1.
         25    2    1    2    0    0 -0.96185079426E+02 -0.48305035537E+02 -0.99071959142E+03  0.10043708938E+04  0.12510250778E+03 0.  0.
          5    1    3    3  502    0 -0.11975573235E+03 -0.13262709425E+02 -0.65773619610E+03  0.66869403388E+03  0.41800000000E+01 0. -1.
         -5    1    3    3    0  502  0.23570652928E+02 -0.35042326112E+02 -0.33298339532E+03  0.33567685988E+03  0.41800000000E+01 0. -1.
        -11    1    1    2    0    0  0.70084193748E+02  0.68941355331E+02 -0.53527083156E+03  0.54422382143E+03  0.00000000000E+00 0.  1.
         11    1    1    2    0    0  0.26100885678E+02 -0.20636319794E+02 -0.73995192501E+02  0.81132006268E+02  0.00000000000E+00 0. -1.
</event>
<event>
 7    1  0.3151015E-009  0.1542981E+03  0.7561462E-02  0.1195289E+00
         -2   -1    0    0    0  501 -0.00000000000E+00  0.00000000000E+00  0.23485949428E+02  0.23485949428E+02  0.00000000000E+00 0.  1.
          2   -1    0    0  501    0  0.00000000000E+00 -0.00000000000E+00 -0.15710469199E+04  0.15710469199E+04  0.00000000000E+00 0. -1.
         25    2    1    2    0    0  0.10134918522E+03 -0.75323125064E+02 -0.12253143491E+04  0.12381391439E+04  0.12509218579E+03 0.  0.
          5    1    3    3  502    0  0.10729307934E+03 -0.16724957635E+02 -0.57719172017E+03  0.58733234485E+03  0.41800000000E+01 0. -1.
         -5    1    3    3    0  502 -0.59438941208E+01 -0.58598167429E+02 -0.64812262897E+03  0.65080679904E+03  0.41800000000E+01 0. -1.
        -11    1    1    2    0    0 -0.99745033228E+02  0.43169024238E+02 -0.17767723316E+03  0.20828306578E+03  0.00000000000E+00 0.  1.
         11    1    1    2    0    0 -0.16041519936E+01  0.32154100825E+02 -0.14456938820E+03  0.14811065967E+03  0.00000000000E+00 0. -1.
</event>
<event>
 7    1  0.3151015E-009  0.1396021E+03  0.7561462E-02  0.1213865E+00
          1   -1    0    0  501    0  0.00000000000E+00  0.00000000000E+00  0.45348491603E+03  0.45348491603E+03  0.00000000000E+00 0. -1.
         -1   -1    0    0    0  501 -0.00000000000E+00 -0.00000000000E+00 -0.67530201076E+02  0.67530201076E+02  0.00000000000E+00 0.  1.
         25    2    1    2    0    0 -0.83288608329E+02  0.10351212052E+03  0.21207971878E+03  0.27978063095E+03  0.12509053907E+03 0.  0.
          5    1    3    3  502    0 -0.89101064640E+02  0.83118760525E+02  0.79730617448E+02  0.14567831627E+03  0.41800000000E+01 0. -1.
         -5    1    3    3    0  502  0.58124563112E+01  0.20393359996E+02  0.13234910133E+03  0.13410231468E+03  0.41800000000E+01 0. -1.
        -11    1    1    2    0    0  0.20229361108E+02 -0.92166701424E+01 -0.10634701441E+02  0.24642867814E+02  0.00000000000E+00 0.  1.
         11    1    1    2    0    0  0.63059247221E+02 -0.94295450379E+02  0.18450969761E+03  0.21659161834E+03  0.00000000000E+00 0. -1.
</event>
<event>
 7    1  0.3151015E-009  0.3110420E+03  0.7561462E-02  0.1079848E+00
          1   -1    0    0  501    0  0.00000000000E+00  0.00000000000E+00  0.24028167627E+03  0.24028167627E+03  0.00000000000E+00 0. -1.
         -1   -1    0    0    0  501 -0.00000000000E+00 -0.00000000000E+00 -0.44002100411E+03  0.44002100411E+03  0.00000000000E+00 0.  1.
         25    2    1    2    0    0 -0.11983303946E+03 -0.28110851337E+03 -0.11582325904E+03  0.34992004232E+03  0.12508818909E+03 0.  0.
          5    1    3    3  502    0 -0.35667912494E+02 -0.66013225498E+02 -0.90331979413E+02  0.11750440344E+03  0.41800000000E+01 0.  1.
         -5    1    3    3    0  502 -0.84165126961E+02 -0.21509528787E+03 -0.25491279625E+02  0.23241563888E+03  0.41800000000E+01 0.  1.
        -11    1    1    2    0    0  0.10737306676E+03  0.15136699893E+03 -0.24686218585E+02  0.18721739561E+03  0.00000000000E+00 0. -1.
         11    1    1    2    0    0  0.12459972696E+02  0.12974151444E+03 -0.59229850212E+02  0.14316524245E+03  0.00000000000E+00 0.  1.
</event>
<event>
 7    1  0.3151015E-009  0.8947060E+02  0.7561462E-02  0.1304139E+00
          1   -1    0    0  501    0  0.00000000000E+00  0.00000000000E+00  0.13871255273E+04  0.13871255273E+04  0.00000000000E+00 0. -1.
         -1   -1    0    0    0  501 -0.00000000000E+00 -0.00000000000E+00 -0.21268708667E+02  0.21268708667E+02  0.00000000000E+00 0.  1.
         25    2    1    2    0    0 -0.27331368863E+02 -0.56107245203E+02  0.12057754972E+04  0.12138518135E+04  0.12508656503E+03 0.  0.
          5    1    3    3  502    0 -0.20315854328E+02  0.99087367146E+00  0.99808066655E+03  0.99829665185E+03  0.41800000000E+01 0.  1.
         -5    1    3    3    0  502 -0.70155145352E+01 -0.57098118875E+02  0.20769483065E+03  0.21555516162E+03  0.41800000000E+01 0.  1.
        -11    1    1    2    0    0  0.38903268872E+02 -0.41634719745E+01  0.25702767734E+02  0.46812723666E+02  0.00000000000E+00 0.  1.
         11    1    1    2    0    0 -0.11571900009E+02  0.60270717178E+02  0.13437855366E+03  0.14772969879E+03  0.00000000000E+00 0. -1.
</event>
<event>
 7    1  0.3151015E-009  0.1136810E+03  0.7561462E-02  0.1253901E+00
          1   -1    0    0  501    0  0.00000000000E+00  0.00000000000E+00  0.26343830379E+02  0.26343830379E+02  0.00000000000E+00 0. -1.
         -1   -1    0    0    0  501 -0.00000000000E+00 -0.00000000000E+00 -0.90987805894E+03  0.90987805894E+03  0.00000000000E+00 0.  1.
         25    2    1    2    0    0 -0.83466976328E+02  0.33347380126E+02 -0.66452457998E+03  0.68214318924E+03  0.12509048457E+03 0.  0.
          5    1    3    3  502    0  0.11009138729E+02  0.16998477456E+02 -0.40358590354E+03  0.40411533417E+03  0.41800000000E+01 0. -1.
         -5    1    3    3    0  502 -0.94476115057E+02  0.16348902670E+02 -0.26093867644E+03  0.27802785508E+03  0.41800000000E+01 0. -1.
        -11    1    1    2    0    0  0.37957563944E+02  0.18076399680E+02 -0.26521323618E+02  0.49708283942E+02  0.00000000000E+00 0. -1.
         11    1    1    2    0    0  0.45509412384E+02 -0.51423779806E+02 -0.19248832496E+03  0.20437041613E+03  0.00000000000E+00 0.  1.
</event>
<event>
 7    1  0.3151015E-009  0.2315805E+03  0.7561462E-02  0.1125532E+00
          1   -1    0    0  501    0  0.00000000000E+00  0.00000000000E+00  0.27861420038E+03  0.27861420038E+03  0.00000000000E+00 0. -1.
         -1   -1    0    0    0  501 -0.00000000000E+00 -0.00000000000E+00 -0.19628595613E+03  0.19628595613E+03  0.00000000000E+00 0.  1.
         25    2    1    2    0    0  0.12171083374E+03  0.16252041720E+03  0.68415948284E+02  0.24810278264E+03  0.12509130953E+03 0.  0.
          5    1    3    3  502    0  0.73762029893E+02  0.17364347553E+03  0.59817284018E+02  0.19796078782E+03  0.41800000000E+01 0.  1.
         -5    1    3    3    0  502  0.47948803847E+02 -0.11123058336E+02  0.85986642654E+01  0.50141994817E+02  0.41800000000E+01 0.  1.
        -11    1    1    2    0    0 -0.64542373595E+02 -0.14183014780E+02  0.15250881603E+02  0.67819357762E+02  0.00000000000E+00 0. -1.
         11    1    1    2    0    0 -0.57168460144E+02 -0.14833740242E+03 -0.13385856373E+01  0.15897801610E+03  0.00000000000E+00 0.  1.
</event>
<event>
 7    1  0.3151015E-009  0.9519094E+02  0.7561462E-02  0.1290747E+00
          2   -1    0    0  501    0  0.00000000000E+00  0.00000000000E+00  0.32594286881E+02  0.32594286881E+02  0.00000000000E+00 0. -1.
         -2   -1    0    0    0  501 -0.00000000000E+00 -0.00000000000E+00 -0.45578472811E+03  0.45578472811E+03  0.00000000000E+00 0.  1.
         25    2    1    2    0    0 -0.17697662012E+02  0.47826083653E+02 -0.27062750794E+03  0.30246732564E+03  0.12508674392E+03 0.  0.
          5    1    3    3  502    0 -0.58614796119E+02 -0.10691247090E+02 -0.88219076849E+02  0.10653673080E+03  0.41800000000E+01 0.  1.
         -5    1    3    3    0  502  0.40917134108E+02  0.58517330743E+02 -0.18240843109E+03  0.19593059484E+03  0.41800000000E+01 0.  1.
        -11    1    1    2    0    0 -0.37286730924E+01 -0.32671515378E+02 -0.15601390617E+03  0.15944174434E+03  0.00000000000E+00 0.  1.
         11    1    1    2    0    0  0.21426335104E+02 -0.15154568274E+02  0.34509728771E+01  0.26469945020E+02  0.00000000000E+00 0. -1.
</event>
<event>
 7    1  0.3151015E-009  0.1002713E+03  0.7561462E-02  0.1279727E+00
         -1   -1    0    0    0  501 -0.00000000000E+00  0.00000000000E+00  0.10594021160E+03  0.10594021160E+03  0.00000000000E+00 0.  1.
          1   -1    0    0  501    0  0.00000000000E+00 -0.00000000000E+00 -0.15692119673E+03  0.15692119673E+03  0.00000000000E+00 0. -1.
         25    2    1    2    0    0  0.14408659279E+02  0.40548294734E+02  0.29679634662E+02  0.13557275862E+03  0.12508924214E+03 0.  0.
          5    1    3    3  502    0 -0.41898910909E+02  0.50109529921E+02 -0.95684675647E+01  0.66147650720E+02  0.41800000000E+01 0.  1.
         -5    1    3    3    0  502  0.56307570188E+02 -0.95612351871E+01  0.39248102227E+02  0.69425107902E+02  0.41800000000E+01 0.  1.
        -11    1    1    2    0    0  0.84626013868E+01  0.15294353094E+02  0.86497373773E+01  0.19502584841E+02  0.00000000000E+00 0.  1.
         11    1    1    2    0    0 -0.22871260666E+02 -0.55842647828E+02 -0.89310357173E+02  0.10778606487E+03  0.00000000000E+00 0. -1.
</event>
<event>
 7    1  0.3151015E-009  0.8443171E+02  0.7561462E-02  0.1316925E+00
         -1   -1    0    0    0  501 -0.00000000000E+00  0.00000000000E+00  0.45929971348E+03  0.45929971348E+03  0.00000000000E+00 0.  1.
          1   -1    0    0  501    0  0.00000000000E+00 -0.00000000000E+00 -0.25857632701E+02  0.25857632701E+02  0.00000000000E+00 0. -1.
         25    2    1    2    0    0  0.35838505129E+00  0.19913845918E+02  0.21685724976E+03  0.25114038553E+03  0.12509091403E+03 0.  0.
          5    1    3    3  502    0  0.37478984651E+02  0.20671435879E+02  0.14532006318E+02  0.45394208434E+02  0.41800000000E+01 0. -1.
         -5    1    3    3    0  502 -0.37120599600E+02 -0.75758996141E+00  0.20232524344E+03  0.20574617710E+03  0.41800000000E+01 0. -1.
        -11    1    1    2    0    0  0.35265893063E+02  0.15265888717E+02  0.10044290956E+03  0.10754305488E+03  0.00000000000E+00 0. -1.
         11    1    1    2    0    0 -0.35624278115E+02 -0.35179734635E+02  0.11614192146E+03  0.12647390577E+03  0.00000000000E+00 0.  1.
</event>
<event>
 7    1  0.3151015E-009  0.1131099E+03  0.7561462E-02  0.1254917E+00
          3   -1    0    0  501    0  0.00000000000E+00  0.00000000000E+00  0.11802970830E+03  0.11802970830E+03  0.00000000000E+00 0. -1.
         -3   -1    0    0    0  501 -0.00000000000E+00 -0.00000000000E+00 -0.11389650412E+03  0.11389650412E+03  0.00000000000E+00 0.  1.
         25    2    1    2    0    0  0.20708825068E+02  0.28163047330E+02 -0.12819057014E+02  0.13051312618E+03  0.12508930894E+03 0.  0.
          5    1    3    3  502    0 -0.42630268753E+02  0.44174239634E+02 -0.19891396975E+02  0.64667173550E+02  0.41800000000E+01 0. -1.
         -5    1    3    3    0  502  0.63339093821E+02 -0.16011192305E+02  0.70723399613E+01  0.65845952629E+02  0.41800000000E+01 0. -1.
        -11    1    1    2    0    0 -0.49803964891E+02  0.10436697728E+02  0.14942478922E+02  0.53034302622E+02  0.00000000000E+00 0. -1.
         11    1    1    2    0    0  0.29095139823E+02 -0.38599745057E+02  0.20097822674E+01  0.48378783620E+02  0.00000000000E+00 0.  1.
</event>
<event>
 7    1  0.3151015E-009  0.1070505E+03  0.7561462E-02  0.1266131E+00
         -1   -1    0    0    0  501 -0.00000000000E+00  0.00000000000E+00  0.30231695654E+03  0.30231695654E+03  0.00000000000E+00 0.  1.
          1   -1    0    0  501    0  0.00000000000E+00 -0.00000000000E+00 -0.60345022715E+02  0.60345022715E+02  0.00000000000E+00 0. -1.
         25    2    1    2    0    0 -0.55206466757E+02  0.15798468499E+01  0.21112033707E+03  0.25153529123E+03  0.12509179078E+03 0.  0.
          5    1    3    3  502    0  0.26246226988E+02  0.31634430416E+02  0.31384953005E+02  0.51885347584E+02  0.41800000000E+01 0.  1.
         -5    1    3    3    0  502 -0.81452693745E+02 -0.30054583566E+02  0.17973538407E+03  0.19964994364E+03  0.41800000000E+01 0.  1.
        -11    1    1    2    0    0 -0.74048476010E+01  0.18648819436E+02  0.39946870734E+02  0.44703050408E+02  0.00000000000E+00 0.  1.
         11    1    1    2    0    0  0.62611314358E+02 -0.20228666286E+02 -0.90952739831E+01  0.66423637616E+02  0.00000000000E+00 0. -1.
</event>
<event>
 7    1  0.3151015E-009  0.1173763E+03  0.7561462E-02  0.1247489E+00
         -2   -1    0    0    0  501 -0.00000000000E+00  0.00000000000E+00  0.61433533581E+02  0.61433533581E+02  0.00000000000E+00 0.  1.
          2   -1    0    0  501    0  0.00000000000E+00 -0.00000000000E+00 -0.32723999002E+03  0.32723999002E+03  0.00000000000E+00 0. -1.
         25    2    1    2    0    0 -0.31969207564E+02  0.83151345289E+02 -0.17857964831E+03  0.23552826865E+03  0.12508676223E+03 0.  0.
          5    1    3    3  502    0 -0.38461523828E+02  0.59887924521E+01  0.17951479820E+01  0.39189914602E+02  0.41800000000E+01 0.  1.
         -5    1    3    3    0  502  0.64923162646E+01  0.77162552837E+02 -0.18037479630E+03  0.19633835405E+03  0.41800000000E+01 0.  1.
        -11    1    1    2    0    0 -0.22372145014E+02 -0.49022427047E+02 -0.66752750556E+02  0.85788349634E+02  0.00000000000E+00 0. -1.
         11    1    1    2    0    0  0.54341352578E+02 -0.34128918243E+02 -0.20474057566E+02  0.67356905315E+02  0.00000000000E+00 0.  1.
</event>
<event>
 7    1  0.3151015E-009  0.1181686E+03  0.7561462E-02  0.1246149E+00
         -1   -1    0    0    0  501 -0.00000000000E+00  0.00000000000E+00  0.89619021137E+03  0.89619021137E+03  0.00000000000E+00 0.  1.
          1   -1    0    0  501    0  0.00000000000E+00 -0.00000000000E+00 -0.21166643430E+02  0.21166643430E+02  0.00000000000E+00 0. -1.
         25    2    1    2    0    0  0.43050214509E+02 -0.65914888217E+02  0.58506083256E+03  0.60344163975E+03  0.12509013281E+03 0.  0.
          5    1    3    3  502    0  0.10717529078E+02 -0.86213957523E+02  0.22319740567E+03  0.23954595843E+03  0.41800000000E+01 0. -1.
         -5    1    3    3    0  502  0.32332685431E+02  0.20299069306E+02  0.36186342689E+03  0.36389568132E+03  0.41800000000E+01 0. -1.
        -11    1    1    2    0    0 -0.65152827762E+02  0.58722056321E+02  0.26780466163E+03  0.28180224920E+03  0.00000000000E+00 0.  1.
         11    1    1    2    0    0  0.22102613253E+02  0.71928318965E+01  0.22158073741E+02  0.32112965843E+02  0.00000000000E+00 0. -1.
</event>
<event>
 7    1  0.3151015E-009  0.1255683E+03  0.7561462E-02  0.1234184E+00
          1   -1    0    0  501    0  0.00000000000E+00  0.00000000000E+00  0.34573572069E+03  0.34573572069E+03  0.00000000000E+00 0. -1.
         -1   -1    0    0    0  501 -0.00000000000E+00 -0.00000000000E+00 -0.72108253918E+02  0.72108253918E+02  0.00000000000E+00 0.  1.
         25    2    1    2    0    0 -0.10862856598E+03  0.22535290753E+02  0.11554820903E+03  0.20323778024E+03  0.12508477939E+03 0.  0.
          5    1    3    3  502    0 -0.28338444327E+01 -0.98068338270E+01  0.88618830836E+02  0.89302711284E+02  0.41800000000E+01 0.  1.
         -5    1    3    3    0  502 -0.10579472155E+03  0.32342124580E+02  0.26929378189E+02  0.11393506896E+03  0.41800000000E+01 0.  1.
        -11    1    1    2    0    0  0.42227557725E+02  0.23759413264E+02  0.11063663671E+03  0.12078137991E+03  0.00000000000E+00 0. -1.
         11    1    1    2    0    0  0.66401008254E+02 -0.46294704017E+02  0.47442621042E+02  0.93824814460E+02  0.00000000000E+00 0.  1.
</event>
<event>
 7    1  0.3151015E-009  0.1555644E+03  0.7561462E-02  0.1193798E+00
          2   -1    0    0  501    0  0.00000000000E+00  0.00000000000E+00  0.79193775950E+03  0.79193775950E+03  0.00000000000E+00 0. -1.
         -2   -1    0    0    0  501 -0.00000000000E+00 -0.00000000000E+00 -0.63539491392E+02  0.63539491392E+02  0.00000000000E+00 0.  1.
         25    2    1    2    0    0 -0.64742517884E+02 -0.88685481421E+02  0.67997174823E+03  0.70004723819E+03  0.12509136290E+03 0.  0.
          5    1    3    3  502    0 -0.95976017021E+02 -0.37020759984E+02  0.48884321438E+03  0.49956690559E+03  0.41800000000E+01 0.  1.
         -5    1    3    3    0  502  0.31233499137E+02 -0.51664721437E+02  0.19112853385E+03  0.20048033260E+03  0.41800000000E+01 0.  1.
        -11    1    1    2    0    0  0.15600024080E+02  0.96627521506E+02  0.33688427800E+02  0.10351400307E+03  0.00000000000E+00 0. -1.
         11    1    1    2    0    0  0.49142493804E+02 -0.79420400854E+01  0.14738092080E+02  0.51916009632E+02  0.00000000000E+00 0.  1.
</event>
<event>
 7    1  0.3151015E-009  0.8575867E+02  0.7561462E-02  0.1313460E+00
          3   -1    0    0  501    0  0.00000000000E+00  0.00000000000E+00  0.73178411827E+02  0.73178411827E+02  0.00000000000E+00 0. -1.
         -3   -1    0    0    0  501 -0.00000000000E+00 -0.00000000000E+00 -0.20059236285E+03  0.20059236285E+03  0.00000000000E+00 0.  1.
         25    2    1    2    0    0  0.50061634563E+02  0.99565188849E+01 -0.92387702505E+02  0.16367197021E+03  0.12509087391E+03 0.  0.
          5    1    3    3  502    0  0.58421079554E+02  0.47509994624E+02 -0.98956918333E+02  0.12441931607E+03  0.41800000000E+01 0. -1.
         -5    1    3    3    0  502 -0.83594449908E+01 -0.37553475739E+02  0.65692158279E+01  0.39252654142E+02  0.41800000000E+01 0. -1.
        -11    1    1    2    0    0 -0.12345441139E+02  0.89146606393E+01  0.29392371078E+02  0.33102757722E+02  0.00000000000E+00 0. -1.
         11    1    1    2    0    0 -0.37716193425E+02 -0.18871179524E+02 -0.64418619594E+02  0.76996046739E+02  0.00000000000E+00 0.  1.
</event>
<event>
 7    1  0.3234758E-009  0.1471536E+03  0.7561462E-02  0.1204015E+00
          2   -1    0    0  501    0  0.00000000000E+00  0.00000000000E+00  0.31322148833E+03  0.31322148833E+03  0.00000000000E+00 0.  1.
         -2   -1    0    0    0  501 -0.00000000000E+00 -0.00000000000E+00 -0.80794721739E+02  0.80794721739E+02  0.00000000000E+00 0. -1.
         25    2    1    2    0    0  0.11507787741E+03 -0.14487104180E+02  0.12729589517E+03  0.21284842209E+03  0.12508961508E+03 0.  0.
          5    1    3    3  502    0  0.11806693229E+03  0.13661472965E+02  0.47475024383E+02  0.12805384291E+03  0.41800000000E+01 0.  1.
         -5    1    3    3    0  502 -0.29890548830E+01 -0.28148577145E+02  0.79820870790E+02  0.84794579178E+02  0.41800000000E+01 0.  1.
        -11    1    1    2    0    0 -0.37166940386E+02  0.49042587789E+02  0.53342728636E+02  0.81437114223E+02  0.00000000000E+00 0.  1.
         11    1    1    2    0    0 -0.77910937022E+02 -0.34555483609E+02  0.51788142783E+02  0.99730673756E+02  0.00000000000E+00 0. -1.
</event>
<event>
 7    1  0.3151015E-009  0.9086664E+02  0.7561462E-02  0.1300766E+00
         -2   -1    0    0    0  501 -0.00000000000E+00  0.00000000000E+00  0.19445933728E+02  0.19445933728E+02  0.00000000000E+00 0. -1.
          2   -1    0    0  501    0  0.00000000000E+00 -0.00000000000E+00 -0.66888913119E+03  0.66888913119E+03  0.00000000000E+00 0.  1.
         25    2    1    2    0    0 -0.11070288644E+02 -0.69793678221E+02 -0.43581872243E+03  0.45888895338E+03  0.12508958351E+03 0.  0.
          5    1    3    3  502    0  0.35371784500E+02 -0.42066299826E+02 -0.36769203757E+03  0.37180054278E+03  0.41800000000E+01 0.  1.
         -5    1    3    3    0  502 -0.46442073144E+02 -0.27727378394E+02 -0.68126684864E+02  0.87088410602E+02  0.41800000000E+01 0.  1.
        -11    1    1    2    0    0 -0.36471644030E+01  0.23624498565E+02 -0.13491035134E+03  0.13701175730E+03  0.00000000000E+00 0.  1.
         11    1    1    2    0    0  0.14717453047E+02  0.46169179656E+02 -0.78714123688E+02  0.92434354232E+02  0.00000000000E+00 0. -1.
</event>
<event>
 7    1  0.3151015E-009  0.9982316E+02  0.7561462E-02  0.1280668E+00
         -1   -1    0    0    0  501 -0.00000000000E+00  0.00000000000E+00  0.58713477742E+02  0.58713477742E+02  0.00000000000E+00 0.  1.
          1   -1    0    0  501    0  0.00000000000E+00 -0.00000000000E+00 -0.33437266823E+03  0.33437266823E+03  0.00000000000E+00 0. -1.
         25    2    1    2    0    0 -0.13347369822E+02  0.36814100858E+02 -0.26567599953E+03  0.29625165967E+03  0.12509148183E+03 0.  0.
          5    1    3    3  502    0  0.34035482703E+02 -0.20660629846E+02 -0.17147296577E+03  0.17608442889E+03  0.41800000000E+01 0.  1.
         -5    1    3    3    0  502 -0.47382852525E+02  0.57474730704E+02 -0.94203033759E+02  0.12016723078E+03  0.41800000000E+01 0.  1.
        -11    1    1    2    0    0 -0.24342232239E+02  0.87568374344E+01 -0.24834879491E+02  0.35860810246E+02  0.00000000000E+00 0. -1.
         11    1    1    2    0    0  0.37689602061E+02 -0.45570938293E+02  0.14851688528E+02  0.60973676062E+02  0.00000000000E+00 0.  1.
</event>
<event>
 7    1  0.4071536E-009  0.1438810E+03  0.7561462E-02  0.1208200E+00
         -3   -1    0    0    0  501 -0.00000000000E+00  0.00000000000E+00  0.14745199430E+03  0.14745199430E+03  0.00000000000E+00 0.  1.
          3   -1    0    0  501    0  0.00000000000E+00 -0.00000000000E+00 -0.14835724792E+03  0.14835724792E+03  0.00000000000E+00 0. -1.
         25    2    1    2    0    0 -0.24352310480E+02 -0.94443771892E+02  0.24282248584E+02  0.16046724696E+03  0.12508976248E+03 0.  0.
          5    1    3    3  502    0  0.44614840254E+02 -0.68791555618E+02 -0.22643875914E+01  0.82130152480E+02  0.41800000000E+01 0.  1.
         -5    1    3    3    0  502 -0.68967150733E+02 -0.25652216274E+02  0.26546636176E+02  0.78337094484E+02  0.41800000000E+01 0.  1.
        -11    1    1    2    0    0 -0.33073200003E+02  0.47010723078E+02 -0.19278177495E+02  0.60625842430E+02  0.00000000000E+00 0.  1.
         11    1    1    2    0    0  0.57425510483E+02  0.47433048814E+02 -0.59093247126E+01  0.74716152822E+02  0.00000000000E+00 0. -1.
</event>
<event>
 7    1  0.3151015E-009  0.9958426E+02  0.7561462E-02  0.1281173E+00
          1   -1    0    0  501    0  0.00000000000E+00  0.00000000000E+00  0.33529485792E+03  0.33529485792E+03  0.00000000000E+00 0.  1.
         -1   -1    0    0    0  501 -0.00000000000E+00 -0.00000000000E+00 -0.36434734095E+02  0.36434734095E+02  0.00000000000E+00 0. -1.
         25    2    1    2    0    0  0.18506546959E+02  0.12566648828E+02  0.15108574011E+03  0.19742077067E+03  0.12509055474E+03 0.  0.
          5    1    3    3  502    0  0.54461585070E+02  0.34362283876E+02  0.13935296980E+03  0.15356937649E+03  0.41800000000E+01 0.  1.
         -5    1    3    3    0  502 -0.35955038111E+02 -0.21795635048E+02  0.11732770307E+02  0.43851394183E+02  0.41800000000E+01 0.  1.
        -11    1    1    2    0    0  0.18718275694E+02 -0.41310667817E+02  0.75731167386E+02  0.88273182983E+02  0.00000000000E+00 0.  1.
         11    1    1    2    0    0 -0.37224822653E+02  0.28744018989E+02  0.72043216325E+02  0.86035638358E+02  0.00000000000E+00 0. -1.
</event>
<event>
 7    1  0.3151015E-009  0.7382266E+02  0.7561462E-02  0.1347556E+00
          2   -1    0    0  501    0  0.00000000000E+00  0.00000000000E+00  0.69006431027E+03  0.69006431027E+03  0.00000000000E+00 0. -1.
         -2   -1    0    0    0  501 -0.00000000000E+00 -0.00000000000E+00 -0.16128584029E+02  0.16128584029E+02  0.00000000000E+00 0.  1.
         25    2    1    2    0    0  0.42643886646E+02  0.79917996348E+00  0.48563269283E+03  0.50329464855E+03  0.12508897297E+03 0.  0.
          5    1    3    3  502    0 -0.15889369928E+02 -0.14712808596E+02  0.10725789867E+02  0.24524554670E+02  0.41800000000E+01 0. -1.
         -5    1    3    3    0  502  0.58533256574E+02  0.15511988560E+02  0.47490690296E+03  0.47877009388E+03  0.41800000000E+01 0. -1.
        -11    1    1    2    0    0 -0.40060629955E+02 -0.20515235710E+02  0.17005262013E+03  0.17590799465E+03  0.00000000000E+00 0. -1.
         11    1    1    2    0    0 -0.25832566904E+01  0.19716055746E+02  0.18250413281E+02  0.26990251096E+02  0.00000000000E+00 0.  1.
</event>
<event>
 7    1  0.3151015E-009  0.1278625E+03  0.7561462E-02  0.1230662E+00
         -1   -1    0    0    0  501 -0.00000000000E+00  0.00000000000E+00  0.38939206939E+02  0.38939206939E+02  0.00000000000E+00 0.  1.
          1   -1    0    0  501    0  0.00000000000E+00 -0.00000000000E+00 -0.55393402092E+03  0.55393402092E+03  0.00000000000E+00 0. -1.
         25    2    1    2    0    0 -0.87739607705E+02 -0.40176042090E+02 -0.31084199627E+03  0.34868782769E+03  0.12509237151E+03 0.  0.
          5    1    3    3  502    0  0.13212135651E+02 -0.31467415163E+02 -0.18056586031E+02  0.38836470547E+02  0.41800000000E+01 0.  1.
         -5    1    3    3    0  502 -0.10095174336E+03 -0.87086269270E+01 -0.29278541024E+03  0.30985135714E+03  0.41800000000E+01 0.  1.
        -11    1    1    2    0    0  0.74719799682E+02  0.60261636369E+02 -0.19709852398E+03  0.21923125105E+03  0.00000000000E+00 0. -1.
         11    1    1    2    0    0  0.13019808023E+02 -0.20085594280E+02 -0.70542937305E+01  0.24954149125E+02  0.00000000000E+00 0.  1.
</event>
<event>
 7    1  0.4105178E-009  0.9490926E+02  0.7561462E-02  0.1291381E+00
         -1   -1    0    0    0  501 -0.00000000000E+00  0.00000000000E+00  0.41309345928E+02  0.41309345928E+02  0.00000000000E+00 0.  1.
          1   -1    0    0  501    0  0.00000000000E+00 -0.00000000000E+00 -0.32309028157E+03  0.32309028157E+03  0.00000000000E+00 0. -1.
         25    2    1    2    0    0  0.14748071901E+02 -0.42758302518E+01 -0.10138837813E+03  0.16175010294E+03  0.12509078396E+03 0.  0.
          5    1    3    3  502    0 -0.12589806149E+02 -0.61245374457E+02 -0.52381369747E+02  0.81674839503E+02  0.41800000000E+01 0.  1.
         -5    1    3    3    0  502  0.27337878050E+02  0.56969544206E+02 -0.49007008387E+02  0.80075263436E+02  0.41800000000E+01 0.  1.
        -11    1    1    2    0    0 -0.25302187387E+02  0.28073126765E+02 -0.25515410620E+02  0.45599751227E+02  0.00000000000E+00 0.  1.
         11    1    1    2    0    0  0.10554115486E+02 -0.23797296513E+02 -0.15487714688E+03  0.15704977333E+03  0.00000000000E+00 0. -1.
</event>
<event>
 7    1  0.3151015E-009  0.1059134E+03  0.7561462E-02  0.1268330E+00
          1   -1    0    0  501    0  0.00000000000E+00  0.00000000000E+00  0.13960887017E+03  0.13960887017E+03  0.00000000000E+00 0. -1.
         -1   -1    0    0    0  501 -0.00000000000E+00 -0.00000000000E+00 -0.96354884758E+02  0.96354884758E+02  0.00000000000E+00 0.  1.
         25    2    1    2    0    0  0.20942117677E+02  0.18826212456E+02  0.53750831783E+02  0.13903385513E+03  0.12509301494E+03 0.  0.
          5    1    3    3  502    0 -0.91042777835E+01 -0.44734549766E+02  0.50966198718E+02  0.68549935292E+02  0.41800000000E+01 0.  1.
         -5    1    3    3    0  502  0.30046395460E+02  0.63560762222E+02  0.27846330652E+01  0.70483919838E+02  0.41800000000E+01 0.  1.
        -11    1    1    2    0    0  0.18339867800E+02  0.28599050951E+02  0.22299682683E+01  0.34047455480E+02  0.00000000000E+00 0.  1.
         11    1    1    2    0    0 -0.39281985477E+02 -0.47425263407E+02 -0.12726814642E+02  0.62882444316E+02  0.00000000000E+00 0. -1.
</event>
<event>
 7    1  0.3151015E-009  0.2104632E+03  0.7561462E-02  0.1141200E+00
         -2   -1    0    0    0  501 -0.00000000000E+00  0.00000000000E+00  0.10759222621E+03  0.10759222621E+03  0.00000000000E+00 0. -1.
          2   -1    0    0  501    0  0.00000000000E+00 -0.00000000000E+00 -0.47811845955E+03  0.47811845955E+03  0.00000000000E+00 0.  1.
         25    2    1    2    0    0 -0.18572321567E+03 -0.69194722311E+02 -0.20770203155E+03  0.31315941178E+03  0.12509061052E+03 0.  0.
          5    1    3    3  502    0 -0.18310928734E+03 -0.79347269700E+02 -0.21959984078E+03  0.29676010984E+03  0.41800000000E+01 0. -1.
         -5    1    3    3    0  502 -0.26139283374E+01  0.10152547389E+02  0.11897809230E+02  0.16399301946E+02  0.41800000000E+01 0. -1.
        -11    1    1    2    0    0  0.71488650899E+02 -0.83380227289E+01 -0.21812414493E+02  0.75205925673E+02  0.00000000000E+00 0. -1.
         11    1    1    2    0    0  0.11423456477E+03  0.77532745040E+02 -0.14101178729E+03  0.19734534830E+03  0.00000000000E+00 0.  1.
</event>
<event>
 7    1  0.3151015E-009  0.1416078E+03  0.7561462E-02  0.1211182E+00
         -2   -1    0    0    0  501 -0.00000000000E+00  0.00000000000E+00  0.72750789822E+02  0.72750789822E+02  0.00000000000E+00 0.  1.
          2   -1    0    0  501    0  0.00000000000E+00 -0.00000000000E+00 -0.31525255222E+03  0.31525255222E+03  0.00000000000E+00 0. -1.
         25    2    1    2    0    0  0.25244297757E+02 -0.98658239848E+02 -0.16411695494E+03  0.23011055608E+03  0.12508305344E+03 0.  0.
          5    1    3    3  502    0 -0.17389959631E+02  0.22075219966E+02 -0.54688617643E+02  0.61628267314E+02  0.41800000000E+01 0. -1.
         -5    1    3    3    0  502  0.42634257388E+02 -0.12073345981E+03 -0.10942833730E+03  0.16848228876E+03  0.41800000000E+01 0. -1.
        -11    1    1    2    0    0  0.14966802144E+02 -0.47842314214E+01  0.76417284319E+01  0.17472551335E+02  0.00000000000E+00 0.  1.
         11    1    1    2    0    0 -0.40211099901E+02  0.10344247127E+03 -0.86026535886E+02  0.14042023463E+03  0.00000000000E+00 0. -1.
</event>
<event>
 7    1  0.3151015E-009  0.8684892E+02  0.7561462E-02  0.1310667E+00
          1   -1    0    0  501    0  0.00000000000E+00  0.00000000000E+00  0.94591700185E+02  0.94591700185E+02  0.00000000000E+00 0. -1.
         -1   -1    0    0    0  501 -0.00000000000E+00 -0.00000000000E+00 -0.15021786974E+03  0.15021786974E+03  0.00000000000E+00 0.  1.
         25    2    1    2    0    0 -0.26569437255E+02 -0.35036749924E+02 -0.10724821226E+02  0.13302823494E+03  0.12509188886E+03 0.  0.
          5    1    3    3  502    0  0.18902362544E+02  0.13712971098E+02  0.41794196268E+02  0.48058007946E+02  0.41800000000E+01 0. -1.
         -5    1    3    3    0  502 -0.45471799799E+02 -0.48749721022E+02 -0.52519017494E+02  0.84970226993E+02  0.41800000000E+01 0. -1.
        -11    1    1    2    0    0  0.37429781141E+02 -0.84366023738E+01 -0.53816482359E+02  0.66093710362E+02  0.00000000000E+00 0.  1.
         11    1    1    2    0    0 -0.10860343886E+02  0.43473352298E+02  0.89151340270E+01  0.45687624627E+02  0.00000000000E+00 0. -1.
</event>
<event>
 7    1  0.3151015E-009  0.1164009E+03  0.7561462E-02  0.1249155E+00
          1   -1    0    0  501    0  0.00000000000E+00  0.00000000000E+00  0.84423602009E+03  0.84423602009E+03  0.00000000000E+00 0. -1.
         -1   -1    0    0    0  501 -0.00000000000E+00 -0.00000000000E+00 -0.22138475687E+02  0.22138475687E+02  0.00000000000E+00 0.  1.
         25    2    1    2    0    0 -0.25563664126E+02 -0.76808539302E+02  0.50095933653E+03  0.52264788013E+03  0.12508995611E+03 0.  0.
          5    1    3    3  502    0 -0.52404482790E+02 -0.25630950226E+02  0.88121863070E+02  0.10576441073E+03  0.41800000000E+01 0. -1.
         -5    1    3    3    0  502  0.26840818664E+02 -0.51177589076E+02  0.41283747346E+03  0.41688346940E+03  0.41800000000E+01 0. -1.
        -11    1    1    2    0    0  0.10038075727E+02 -0.17835625330E+02  0.24255806503E+02  0.31736676643E+02  0.00000000000E+00 0.  1.
         11    1    1    2    0    0  0.15525588399E+02  0.94644164632E+02  0.29688240138E+03  0.31198993901E+03  0.00000000000E+00 0. -1.
</event>
<event>
 7    1  0.3151015E-009  0.1131486E+03  0.7561462E-02  0.1254848E+00
         -2   -1    0    0    0  501 -0.00000000000E+00  0.00000000000E+00  0.17436037613E+02  0.17436037613E+02  0.00000000000E+00 0.  1.
          2   -1    0    0  501    0  0.00000000000E+00 -0.00000000000E+00 -0.12650574007E+04  0.12650574007E+04  0.00000000000E+00 0. -1.
         25    2    1    2    0    0  0.95026843519E+02 -0.35111112087E+01 -0.80575405602E+03  0.82093104120E+03  0.12508295936E+03 0.  0.
          5    1    3    3  502    0  0.16277574403E+02  0.37277046994E+02 -0.80768492671E+02  0.90529329332E+02  0.41800000000E+01 0. -1.
         -5    1    3    3    0  502  0.78749269115E+02 -0.40788158202E+02 -0.72498556335E+03  0.73040171187E+03  0.41800000000E+01 0. -1.
        -11    1    1    2    0    0 -0.78334374863E+02  0.94570424371E+01 -0.43572001352E+03  0.44280654932E+03  0.00000000000E+00 0. -1.
         11    1    1    2    0    0 -0.16692468656E+02 -0.59459312284E+01 -0.61472935248E+01  0.18755847773E+02  0.00000000000E+00 0.  1.
</event>
<event>
 7    1  0.3151015E-009  0.4313208E+03  0.7561462E-02  0.1033444E+00
          1   -1    0    0  501    0  0.00000000000E+00  0.00000000000E+00  0.26708562047E+04  0.26708562047E+04  0.00000000000E+00 0. -1.
         -1   -1    0    0    0  501 -0.00000000000E+00 -0.00000000000E+00 -0.73971983506E+02  0.73971983506E+02  0.00000000000E+00 0.  1.
         25    2    1    2    0    0  0.41626801147E+03  0.98864902619E+02  0.14672188648E+04  0.15334370541E+04  0.12507867720E+03 0.  0.
          5    1    3    3  502    0  0.48397604377E+01  0.11463268578E+02  0.93917343869E+01  0.16140225599E+02  0.41800000000E+01 0.  1.
         -5    1    3    3    0  502  0.41142825103E+03  0.87401634041E+02  0.14578271304E+04  0.15172968285E+04  0.41800000000E+01 0.  1.
        -11    1    1    2    0    0 -0.26651628882E+03 -0.77936835084E+02  0.83886116352E+03  0.88362499633E+03  0.00000000000E+00 0.  1.
         11    1    1    2    0    0 -0.14975172264E+03 -0.20928067535E+02  0.29080419287E+03  0.32776613772E+03  0.00000000000E+00 0. -1.
</event>
<event>
 7    1  0.3151015E-009  0.1117106E+03  0.7561462E-02  0.1257434E+00
          4   -1    0    0  501    0  0.00000000000E+00  0.00000000000E+00  0.42241466705E+02  0.42241466705E+02  0.00000000000E+00 0. -1.
         -4   -1    0    0    0  501 -0.00000000000E+00 -0.00000000000E+00 -0.59261924312E+03  0.59261924312E+03  0.00000000000E+00 0.  1.
         25    2    1    2    0    0  0.98464866220E+02  0.37917030268E+02 -0.20069965063E+03  0.25896065415E+03  0.12508892666E+03 0.  0.
          5    1    3    3  502    0 -0.50509389309E+01  0.45324382701E+00 -0.12527861332E+03  0.12545086995E+03  0.41800000000E+01 0.  1.
         -5    1    3    3    0  502  0.10351580515E+03  0.37463786441E+02 -0.75421037306E+02  0.13350978421E+03  0.41800000000E+01 0.  1.
        -11    1    1    2    0    0 -0.77012195147E+02 -0.22388884617E+02 -0.33723356738E+03  0.34663903318E+03  0.00000000000E+00 0.  1.
         11    1    1    2    0    0 -0.21452671072E+02 -0.15528145650E+02 -0.12444558406E+02  0.29261022494E+02  0.00000000000E+00 0. -1.
</event>
<event>
 7    1  0.3151015E-009  0.1212493E+03  0.7561462E-02  0.1241050E+00
          2   -1    0    0  501    0  0.00000000000E+00  0.00000000000E+00  0.52908162296E+02  0.52908162296E+02  0.00000000000E+00 0. -1.
         -2   -1    0    0    0  501 -0.00000000000E+00 -0.00000000000E+00 -0.32151042370E+03  0.32151042370E+03  0.00000000000E+00 0.  1.
         25    2    1    2    0    0  0.69557400009E+01 -0.55524250544E+02 -0.20906234135E+03  0.24995599311E+03  0.12505843116E+03 0.  0.
          5    1    3    3  502    0 -0.46516193755E+02 -0.65327081526E+02 -0.14569165127E+03  0.16635778765E+03  0.41800000000E+01 0.  1.
         -5    1    3    3    0  502  0.53471933756E+02  0.98028309823E+01 -0.63370690081E+02  0.83598205460E+02  0.41800000000E+01 0.  1.
        -11    1    1    2    0    0 -0.49589701635E+02  0.28584802642E+02 -0.20919029121E+02  0.60941244078E+02  0.00000000000E+00 0.  1.
         11    1    1    2    0    0  0.42633961634E+02  0.26939447901E+02 -0.38620890931E+02  0.63521348806E+02  0.00000000000E+00 0. -1.
</event>
<event>
 7    1  0.3151015E-009  0.1689885E+03  0.7561462E-02  0.1178907E+00
         -2   -1    0    0    0  501 -0.00000000000E+00  0.00000000000E+00  0.56003913882E+02  0.56003913882E+02  0.00000000000E+00 0.  1.
          2   -1    0    0  501    0  0.00000000000E+00 -0.00000000000E+00 -0.66932535851E+03  0.66932535851E+03  0.00000000000E+00 0. -1.
         25    2    1    2    0    0  0.15528177186E+03  0.37314243162E+02 -0.33718153725E+03  0.39350197177E+03  0.12509049249E+03 0.  0.
          5    1    3    3  502    0  0.34092797888E+02 -0.16821166853E+02 -0.87426825595E+01  0.39232351707E+02  0.41800000000E+01 0. -1.
         -5    1    3    3    0  502  0.12118897397E+03  0.54135410015E+02 -0.32843885469E+03  0.35426962007E+03  0.41800000000E+01 0. -1.
        -11    1    1    2    0    0 -0.47603428787E+02  0.11088516271E+02 -0.15563499233E+03  0.16312967990E+03  0.00000000000E+00 0. -1.
         11    1    1    2    0    0 -0.10767834307E+03 -0.48402759433E+02 -0.12050491504E+03  0.16869762072E+03  0.00000000000E+00 0.  1.
</event>
<event>
 7    1  0.3151015E-009  0.1200510E+03  0.7561462E-02  0.1243013E+00
          1   -1    0    0  501    0  0.00000000000E+00  0.00000000000E+00  0.27390536461E+03  0.27390536461E+03  0.00000000000E+00 0. -1.
         -1   -1    0    0    0  501 -0.00000000000E+00 -0.00000000000E+00 -0.90637189186E+02  0.90637189186E+02  0.00000000000E+00 0.  1.
         25    2    1    2    0    0 -0.83326509926E+01 -0.58725626419E+02 -0.13236025779E+02  0.13905849372E+03  0.12507573716E+03 0.  0.
          5    1    3    3  502    0 -0.57097610903E+02 -0.63094677803E+02 -0.24491479775E+02  0.88647507125E+02  0.41800000000E+01 0. -1.
         -5    1    3    3    0  502  0.48764959911E+02  0.43690513840E+01  0.11255453996E+02  0.50410986598E+02  0.41800000000E+01 0. -1.
        -11    1    1    2    0    0 -0.15614863793E+02 -0.18908687242E+02  0.21794207976E+02  0.32807772339E+02  0.00000000000E+00 0.  1.
         11    1    1    2    0    0  0.23947514786E+02  0.77634313661E+02  0.17470999323E+03  0.19267628774E+03  0.00000000000E+00 0. -1.
</event>
<event>
 7    1  0.3151015E-009  0.9874670E+02  0.7561462E-02  0.1282954E+00
         -2   -1    0    0    0  501 -0.00000000000E+00  0.00000000000E+00  0.52465128977E+02  0.52465128977E+02  0.00000000000E+00 0.  1.
          2   -1    0    0  501    0  0.00000000000E+00 -0.00000000000E+00 -0.38921763764E+03  0.38921763764E+03  0.00000000000E+00 0. -1.
         25    2    1    2    0    0  0.49342569000E+02 -0.70369646442E+02 -0.23961603104E+03  0.28363955674E+03  0.12509588147E+03 0.  0.
          5    1    3    3  502    0  0.36069118534E+02 -0.51502222930E+02 -0.25012996637E+03  0.25794560038E+03  0.41800000000E+01 0. -1.
         -5    1    3    3    0  502  0.13273450466E+02 -0.18867423512E+02  0.10513935333E+02  0.25693956360E+02  0.41800000000E+01 0. -1.
        -11    1    1    2    0    0 -0.54389772223E+02  0.81975451576E+02 -0.52221203695E+02  0.11137897512E+03  0.00000000000E+00 0.  1.
         11    1    1    2    0    0  0.50472032235E+01 -0.11605805134E+02 -0.44915273930E+02  0.46664234756E+02  0.00000000000E+00 0. -1.
</event>
<event>
 7    1  0.3151015E-009  0.9478594E+02  0.7561462E-02  0.1291659E+00
         -2   -1    0    0    0  501 -0.00000000000E+00  0.00000000000E+00  0.75310583636E+02  0.75310583636E+02  0.00000000000E+00 0.  1.
          2   -1    0    0  501    0  0.00000000000E+00 -0.00000000000E+00 -0.27109369420E+03  0.27109369420E+03  0.00000000000E+00 0. -1.
         25    2    1    2    0    0  0.20019004113E+02  0.79901630415E+02 -0.15781456066E+03  0.21757447749E+03  0.12509271214E+03 0.  0.
          5    1    3    3  502    0  0.91639492218E+01  0.84474020491E+01 -0.14309604078E+03  0.14369859377E+03  0.41800000000E+01 0.  1.
         -5    1    3    3    0  502  0.10855054891E+02  0.71454228365E+02 -0.14718519885E+02  0.73875883721E+02  0.41800000000E+01 0.  1.
        -11    1    1    2    0    0  0.22667047186E+01 -0.81646033972E+02 -0.56894631316E+02  0.99540001438E+02  0.00000000000E+00 0. -1.
         11    1    1    2    0    0 -0.22285708831E+02  0.17444035577E+01  0.18926081416E+02  0.29289798901E+02  0.00000000000E+00 0.  1.
</event>
<event>
 7    1  0.3151015E-009  0.9785879E+02  0.7561462E-02  0.1284864E+00
          2   -1    0    0  501    0  0.00000000000E+00  0.00000000000E+00  0.12135585787E+03  0.12135585787E+03  0.00000000000E+00 0. -1.
         -2   -1    0    0    0  501 -0.00000000000E+00 -0.00000000000E+00 -0.17350652926E+03  0.17350652926E+03  0.00000000000E+00 0.  1.
         25    2    1    2    0    0 -0.51050007794E+02 -0.61961481470E+02  0.27611010347E+02  0.15117717155E+03  0.12508733279E+03 0.  0.
          5    1    3    3  502    0 -0.12802726857E+02 -0.66250456418E+01  0.69977878799E+02  0.71569385675E+02  0.41800000000E+01 0. -1.
         -5    1    3    3    0  502 -0.38247280937E+02 -0.55336435829E+02 -0.42366868452E+02  0.79607785874E+02  0.41800000000E+01 0. -1.
        -11    1    1    2    0    0 -0.20431731657E+02  0.30024659722E+01  0.11329044323E+01  0.20682212958E+02  0.00000000000E+00 0. -1.
         11    1    1    2    0    0  0.71481739450E+02  0.58959015498E+02 -0.80894586172E+02  0.12300300263E+03  0.00000000000E+00 0.  1.
</event>
<event>
 7    1  0.3151015E-009  0.9972047E+02  0.7561462E-02  0.1280885E+00
          2   -1    0    0  501    0  0.00000000000E+00  0.00000000000E+00  0.90429485240E+03  0.90429485240E+03  0.00000000000E+00 0. -1.
         -2   -1    0    0    0  501 -0.00000000000E+00 -0.00000000000E+00 -0.17335742472E+02  0.17335742472E+02  0.00000000000E+00 0.  1.
         25    2    1    2    0    0 -0.55113985557E+01  0.61953596352E+02  0.50351874808E+03  0.52253829821E+03  0.12508604964E+03 0.  0.
          5    1    3    3  502    0 -0.32605392824E+02  0.51155440747E+02  0.48256956271E+03  0.48638549116E+03  0.41800000000E+01 0.  1.
         -5    1    3    3    0  502  0.27093994268E+02  0.10798155606E+02  0.20949185369E+02  0.36152807049E+02  0.41800000000E+01 0.  1.
        -11    1    1    2    0    0 -0.40560558083E+02 -0.43674997669E+02  0.17624913159E+03  0.18605488620E+03  0.00000000000E+00 0.  1.
         11    1    1    2    0    0  0.46071956639E+02 -0.18278598683E+02  0.20719123025E+03  0.21303741045E+03  0.00000000000E+00 0. -1.
</event>
<event>
 7    1  0.3151015E-009  0.1157929E+03  0.7561462E-02  0.1250203E+00
         -2   -1    0    0    0  501 -0.00000000000E+00  0.00000000000E+00  0.25422440490E+02  0.25422440490E+02  0.00000000000E+00 0. -1.
          2   -1    0    0  501    0  0.00000000000E+00 -0.00000000000E+00 -0.95331945013E+03  0.95331945013E+03  0.00000000000E+00 0.  1.
         25    2    1    2    0    0  0.30967564837E+02 -0.83182243829E+02 -0.71169679669E+03  0.72803467737E+03  0.12507551825E+03 0.  0.
          5    1    3    3  502    0 -0.17466622598E+02 -0.31955133140E+02 -0.47037702924E+02  0.59634145717E+02  0.41800000000E+01 0. -1.
         -5    1    3    3    0  502  0.48434187435E+02 -0.51227110689E+02 -0.66465909377E+03  0.66840053165E+03  0.41800000000E+01 0. -1.
        -11    1    1    2    0    0  0.10202199211E+02 -0.14829270838E+02 -0.16232914598E+02  0.24238392247E+02  0.00000000000E+00 0. -1.
         11    1    1    2    0    0 -0.41169764048E+02  0.98011514667E+02 -0.19996729835E+03  0.22646882101E+03  0.00000000000E+00 0.  1.
</event>
<event>
 7    1  0.3151015E-009  0.1807825E+03  0.7561462E-02  0.1167048E+00
          2   -1    0    0  501    0  0.00000000000E+00  0.00000000000E+00  0.12128563387E+04  0.12128563387E+04  0.00000000000E+00 0. -1.
         -2   -1    0    0    0  501 -0.00000000000E+00 -0.00000000000E+00 -0.30664615849E+02  0.30664615849E+02  0.00000000000E+00 0.  1.
         25    2    1    2    0    0  0.13201430812E+03  0.60593540944E+02  0.40775361446E+03  0.45056585936E+03  0.12508888344E+03 0.  0.
          5    1    3    3  502    0  0.38788675227E+02  0.86043810901E+02  0.21760453182E+03  0.23722837812E+03  0.41800000000E+01 0. -1.
         -5    1    3    3    0  502  0.93225632890E+02 -0.25450269958E+02  0.19014908265E+03  0.21333748124E+03  0.41800000000E+01 0. -1.
        -11    1    1    2    0    0 -0.41406312464E+02 -0.67826087111E+02  0.36055222560E+03  0.36920559068E+03  0.00000000000E+00 0.  1.
         11    1    1    2    0    0 -0.90607995652E+02  0.72325461674E+01  0.41388588277E+03  0.42374950449E+03  0.00000000000E+00 0. -1.
</event>
<event>
 7    1  0.3151015E-009  0.1397898E+03  0.7561462E-02  0.1213612E+00
         -1   -1    0    0    0  501 -0.00000000000E+00  0.00000000000E+00  0.15212661153E+02  0.15212661153E+02  0.00000000000E+00 0.  1.
          1   -1    0    0  501    0  0.00000000000E+00 -0.00000000000E+00 -0.15358485696E+04  0.15358485696E+04  0.00000000000E+00 0. -1.
         25    2    1    2    0    0 -0.13363361902E+02  0.98719313895E+02 -0.10309206603E+04  0.10432491635E+04  0.12508927559E+03 0.  0.
          5    1    3    3  502    0  0.24388031479E+02  0.10442716705E+03 -0.52407889193E+03  0.53495417249E+03  0.41800000000E+01 0.  1.
         -5    1    3    3    0  502 -0.37751393381E+02 -0.57078531554E+01 -0.50684176835E+03  0.50829499096E+03  0.41800000000E+01 0.  1.
        -11    1    1    2    0    0  0.11973817921E+02  0.15521466739E+02 -0.88639203991E+02  0.90781037279E+02  0.00000000000E+00 0. -1.
         11    1    1    2    0    0  0.13895439814E+01 -0.11424078063E+03 -0.40107604418E+03  0.41703103003E+03  0.00000000000E+00 0.  1.
</event>
<event>
 7    1  0.3151015E-009  0.1710876E+03  0.7561462E-02  0.1176718E+00
          1   -1    0    0  501    0  0.00000000000E+00  0.00000000000E+00  0.16762156424E+03  0.16762156424E+03  0.00000000000E+00 0. -1.
         -1   -1    0    0    0  501 -0.00000000000E+00 -0.00000000000E+00 -0.26291031814E+03  0.26291031814E+03  0.00000000000E+00 0.  1.
         25    2    1    2    0    0  0.15369832750E+03  0.68507366533E+02 -0.11290021396E+03  0.23813758542E+03  0.12508643463E+03 0.  0.
          5    1    3    3  502    0  0.96178910631E+02  0.51368649402E+02 -0.13540740293E+03  0.17390157607E+03  0.41800000000E+01 0. -1.
         -5    1    3    3    0  502  0.57519416866E+02  0.17138717130E+02  0.22507188965E+02  0.64236009345E+02  0.41800000000E+01 0. -1.
        -11    1    1    2    0    0 -0.99332504096E+02 -0.22915445023E+02 -0.30807791882E+02  0.10649499533E+03  0.00000000000E+00 0.  1.
         11    1    1    2    0    0 -0.54365823401E+02 -0.45591921509E+02  0.48419251947E+02  0.85899301628E+02  0.00000000000E+00 0. -1.
</event>
<event>
 7    1  0.3151015E-009  0.1007880E+03  0.7561462E-02  0.1278648E+00
         -4   -1    0    0    0  501 -0.00000000000E+00  0.00000000000E+00  0.48127890896E+03  0.48127890896E+03  0.00000000000E+00 0.  1.
          4   -1    0    0  501    0  0.00000000000E+00 -0.00000000000E+00 -0.37454837754E+02  0.37454837754E+02  0.00000000000E+00 0. -1.
         25    2    1    2    0    0  0.59213476079E+02 -0.45587254042E+01  0.34959318994E+03  0.37601811985E+03  0.12508880957E+03 0.  0.
          5    1    3    3  502    0 -0.38411458715E+02  0.28228344794E+01  0.74108548720E+02  0.83623907756E+02  0.41800000000E+01 0. -1.
         -5    1    3    3    0  502  0.97624934794E+02 -0.73815598836E+01  0.27548464122E+03  0.29239421210E+03  0.41800000000E+01 0. -1.
        -11    1    1    2    0    0 -0.26999869258E+02 -0.10892813520E+02  0.10206742345E+03  0.10613861341E+03  0.00000000000E+00 0.  1.
         11    1    1    2    0    0 -0.32213606821E+02  0.15451538924E+02 -0.78365421860E+01  0.36577013451E+02  0.00000000000E+00 0. -1.
</event>
<event>
 7    1  0.3151015E-009  0.1263353E+03  0.7561462E-02  0.1232997E+00
         -1   -1    0    0    0  501 -0.00000000000E+00  0.00000000000E+00  0.72272397090E+02  0.72272397090E+02  0.00000000000E+00 0.  1.
          1   -1    0    0  501    0  0.00000000000E+00 -0.00000000000E+00 -0.27801522941E+03  0.27801522941E+03  0.00000000000E+00 0. -1.
         25    2    1    2    0    0 -0.29523440028E+02  0.78618910082E+02 -0.15408521985E+03  0.21550554724E+03  0.12509124423E+03 0.  0.
          5    1    3    3  502    0 -0.63671918290E+02  0.21234296163E+01 -0.88017003336E+02  0.10873402139E+03  0.41800000000E+01 0.  1.
         -5    1    3    3    0  502  0.34148478262E+02  0.76495480466E+02 -0.66068216511E+02  0.10677152585E+03  0.41800000000E+01 0.  1.
        -11    1    1    2    0    0 -0.10103202522E+02 -0.60570268857E+02  0.69172941097E+01  0.61795478220E+02  0.00000000000E+00 0.  1.
         11    1    1    2    0    0  0.39626642551E+02 -0.18048641225E+02 -0.58574906586E+02  0.72986601041E+02  0.00000000000E+00 0. -1.
</event>
<event>
 7    1  0.3151015E-009  0.1641886E+03  0.7561462E-02  0.1184047E+00
          1   -1    0    0  501    0  0.00000000000E+00  0.00000000000E+00  0.52877804472E+03  0.52877804472E+03  0.00000000000E+00 0. -1.
         -1   -1    0    0    0  501 -0.00000000000E+00 -0.00000000000E+00 -0.71367303804E+02  0.71367303804E+02  0.00000000000E+00 0.  1.
         25    2    1    2    0    0 -0.67510004518E+01  0.15761652210E+03  0.28984079326E+03  0.35290498296E+03  0.12508276265E+03 0.  0.
          5    1    3    3  502    0 -0.23884861009E+02  0.73449262833E+02  0.36810589216E+02  0.85660800104E+02  0.41800000000E+01 0. -1.
         -5    1    3    3    0  502  0.17133860557E+02  0.84167259268E+02  0.25303020405E+03  0.26724418286E+03  0.41800000000E+01 0. -1.
        -11    1    1    2    0    0  0.27750156882E+02 -0.82822503434E+02  0.36059256864E+02  0.94498191980E+02  0.00000000000E+00 0.  1.
         11    1    1    2    0    0 -0.20999156430E+02 -0.74794018668E+02  0.13151069079E+03  0.15274217358E+03  0.00000000000E+00 0. -1.
</event>
<event>
 7    1  0.4249235E-009  0.1238333E+03  0.7561462E-02  0.1236904E+00
          1   -1    0    0  501    0  0.00000000000E+00  0.00000000000E+00  0.14436312821E+04  0.14436312821E+04  0.00000000000E+00 0. -1.
         -1   -1    0    0    0  501 -0.00000000000E+00 -0.00000000000E+00 -0.20509579089E+02  0.20509579089E+02  0.00000000000E+00 0.  1.
         25    2    1    2    0    0 -0.63698054419E+02  0.80772977082E+02  0.11141517541E+04  0.11258610783E+04  0.12508924992E+03 0.  0.
          5    1    3    3  502    0  0.15662690625E+02  0.59971379103E+02  0.74952549154E+03  0.75209561962E+03  0.41800000000E+01 0.  1.
         -5    1    3    3    0  502 -0.79360745043E+02  0.20801597980E+02  0.36462626258E+03  0.37376545867E+03  0.41800000000E+01 0.  1.
        -11    1    1    2    0    0  0.17675620788E+02 -0.30386767377E+02  0.18153804607E+02  0.39564426239E+02  0.00000000000E+00 0.  1.
         11    1    1    2    0    0  0.46022433631E+02 -0.50386209705E+02  0.29081614430E+03  0.29871535668E+03  0.00000000000E+00 0. -1.
</event>
<event>
 7    1  0.3151015E-009  0.1333526E+03  0.7561462E-02  0.1222564E+00
          3   -1    0    0  501    0  0.00000000000E+00  0.00000000000E+00  0.54132857349E+03  0.54132857349E+03  0.00000000000E+00 0. -1.
         -3   -1    0    0    0  501 -0.00000000000E+00 -0.00000000000E+00 -0.82416438254E+02  0.82416438254E+02  0.00000000000E+00 0.  1.
         25    2    1    2    0    0  0.37639404259E+01 -0.12304357257E+03  0.43640053863E+03  0.47036936222E+03  0.12509204132E+03 0.  0.
          5    1    3    3  502    0 -0.83420467625E+01 -0.26941388722E+02  0.59372262070E+01  0.29123035994E+02  0.41800000000E+01 0.  1.
         -5    1    3    3    0  502  0.12105987188E+02 -0.96102183848E+02  0.43046331242E+03  0.44124632623E+03  0.41800000000E+01 0.  1.
        -11    1    1    2    0    0  0.31188303278E+02  0.37130145423E+02 -0.18581410225E+02  0.51929055128E+02  0.00000000000E+00 0. -1.
         11    1    1    2    0    0 -0.34952243704E+02  0.85913427148E+02  0.41093006831E+02  0.10144659440E+03  0.00000000000E+00 0.  1.
</event>
<event>
 7    1  0.3151015E-009  0.1202387E+03  0.7561462E-02  0.1242704E+00
          2   -1    0    0  501    0  0.00000000000E+00  0.00000000000E+00  0.18429710094E+03  0.18429710094E+03  0.00000000000E+00 0.  1.
         -2   -1    0    0    0  501 -0.00000000000E+00 -0.00000000000E+00 -0.10415734900E+03  0.10415734900E+03  0.00000000000E+00 0. -1.
         25    2    1    2    0    0  0.63439957877E+02 -0.15098938026E+02  0.10483053140E+03  0.17575540493E+03  0.12509162987E+03 0.  0.
          5    1    3    3  502    0  0.25381918504E+02 -0.68207713725E+02  0.38031032449E+02  0.82221443843E+02  0.41800000000E+01 0. -1.
         -5    1    3    3    0  502  0.38058039373E+02  0.53108775699E+02  0.66799498950E+02  0.93533961090E+02  0.41800000000E+01 0. -1.
        -11    1    1    2    0    0  0.16422627931E+02  0.15007183517E+02  0.11471929394E+02  0.25030450042E+02  0.00000000000E+00 0.  1.
         11    1    1    2    0    0 -0.79862585807E+02  0.91754508354E-01 -0.36162708855E+02  0.87668594961E+02  0.00000000000E+00 0. -1.
</event>
<event>
 7    1  0.3151015E-009  0.1156087E+03  0.7561462E-02  0.1250522E+00
          1   -1    0    0  501    0  0.00000000000E+00  0.00000000000E+00  0.80712941494E+03  0.80712941494E+03  0.00000000000E+00 0. -1.
         -1   -1    0    0    0  501 -0.00000000000E+00 -0.00000000000E+00 -0.25641782846E+02  0.25641782846E+02  0.00000000000E+00 0.  1.
         25    2    1    2    0    0 -0.17156597905E+02 -0.89263638906E+02  0.33878640712E+03  0.37240555013E+03  0.12508924027E+03 0.  0.
          5    1    3    3  502    0  0.24484364562E+02 -0.44425755507E+02  0.33301590043E+02  0.60824338548E+02  0.41800000000E+01 0. -1.
         -5    1    3    3    0  502 -0.41640962467E+02 -0.44837883399E+02  0.30548481708E+03  0.31158121158E+03  0.41800000000E+01 0. -1.
        -11    1    1    2    0    0  0.68069984661E+01 -0.13808353902E+02  0.20472069844E+02  0.25614673711E+02  0.00000000000E+00 0.  1.
         11    1    1    2    0    0  0.10349599439E+02  0.10307199281E+03  0.42222915512E+03  0.43475097395E+03  0.00000000000E+00 0. -1.
</event>
<event>
 7    1  0.3151015E-009  0.1153838E+03  0.7561462E-02  0.1250913E+00
          1   -1    0    0  501    0  0.00000000000E+00  0.00000000000E+00  0.95778501080E+03  0.95778501080E+03  0.00000000000E+00 0. -1.
         -1   -1    0    0    0  501 -0.00000000000E+00 -0.00000000000E+00 -0.18219118032E+02  0.18219118032E+02  0.00000000000E+00 0.  1.
         25    2    1    2    0    0  0.18323485316E+02  0.62571130559E+02  0.66061288320E+03  0.67550582643E+03  0.12509134098E+03 0.  0.
          5    1    3    3  502    0 -0.19919319456E+02 -0.23338099112E+02  0.33871258374E+03  0.34012517246E+03  0.41800000000E+01 0. -1.
         -5    1    3    3    0  502  0.38242804772E+02  0.85909229670E+02  0.32190029946E+03  0.33538065396E+03  0.41800000000E+01 0. -1.
        -11    1    1    2    0    0 -0.51030778795E+02 -0.47278186522E+02  0.22555553303E+03  0.23603954284E+03  0.00000000000E+00 0. -1.
         11    1    1    2    0    0  0.32707293478E+02 -0.15292944037E+02  0.53397476532E+02  0.64458759560E+02  0.00000000000E+00 0.  1.
</event>
<event>
 7    1  0.3151015E-009  0.1171541E+03  0.7561462E-02  0.1247867E+00
         -1   -1    0    0    0  501 -0.00000000000E+00  0.00000000000E+00  0.71373975878E+02  0.71373975878E+02  0.00000000000E+00 0.  1.
          1   -1    0    0  501    0  0.00000000000E+00 -0.00000000000E+00 -0.22865917026E+03  0.22865917026E+03  0.00000000000E+00 0. -1.
         25    2    1    2    0    0  0.43675866494E+02 -0.18399315485E+02 -0.13248547071E+03  0.18827744430E+03  0.12509948026E+03 0.  0.
          5    1    3    3  502    0  0.86660625779E+02 -0.21753765285E+02 -0.78067209687E+02  0.11872342647E+03  0.41800000000E+01 0. -1.
         -5    1    3    3    0  502 -0.42984759285E+02  0.33544498002E+01 -0.54418261019E+02  0.69554017832E+02  0.41800000000E+01 0. -1.
        -11    1    1    2    0    0  0.21222576033E+02  0.28843897891E+02  0.10267839988E+02  0.37253143720E+02  0.00000000000E+00 0.  1.
         11    1    1    2    0    0 -0.64898442527E+02 -0.10444582406E+02 -0.35067563661E+02  0.74502558112E+02  0.00000000000E+00 0. -1.
</event>
<event>
 6    1  0.3151015E-009  0.1814312E+03  0.7561462E-02  0.1166425E+00
          1   -1    0    0  501    0  0.00000000000E+00  0.00000000000E+00  0.61719403607E+03  0.61719403607E+03  0.00000000000E+00 0. -1.
         -1   -1    0    0    0  501 -0.00000000000E+00 -0.00000000000E+00 -0.80778551314E+02  0.80778551314E+02  0.00000000000E+00 0.  1.
          5    1    1    2  502    0 -0.11726918488E+03 -0.68624061624E+02  0.40209440867E+03  0.42445106837E+03  0.41800000000E+01 0.  1.
         -5    1    1    2    0  502 -0.12686310520E+02 -0.40643653362E+02  0.19693519475E+02  0.47097305046E+02  0.41800000000E+01 0.  1.
        -11    1    1    2    0    0  0.12047037968E+02 -0.10569399148E+02 -0.84050948952E+01  0.18096655557E+02  0.00000000000E+00 0.  1.
         11    1    1    2    0    0  0.11790845743E+03  0.11983711413E+03  0.12303265151E+03  0.20832755841E+03  0.00000000000E+00 0. -1.
</event>
<event>
 7    1  0.3151015E-009  0.1080118E+03  0.7561462E-02  0.1264297E+00
          1   -1    0    0  501    0  0.00000000000E+00  0.00000000000E+00  0.40398490914E+02  0.40398490914E+02  0.00000000000E+00 0. -1.
         -1   -1    0    0    0  501 -0.00000000000E+00 -0.00000000000E+00 -0.43380266269E+03  0.43380266269E+03  0.00000000000E+00 0.  1.
         25    2    1    2    0    0  0.59220424780E+02  0.44882210269E+02 -0.19316325664E+03  0.24182820227E+03  0.12508942476E+03 0.  0.
          5    1    3    3  502    0 -0.33536403776E+01  0.63746163407E+02 -0.15086333357E+03  0.16386591491E+03  0.41800000000E+01 0. -1.
         -5    1    3    3    0  502  0.62574065157E+02 -0.18863953138E+02 -0.42299923062E+02  0.77962287353E+02  0.41800000000E+01 0. -1.
        -11    1    1    2    0    0 -0.23859024186E+02 -0.45300486342E+02 -0.18816157668E+03  0.19500298982E+03  0.00000000000E+00 0.  1.
         11    1    1    2    0    0 -0.35361400593E+02  0.41827607303E+00 -0.12079338462E+02  0.37369961526E+02  0.00000000000E+00 0. -1.
</event>
<event>
 7    1  0.3151015E-009  0.2937879E+03  0.7561462E-02  0.1088388E+00
          1   -1    0    0  501    0  0.00000000000E+00  0.00000000000E+00  0.61092069086E+03  0.61092069086E+03  0.00000000000E+00 0. -1.
         -1   -1    0    0    0  501 -0.00000000000E+00 -0.00000000000E+00 -0.19572582353E+03  0.19572582353E+03  0.00000000000E+00 0.  1.
         25    2    1    2    0    0 -0.28604754170E+03 -0.17237841975E+02  0.24953295113E+02  0.31367418460E+03  0.12509391608E+03 0.  0.
          5    1    3    3  502    0 -0.70194610185E+02  0.30551395917E+02  0.49402606346E+02  0.91207242065E+02  0.41800000000E+01 0. -1.
         -5    1    3    3    0  502 -0.21585293151E+03 -0.47789237892E+02 -0.24449311233E+02  0.22246694254E+03  0.41800000000E+01 0. -1.
        -11    1    1    2    0    0  0.16917709184E+03 -0.11065620291E+02  0.15948212063E+03  0.23276142970E+03  0.00000000000E+00 0.  1.
         11    1    1    2    0    0  0.11687044986E+03  0.28303462266E+02  0.23075945159E+03  0.26021090009E+03  0.00000000000E+00 0. -1.
</event>
<event>
 7    1  0.3151015E-009  0.1995160E+03  0.7561462E-02  0.1150148E+00
         -1   -1    0    0    0  501 -0.00000000000E+00  0.00000000000E+00  0.39397216484E+02  0.39397216484E+02  0.00000000000E+00 0.  1.
          1   -1    0    0  501    0  0.00000000000E+00 -0.00000000000E+00 -0.10794199521E+04  0.10794199521E+04  0.00000000000E+00 0. -1.
         25    2    1    2    0    0 -0.54420690048E+02  0.16097262461E+03 -0.66062449295E+03  0.69350329865E+03  0.12509319393E+03 0.  0.
          5    1    3    3  502    0  0.10838613715E+02  0.13668120750E+03 -0.49803252366E+03  0.51657825646E+03  0.41800000000E+01 0. -1.
         -5    1    3    3    0  502 -0.65259303763E+02  0.24291417112E+02 -0.16259196930E+03  0.17692504219E+03  0.41800000000E+01 0. -1.
        -11    1    1    2    0    0  0.75094150768E+01 -0.14085675028E+03 -0.27178879430E+03  0.30621261261E+03  0.00000000000E+00 0. -1.
         11    1    1    2    0    0  0.46911274971E+02 -0.20115874333E+02 -0.10760944840E+03  0.11910125736E+03  0.00000000000E+00 0.  1.
</event>
<event>
 7    1  0.3151015E-009  0.2678140E+03  0.7561462E-02  0.1102537E+00
         -1   -1    0    0    0  501 -0.00000000000E+00  0.00000000000E+00  0.84334833191E+02  0.84334833191E+02  0.00000000000E+00 0.  1.
          1   -1    0    0  501    0  0.00000000000E+00 -0.00000000000E+00 -0.97398545685E+03  0.97398545685E+03  0.00000000000E+00 0. -1.
         25    2    1    2    0    0 -0.24363749566E+03 -0.38825051188E+02 -0.27594761589E+03  0.39071774818E+03  0.12508660256E+03 0.  0.
          5    1    3    3  502    0 -0.86359628561E+02  0.45863666265E+02 -0.10156339562E+03  0.14104629403E+03  0.41800000000E+01 0.  1.
         -5    1    3    3    0  502 -0.15727786710E+03 -0.84688717454E+02 -0.17438422026E+03  0.24967145415E+03  0.41800000000E+01 0.  1.
        -11    1    1    2    0    0  0.14092831156E+03  0.61714195277E+02 -0.41780816518E+03  0.44523375186E+03  0.00000000000E+00 0. -1.
         11    1    1    2    0    0  0.10270918409E+03 -0.22889144088E+02 -0.19589484259E+03  0.22236879000E+03  0.00000000000E+00 0.  1.
</event>
<event>
 7    1  0.3151015E-009  0.1619796E+03  0.7561462E-02  0.1186480E+00
         -2   -1    0    0    0  501 -0.00000000000E+00  0.00000000000E+00  0.10591019456E+03  0.10591019456E+03  0.00000000000E+00 0. -1.
          2   -1    0    0  501    0  0.00000000000E+00 -0.00000000000E+00 -0.27809227179E+03  0.27809227179E+03  0.00000000000E+00 0.  1.
         25    2    1    2    0    0  0.11029722706E+03  0.73450158836E+02 -0.11201837486E+03  0.21390385044E+03  0.12508531807E+03 0.  0.
          5    1    3    3  502    0 -0.39525074598E+01  0.57245090760E+02 -0.70957972195E+02  0.91351677321E+02  0.41800000000E+01 0.  1.
         -5    1    3    3    0  502  0.11424973452E+03  0.16205068075E+02 -0.41060402665E+02  0.12255217312E+03  0.41800000000E+01 0.  1.
        -11    1    1    2    0    0 -0.50861786764E+02  0.65635835511E+01 -0.46994242598E+02  0.69559045560E+02  0.00000000000E+00 0.  1.
         11    1    1    2    0    0 -0.59435440301E+02 -0.80013742387E+02 -0.13169459773E+02  0.10053957035E+03  0.00000000000E+00 0. -1.
</event>
<event>
 7    1  0.3151015E-009  0.7849707E+02  0.7561462E-02  0.1333371E+00
          1   -1    0    0  501    0  0.00000000000E+00  0.00000000000E+00  0.49464608098E+02  0.49464608098E+02  0.00000000000E+00 0. -1.
         -1   -1    0    0    0  501 -0.00000000000E+00 -0.00000000000E+00 -0.27711629349E+03  0.27711629349E+03  0.00000000000E+00 0.  1.
         25    2    1    2    0    0 -0.18875721438E+01  0.23561972241E+02 -0.18025388339E+03  0.22067613096E+03  0.12509101819E+03 0.  0.
          5    1    3    3  502    0 -0.30518986563E+02  0.34132877536E+02 -0.92234599800E+01  0.46893565483E+02  0.41800000000E+01 0. -1.
         -5    1    3    3    0  502  0.28631414419E+02 -0.10570905294E+02 -0.17103042341E+03  0.17378256547E+03  0.41800000000E+01 0. -1.
        -11    1    1    2    0    0 -0.37389290589E+02 -0.12004859715E+02 -0.51493588862E+02  0.64758516053E+02  0.00000000000E+00 0.  1.
         11    1    1    2    0    0  0.39276862732E+02 -0.11557112527E+02  0.40957868598E+01  0.41146254581E+02  0.00000000000E+00 0. -1.
</event>
<event>
 7    1  0.3151015E-009  0.1434776E+03  0.7561462E-02  0.1208725E+00
          1   -1    0    0  501    0  0.00000000000E+00  0.00000000000E+00  0.43751142666E+03  0.43751142666E+03  0.00000000000E+00 0. -1.
         -1   -1    0    0    0  501 -0.00000000000E+00 -0.00000000000E+00 -0.63032522612E+02  0.63032522612E+02  0.00000000000E+00 0.  1.
         25    2    1    2    0    0  0.12362493399E+03 -0.22472982771E+02  0.20793082844E+03  0.27325945912E+03  0.12508934137E+03 0.  0.
          5    1    3    3  502    0  0.69512724144E+02 -0.45670137791E+02  0.19611667296E+03  0.21306572253E+03  0.41800000000E+01 0. -1.
         -5    1    3    3    0  502  0.54112209842E+02  0.23197155021E+02  0.11814155479E+02  0.60193736591E+02  0.41800000000E+01 0. -1.
        -11    1    1    2    0    0 -0.10147033744E+03  0.46806740190E+02  0.88379227141E+02  0.14247100792E+03  0.00000000000E+00 0.  1.
         11    1    1    2    0    0 -0.22154596550E+02 -0.24333757419E+02  0.78168848467E+02  0.84813482237E+02  0.00000000000E+00 0. -1.
</event>
<event>
 7    1  0.3151015E-009  0.9546350E+02  0.7561462E-02  0.1290136E+00
         -3   -1    0    0    0  501 -0.00000000000E+00  0.00000000000E+00  0.20533585953E+03  0.20533585953E+03  0.00000000000E+00 0.  1.
          3   -1    0    0  501    0  0.00000000000E+00 -0.00000000000E+00 -0.68878527806E+02  0.68878527806E+02  0.00000000000E+00 0. -1.
         25    2    1    2    0    0  0.11478178943E+00  0.31183556730E+02  0.33706952208E+02  0.13325430098E+03  0.12509245668E+03 0.  0.
          5    1    3    3  502    0  0.28400130182E+02  0.71534907458E+02  0.79343773974E+01  0.77487012615E+02  0.41800000000E+01 0.  1.
         -5    1    3    3    0  502 -0.28285348393E+02 -0.40351350728E+02  0.25772574811E+02  0.55767288366E+02  0.41800000000E+01 0.  1.
        -11    1    1    2    0    0  0.22937857452E+02 -0.34161995147E+02  0.10931794919E+03  0.11680582705E+03  0.00000000000E+00 0.  1.
         11    1    1    2    0    0 -0.23052639242E+02  0.29784384168E+01 -0.65675696725E+01  0.24154259310E+02  0.00000000000E+00 0. -1.
</event>
<event>
 7    1  0.3151015E-009  0.9450766E+02  0.7561462E-02  0.1292289E+00
         -1   -1    0    0    0  501 -0.00000000000E+00  0.00000000000E+00  0.37178021290E+02  0.37178021290E+02  0.00000000000E+00 0.  1.
          1   -1    0    0  501    0  0.00000000000E+00 -0.00000000000E+00 -0.35996602787E+03  0.35996602787E+03  0.00000000000E+00 0. -1.
         25    2    1    2    0    0 -0.13038438608E+02 -0.23253315943E+02 -0.12932692302E+03  0.18187344254E+03  0.12506709599E+03 0.  0.
          5    1    3    3  502    0 -0.14115718886E+02 -0.60428672645E+02 -0.18486577527E+02  0.64885313792E+02  0.41800000000E+01 0.  1.
         -5    1    3    3    0  502  0.10772802776E+01  0.37175356702E+02 -0.11084034550E+03  0.11698812875E+03  0.41800000000E+01 0.  1.
        -11    1    1    2    0    0 -0.36493461955E+02  0.13504278316E+02 -0.51134415233E+02  0.64256258213E+02  0.00000000000E+00 0.  1.
         11    1    1    2    0    0  0.49531900563E+02  0.97490376276E+01 -0.14232666833E+03  0.15101434841E+03  0.00000000000E+00 0. -1.
</event>
<event>
 7    1  0.3151015E-009  0.9734629E+02  0.7561462E-02  0.1285977E+00
         -2   -1    0    0    0  501 -0.00000000000E+00  0.00000000000E+00  0.14070939456E+03  0.14070939456E+03  0.00000000000E+00 0.  1.
          2   -1    0    0  501    0  0.00000000000E+00 -0.00000000000E+00 -0.88327213176E+02  0.88327213176E+02  0.00000000000E+00 0. -1.
         25    2    1    2    0    0  0.12427258325E+02  0.39487231481E+01  0.56878634401E+01  0.12589754892E+03  0.12509121420E+03 0.  0.
          5    1    3    3  502    0  0.23457790839E+01  0.63836741929E+02  0.10338269808E+02  0.64845852005E+02  0.41800000000E+01 0.  1.
         -5    1    3    3    0  502  0.10081479241E+02 -0.59888018781E+02 -0.46504063676E+01  0.61051696918E+02  0.41800000000E+01 0.  1.
        -11    1    1    2    0    0 -0.38178617572E+02 -0.15968270208E+02  0.59085621149E+02  0.72136697455E+02  0.00000000000E+00 0.  1.
         11    1    1    2    0    0  0.25751359247E+02  0.12019547060E+02 -0.12391303205E+02  0.31002361357E+02  0.00000000000E+00 0. -1.
</event>
<event>
 7    1  0.3151015E-009  0.1065843E+03  0.7561462E-02  0.1267029E+00
          2   -1    0    0  501    0  0.00000000000E+00  0.00000000000E+00  0.67534571380E+03  0.67534571380E+03  0.00000000000E+00 0. -1.
         -2   -1    0    0    0  501 -0.00000000000E+00 -0.00000000000E+00 -0.19316553426E+02  0.19316553426E+02  0.00000000000E+00 0.  1.
         25    2    1    2    0    0 -0.22485078578E+02 -0.10653719701E+02  0.46147425124E+03  0.47877482586E+03  0.12509104214E+03 0.  0.
          5    1    3    3  502    0  0.21332421643E+02 -0.54498094518E+02  0.14805247246E+03  0.15925489481E+03  0.41800000000E+01 0. -1.
         -5    1    3    3    0  502 -0.43817500221E+02  0.43844374817E+02  0.31342177878E+03  0.31951993106E+03  0.41800000000E+01 0. -1.
        -11    1    1    2    0    0 -0.28150576601E+02 -0.18741359630E+02  0.88546769168E+02  0.94785145745E+02  0.00000000000E+00 0. -1.
         11    1    1    2    0    0  0.50635655180E+02  0.29395079331E+02  0.10600813997E+03  0.12110229562E+03  0.00000000000E+00 0.  1.
</event>
<event>
 7    1  0.3151015E-009  0.2687358E+03  0.7561462E-02  0.1102005E+00
         -1   -1    0    0    0  501 -0.00000000000E+00  0.00000000000E+00  0.19219690603E+04  0.19219690603E+04  0.00000000000E+00 0.  1.
          1   -1    0    0  501    0  0.00000000000E+00 -0.00000000000E+00 -0.40056412890E+02  0.40056412890E+02  0.00000000000E+00 0. -1.
         25    2    1    2    0    0  0.25027806713E+03 -0.23183598768E+02  0.81033107066E+03  0.85759036865E+03  0.12509279032E+03 0.  0.
          5    1    3    3  502    0  0.22819729149E+03  0.22886111773E+02  0.67174483477E+03  0.70982841124E+03  0.41800000000E+01 0. -1.
         -5    1    3    3    0  502  0.22080775649E+02 -0.46069710541E+02  0.13858623588E+03  0.14776195741E+03  0.41800000000E+01 0. -1.
        -11    1    1    2    0    0 -0.17584692901E+03 -0.82407130567E+01  0.86259727446E+03  0.88037725419E+03  0.00000000000E+00 0.  1.
         11    1    1    2    0    0 -0.74431138125E+02  0.31424311825E+02  0.20898430228E+03  0.22405785033E+03  0.00000000000E+00 0. -1.
</event>
<event>
 7    1  0.3598671E-009  0.1162223E+03  0.7561462E-02  0.1249463E+00
         -4   -1    0    0    0  501 -0.00000000000E+00  0.00000000000E+00  0.19071240648E+03  0.19071240648E+03  0.00000000000E+00 0.  1.
          4   -1    0    0  501    0  0.00000000000E+00 -0.00000000000E+00 -0.10991176643E+03  0.10991176643E+03  0.00000000000E+00 0. -1.
         25    2    1    2    0    0 -0.36071407424E+02  0.84982198767E+02  0.69111335013E+02  0.17013780278E+03  0.12508946705E+03 0.  0.
          5    1    3    3  502    0 -0.69002179653E+02  0.33298715479E+02 -0.12444663102E+01  0.76740643376E+02  0.41800000000E+01 0.  1.
         -5    1    3    3    0  502  0.32930772229E+02  0.51683483288E+02  0.70355801324E+02  0.93397159401E+02  0.41800000000E+01 0.  1.
        -11    1    1    2    0    0  0.28225695252E+02 -0.42046646374E+02  0.50908953456E+02  0.71807603258E+02  0.00000000000E+00 0.  1.
         11    1    1    2    0    0  0.78457121719E+01 -0.42935552393E+02 -0.39219648422E+02  0.58678766867E+02  0.00000000000E+00 0. -1.
</event>
<event>
 7    1  0.3151015E-009  0.1323938E+03  0.7561462E-02  0.1223946E+00
         -1   -1    0    0    0  501 -0.00000000000E+00  0.00000000000E+00  0.58846877767E+02  0.58846877767E+02  0.00000000000E+00 0.  1.
          1   -1    0    0  501    0  0.00000000000E+00 -0.00000000000E+00 -0.41917187488E+03  0.41917187488E+03  0.00000000000E+00 0. -1.
         25    2    1    2    0    0 -0.10415930452E+03  0.43044000075E+01 -0.25643083477E+03  0.30376170176E+03  0.12508680929E+03 0.  0.
          5    1    3    3  502    0 -0.12255385017E+03  0.32270857764E+02 -0.22132877271E+03  0.25507793414E+03  0.41800000000E+01 0. -1.
         -5    1    3    3    0  502  0.18394545657E+02 -0.27966457757E+02 -0.35102062055E+02  0.48683767622E+02  0.41800000000E+01 0. -1.
        -11    1    1    2    0    0  0.28890018405E+02 -0.16704777372E+01 -0.93928499245E+02  0.98285230985E+02  0.00000000000E+00 0. -1.
         11    1    1    2    0    0  0.75269286112E+02 -0.26339222703E+01 -0.99656631012E+01  0.75971819903E+02  0.00000000000E+00 0.  1.
</event>
<event>
 7    1  0.3151015E-009  0.1328870E+03  0.7561462E-02  0.1223234E+00
          1   -1    0    0  501    0  0.00000000000E+00  0.00000000000E+00  0.16481052409E+03  0.16481052409E+03  0.00000000000E+00 0. -1.
         -1   -1    0    0    0  501 -0.00000000000E+00 -0.00000000000E+00 -0.18950441152E+03  0.18950441152E+03  0.00000000000E+00 0.  1.
         25    2    1    2    0    0 -0.80511898672E+02  0.49297874888E+02 -0.11358112025E+03  0.19354749333E+03  0.12509002758E+03 0.  0.
          5    1    3    3  502    0 -0.93927492890E+02  0.14397333380E+02 -0.26580887745E+02  0.98760686117E+02  0.41800000000E+01 0. -1.
         -5    1    3    3    0  502  0.13415594218E+02  0.34900541508E+02 -0.87000232503E+02  0.94786807211E+02  0.41800000000E+01 0. -1.
        -11    1    1    2    0    0  0.10025156216E+03 -0.52290542644E+02  0.81900309780E+02  0.13961496090E+03  0.00000000000E+00 0.  1.
         11    1    1    2    0    0 -0.19739663486E+02  0.29926677565E+01  0.69869230451E+01  0.21152481379E+02  0.00000000000E+00 0. -1.
</event>
<event>
 7    1  0.3151015E-009  0.1096134E+03  0.7561462E-02  0.1261287E+00
          1   -1    0    0  501    0  0.00000000000E+00  0.00000000000E+00  0.15541365042E+04  0.15541365042E+04  0.00000000000E+00 0. -1.
         -1   -1    0    0    0  501 -0.00000000000E+00 -0.00000000000E+00 -0.14108155473E+02  0.14108155473E+02  0.00000000000E+00 0.  1.
         25    2    1    2    0    0  0.28753200126E+02 -0.83306341242E+02  0.10923234200E+04  0.11029871776E+04  0.12507424633E+03 0.  0.
          5    1    3    3  502    0  0.28884473417E+02 -0.84541148971E+02  0.37019330808E+03  0.38084390033E+03  0.41800000000E+01 0.  1.
         -5    1    3    3    0  502 -0.13127329091E+00  0.12348077297E+01  0.72213011191E+03  0.72214327728E+03  0.41800000000E+01 0.  1.
        -11    1    1    2    0    0 -0.48119628683E+02  0.94019918136E+01  0.20657295694E+03  0.21231175816E+03  0.00000000000E+00 0.  1.
         11    1    1    2    0    0  0.19366428557E+02  0.73904349428E+02  0.24113197178E+03  0.25294572389E+03  0.00000000000E+00 0. -1.
</event>
<event>
 7    1  0.3151015E-009  0.4766343E+02  0.7561462E-02  0.1458368E+00
         -2   -1    0    0    0  501 -0.00000000000E+00  0.00000000000E+00  0.35823277423E+02  0.35823277423E+02  0.00000000000E+00 0.  1.
          2   -1    0    0  501    0  0.00000000000E+00 -0.00000000000E+00 -0.37019953866E+03  0.37019953866E+03  0.00000000000E+00 0. -1.
         25    2    1    2    0    0 -0.18406440363E+01  0.94657780955E+00 -0.25803335686E+03  0.28676392740E+03  0.12509217732E+03 0.  0.
          5    1    3    3  502    0  0.12316419027E+02  0.11155154389E+02  0.88447741639E+01  0.19282999692E+02  0.41800000000E+01 0. -1.
         -5    1    3    3    0  502 -0.14157063064E+02 -0.10208576580E+02 -0.26687813102E+03  0.26748092771E+03  0.41800000000E+01 0. -1.
        -11    1    1    2    0    0 -0.17700484244E+02 -0.24128846676E+02  0.68622099771E+01  0.30701763959E+02  0.00000000000E+00 0.  1.
         11    1    1    2    0    0  0.19541128280E+02  0.23182268867E+02 -0.83205114356E+02  0.88557124723E+02  0.00000000000E+00 0. -1.
</event>
<event>
 7    1  0.3392223E-009  0.1162033E+03  0.7561462E-02  0.1249495E+00
         -1   -1    0    0    0  501 -0.00000000000E+00  0.00000000000E+00  0.15745878288E+03  0.15745878288E+03  0.00000000000E+00 0.  1.
          1   -1    0    0  501    0  0.00000000000E+00 -0.00000000000E+00 -0.12922049644E+03  0.12922049644E+03  0.00000000000E+00 0. -1.
         25    2    1    2    0    0 -0.42370610723E+02  0.88372335043E+01  0.96892954753E+02  0.16403632786E+03  0.12508519827E+03 0.  0.
          5    1    3    3  502    0 -0.52323921905E+02  0.60067429525E+02  0.63252019455E+02  0.10180461315E+03  0.41800000000E+01 0.  1.
         -5    1    3    3    0  502  0.99533111820E+01 -0.51230196020E+02  0.33640935299E+02  0.62231714708E+02  0.41800000000E+01 0.  1.
        -11    1    1    2    0    0  0.42992792199E+02  0.35612340687E+02 -0.48000304804E+02  0.73625051793E+02  0.00000000000E+00 0.  1.
         11    1    1    2    0    0 -0.62218147585E+00 -0.44449574191E+02 -0.20654363512E+02  0.49017899666E+02  0.00000000000E+00 0. -1.
</event>
<event>
 7    1  0.3151015E-009  0.1051702E+03  0.7561462E-02  0.1269785E+00
         -1   -1    0    0    0  501 -0.00000000000E+00  0.00000000000E+00  0.12576198728E+03  0.12576198728E+03  0.00000000000E+00 0.  1.
          1   -1    0    0  501    0  0.00000000000E+00 -0.00000000000E+00 -0.18917727403E+03  0.18917727403E+03  0.00000000000E+00 0. -1.
         25    2    1    2    0    0 -0.42175857322E+02 -0.63362871355E+02  0.45571120752E+02  0.15336594010E+03  0.12510287018E+03 0.  0.
          5    1    3    3  502    0 -0.38240266660E+02 -0.88913058937E+02  0.68427374520E+02  0.11860703195E+03  0.41800000000E+01 0.  1.
         -5    1    3    3    0  502 -0.39355906622E+01  0.25550187583E+02 -0.22856253768E+02  0.34758908149E+02  0.41800000000E+01 0.  1.
        -11    1    1    2    0    0  0.21415872178E+02  0.88013046690E+00  0.11460304658E+02  0.24305406675E+02  0.00000000000E+00 0.  1.
         11    1    1    2    0    0  0.20759985144E+02  0.62482740888E+02 -0.12044671215E+03  0.13726791454E+03  0.00000000000E+00 0. -1.
</event>
<event>
 7    1  0.3151015E-009  0.1007446E+03  0.7561462E-02  0.1278738E+00
          2   -1    0    0  501    0  0.00000000000E+00  0.00000000000E+00  0.35677461964E+03  0.35677461964E+03  0.00000000000E+00 0. -1.
         -2   -1    0    0    0  501 -0.00000000000E+00 -0.00000000000E+00 -0.60062521054E+02  0.60062521054E+02  0.00000000000E+00 0.  1.
         25    2    1    2    0    0 -0.33680151323E+02  0.12782846346E+02  0.31155892048E+02  0.13385157058E+03  0.12509116509E+03 0.  0.
          5    1    3    3  502    0  0.12459387255E+02 -0.35410768215E+02 -0.26036148537E+02  0.45874963400E+02  0.41800000000E+01 0.  1.
         -5    1    3    3    0  502 -0.46139538578E+02  0.48193614561E+02  0.57192040585E+02  0.87976607180E+02  0.41800000000E+01 0.  1.
        -11    1    1    2    0    0  0.39262840307E+02 -0.47544684601E+02  0.14981675406E+03  0.16200965237E+03  0.00000000000E+00 0. -1.
         11    1    1    2    0    0 -0.55826889840E+01  0.34761838255E+02  0.11573945248E+03  0.12097591775E+03  0.00000000000E+00 0.  1.
</event>
<event>
 7    1  0.3151015E-009  0.8938102E+02  0.7561462E-02  0.1304358E+00
         -1   -1    0    0    0  501 -0.00000000000E+00  0.00000000000E+00  0.11734729709E+02  0.11734729709E+02  0.00000000000E+00 0.  1.
          1   -1    0    0  501    0  0.00000000000E+00 -0.00000000000E+00 -0.12850020633E+04  0.12850020633E+04  0.00000000000E+00 0. -1.
         25    2    1    2    0    0  0.42159246180E+02 -0.23727905346E+02 -0.87831108823E+03  0.88849186268E+03  0.12508799629E+03 0.  0.
          5    1    3    3  502    0 -0.10270070838E+02  0.11756245217E+02 -0.12686300814E+02  0.20545030664E+02  0.41800000000E+01 0.  1.
         -5    1    3    3    0  502  0.52429317018E+02 -0.35484150563E+02 -0.86562478741E+03  0.86794683202E+03  0.41800000000E+01 0.  1.
        -11    1    1    2    0    0 -0.38736244736E+02 -0.27695225620E+02 -0.24756921081E+03  0.25210719212E+03  0.00000000000E+00 0. -1.
         11    1    1    2    0    0 -0.34230014446E+01  0.51423130966E+02 -0.14738703453E+03  0.15613773819E+03  0.00000000000E+00 0.  1.
</event>
<event>
 7    1  0.3151015E-009  0.8161786E+02  0.7561462E-02  0.1324522E+00
         -2   -1    0    0    0  501 -0.00000000000E+00  0.00000000000E+00  0.28495161601E+02  0.28495161601E+02  0.00000000000E+00 0.  1.
          2   -1    0    0  501    0  0.00000000000E+00 -0.00000000000E+00 -0.66949475526E+03  0.66949475526E+03  0.00000000000E+00 0. -1.
         25    2    1    2    0    0 -0.50005932161E+02 -0.11790277985E+02 -0.40619073196E+03  0.42810899068E+03  0.12508714269E+03 0.  0.
          5    1    3    3  502    0  0.11453883174E+01 -0.46163284551E+01  0.82730525997E+01  0.10418166927E+02  0.41800000000E+01 0. -1.
         -5    1    3    3    0  502 -0.51151320479E+02 -0.71739495299E+01 -0.41446378456E+03  0.41769082376E+03  0.41800000000E+01 0. -1.
        -11    1    1    2    0    0  0.25850654929E+02 -0.40177604520E+02 -0.28212633564E+02  0.55483772022E+02  0.00000000000E+00 0.  1.
         11    1    1    2    0    0  0.24155277233E+02  0.51967882505E+02 -0.20659622813E+03  0.21439715415E+03  0.00000000000E+00 0. -1.
</event>
<event>
 7    1  0.3151015E-009  0.8343920E+02  0.7561462E-02  0.1319565E+00
          3   -1    0    0  501    0  0.00000000000E+00  0.00000000000E+00  0.14605495108E+03  0.14605495108E+03  0.00000000000E+00 0. -1.
         -3   -1    0    0    0  501 -0.00000000000E+00 -0.00000000000E+00 -0.15244716517E+03  0.15244716517E+03  0.00000000000E+00 0.  1.
         25    2    1    2    0    0 -0.55636730085E+01 -0.26459519027E+02 -0.10826221215E+03  0.16761437139E+03  0.12507122095E+03 0.  0.
          5    1    3    3  502    0 -0.54194477784E+02  0.57982171211E+01 -0.91788762085E+02  0.10683309407E+03  0.41800000000E+01 0.  1.
         -5    1    3    3    0  502  0.48630804776E+02 -0.32257736149E+02 -0.16473450069E+02  0.60781277312E+02  0.41800000000E+01 0.  1.
        -11    1    1    2    0    0 -0.17801848259E+02 -0.78183842611E+00  0.91938924912E+02  0.93649789038E+02  0.00000000000E+00 0. -1.
         11    1    1    2    0    0  0.23365521268E+02  0.27241357454E+02  0.99310731522E+01  0.37237955824E+02  0.00000000000E+00 0.  1.
</event>
<event>
 7    1  0.3151015E-009  0.8248717E+02  0.7561462E-02  0.1322138E+00
         -1   -1    0    0    0  501 -0.00000000000E+00  0.00000000000E+00  0.72099829028E+03  0.72099829028E+03  0.00000000000E+00 0.  1.
          1   -1    0    0  501    0  0.00000000000E+00 -0.00000000000E+00 -0.23959398474E+02  0.23959398474E+02  0.00000000000E+00 0. -1.
         25    2    1    2    0    0  0.25761248792E+02  0.29900098361E+02  0.55918458215E+03  0.57436279810E+03  0.12509024383E+03 0.  0.
          5    1    3    3  502    0 -0.36461941614E+02  0.14004520747E+01  0.58979792702E+02  0.69480377081E+02  0.41800000000E+01 0.  1.
         -5    1    3    3    0  502  0.62223190405E+02  0.28499646286E+02  0.50020478945E+03  0.50488242102E+03  0.41800000000E+01 0.  1.
        -11    1    1    2    0    0 -0.31496485671E+02 -0.23996222058E+01  0.13893634033E+03  0.14248190573E+03  0.00000000000E+00 0.  1.
         11    1    1    2    0    0  0.57352368795E+01 -0.27500476155E+02 -0.10820306796E+01  0.28112984922E+02  0.00000000000E+00 0. -1.
</event>
<event>
 7    1  0.3151015E-009  0.9556695E+02  0.7561462E-02  0.1289904E+00
          2   -1    0    0  501    0  0.00000000000E+00  0.00000000000E+00  0.53240762322E+02  0.53240762322E+02  0.00000000000E+00 0. -1.
         -2   -1    0    0    0  501 -0.00000000000E+00 -0.00000000000E+00 -0.27847201018E+03  0.27847201018E+03  0.00000000000E+00 0.  1.
         25    2    1    2    0    0  0.36366167785E+02 -0.23535624825E+02 -0.78663483509E+02  0.15399180706E+03  0.12509639966E+03 0.  0.
          5    1    3    3  502    0  0.27532380066E+02  0.50322132290E+02 -0.39994834638E+02  0.70052895358E+02  0.41800000000E+01 0.  1.
         -5    1    3    3    0  502  0.88337877192E+01 -0.73857757114E+02 -0.38668648871E+02  0.83938911697E+02  0.41800000000E+01 0.  1.
        -11    1    1    2    0    0 -0.52168422438E+01  0.27253484846E+02  0.87129416126E-01  0.27748431862E+02  0.00000000000E+00 0. -1.
         11    1    1    2    0    0 -0.31149325542E+02 -0.37178600215E+01 -0.14665489377E+03  0.14997253359E+03  0.00000000000E+00 0.  1.
</event>
<event>
 7    1  0.3151015E-009  0.1067705E+03  0.7561462E-02  0.1266670E+00
          2   -1    0    0  501    0  0.00000000000E+00  0.00000000000E+00  0.87085286304E+03  0.87085286304E+03  0.00000000000E+00 0. -1.
         -2   -1    0    0    0  501 -0.00000000000E+00 -0.00000000000E+00 -0.14007475294E+02  0.14007475294E+02  0.00000000000E+00 0.  1.
         25    2    1    2    0    0 -0.46645806255E+01  0.86767765804E+00  0.46497701083E+03  0.48153238362E+03  0.12508918697E+03 0.  0.
          5    1    3    3  502    0 -0.58174248690E+02 -0.18828091144E+02  0.16194530780E+03  0.17315454179E+03  0.41800000000E+01 0. -1.
         -5    1    3    3    0  502  0.53509668065E+02  0.19695768802E+02  0.30303170304E+03  0.30837784183E+03  0.41800000000E+01 0. -1.
        -11    1    1    2    0    0 -0.45154004730E+02  0.18081014864E+01  0.16838454011E+03  0.17434307191E+03  0.00000000000E+00 0.  1.
         11    1    1    2    0    0  0.49818585356E+02 -0.26757791445E+01  0.22348383680E+03  0.22898488281E+03  0.00000000000E+00 0. -1.
</event>
<event>
 7    1  0.3151015E-009  0.8114867E+02  0.7561462E-02  0.1325823E+00
          2   -1    0    0  501    0  0.00000000000E+00  0.00000000000E+00  0.47971746853E+02  0.47971746853E+02  0.00000000000E+00 0. -1.
         -2   -1    0    0    0  501 -0.00000000000E+00 -0.00000000000E+00 -0.28944580620E+03  0.28944580620E+03  0.00000000000E+00 0.  1.
         25    2    1    2    0    0 -0.46362518815E+02 -0.88764284492E+00 -0.14185202941E+03  0.19476000297E+03  0.12513668307E+03 0.  0.
          5    1    3    3  502    0 -0.14926622317E+02  0.42787174930E+02 -0.27934509584E+01  0.45594102256E+02  0.41800000000E+01 0.  1.
         -5    1    3    3    0  502 -0.31435896498E+02 -0.43674817774E+02 -0.13905857845E+03  0.14916590072E+03  0.41800000000E+01 0.  1.
        -11    1    1    2    0    0  0.46535240378E+02  0.14853369243E+02 -0.11313102316E+03  0.12322653763E+03  0.00000000000E+00 0.  1.
         11    1    1    2    0    0 -0.17272156275E+00 -0.13965726398E+02  0.13508993228E+02  0.19431012444E+02  0.00000000000E+00 0. -1.
</event>
<event>
 7    1  0.3151015E-009  0.9157868E+02  0.7561462E-02  0.1299073E+00
         -1   -1    0    0    0  501 -0.00000000000E+00  0.00000000000E+00  0.15713951188E+03  0.15713951188E+03  0.00000000000E+00 0.  1.
          1   -1    0    0  501    0  0.00000000000E+00 -0.00000000000E+00 -0.90851025127E+02  0.90851025127E+02  0.00000000000E+00 0. -1.
         25    2    1    2    0    0 -0.25608742284E+02  0.30375458034E+02  0.41471613124E+01  0.13131151934E+03  0.12508812906E+03 0.  0.
          5    1    3    3  502    0 -0.54347036776E+02  0.17031097559E+02 -0.44986856612E+02  0.72697650293E+02  0.41800000000E+01 0. -1.
         -5    1    3    3    0  502  0.28738294492E+02  0.13344360475E+02  0.49134017924E+02  0.58613869043E+02  0.41800000000E+01 0. -1.
        -11    1    1    2    0    0 -0.27962801230E+02 -0.29309761362E+02  0.44711562325E+02  0.60333275804E+02  0.00000000000E+00 0. -1.
         11    1    1    2    0    0  0.53571543514E+02 -0.10656966715E+01  0.17429763112E+02  0.56345741863E+02  0.00000000000E+00 0.  1.
</event>
<event>
 7    1  0.3151015E-009  0.8586188E+02  0.7561462E-02  0.1313194E+00
         -1   -1    0    0    0  501 -0.00000000000E+00  0.00000000000E+00  0.24405495133E+03  0.24405495133E+03  0.00000000000E+00 0.  1.
          1   -1    0    0  501    0  0.00000000000E+00 -0.00000000000E+00 -0.52010762307E+02  0.52010762307E+02  0.00000000000E+00 0. -1.
         25    2    1    2    0    0 -0.51156384597E+01 -0.30512388519E+01  0.70782467965E+02  0.14385201420E+03  0.12509102447E+03 0.  0.
          5    1    3    3  502    0 -0.13451262445E+02 -0.53112426448E+02 -0.20460049986E+01  0.54986587829E+02  0.41800000000E+01 0. -1.
         -5    1    3    3    0  502  0.83356239851E+01  0.50061187596E+02  0.72828472964E+02  0.88865426376E+02  0.41800000000E+01 0. -1.
        -11    1    1    2    0    0  0.21492504460E+02 -0.25247775088E+02  0.77005225003E+01  0.34039329336E+02  0.00000000000E+00 0. -1.
         11    1    1    2    0    0 -0.16376866000E+02  0.28299013940E+02  0.11356119855E+03  0.11817437009E+03  0.00000000000E+00 0.  1.
</event>
<event>
 7    1  0.3151015E-009  0.5080955E+02  0.7561462E-02  0.1441023E+00
          1   -1    0    0  501    0  0.00000000000E+00  0.00000000000E+00  0.73225105049E+02  0.73225105049E+02  0.00000000000E+00 0. -1.
         -1   -1    0    0    0  501 -0.00000000000E+00 -0.00000000000E+00 -0.32796288030E+03  0.32796288030E+03  0.00000000000E+00 0.  1.
         25    2    1    2    0    0  0.64080879554E+01 -0.11309697664E+02 -0.27814630319E+03  0.30525780111E+03  0.12509191145E+03 0.  0.
          5    1    3    3  502    0 -0.16522251793E+02 -0.43418341320E+01 -0.28028528186E+03  0.28083651464E+03  0.41800000000E+01 0.  1.
         -5    1    3    3    0  502  0.22930339749E+02 -0.69678635319E+01  0.21389786702E+01  0.24421286472E+02  0.41800000000E+01 0.  1.
        -11    1    1    2    0    0 -0.16142918649E+00 -0.23922381355E+02 -0.25737272863E+02  0.35138491765E+02  0.00000000000E+00 0.  1.
         11    1    1    2    0    0 -0.62466587689E+01  0.35232079019E+02  0.49145800799E+02  0.60791692475E+02  0.00000000000E+00 0. -1.
</event>
<event>
 7    1  0.3151015E-009  0.1075926E+03  0.7561462E-02  0.1265094E+00
          2   -1    0    0  501    0  0.00000000000E+00  0.00000000000E+00  0.88521621722E+03  0.88521621722E+03  0.00000000000E+00 0. -1.
         -2   -1    0    0    0  501 -0.00000000000E+00 -0.00000000000E+00 -0.19838849379E+02  0.19838849379E+02  0.00000000000E+00 0.  1.
         25    2    1    2    0    0 -0.27946813326E+02 -0.50731513326E+02  0.64575074386E+03  0.66029317224E+03  0.12505334579E+03 0.  0.
          5    1    3    3  502    0 -0.76521260423E+02 -0.19062286465E+02  0.40447008998E+03  0.41210726777E+03  0.41800000000E+01 0.  1.
         -5    1    3    3    0  502  0.48574447097E+02 -0.31669226862E+02  0.24128065388E+03  0.24818590447E+03  0.41800000000E+01 0.  1.
        -11    1    1    2    0    0  0.34778864415E+02  0.91821399251E+01  0.18975671905E+03  0.19313594572E+03  0.00000000000E+00 0. -1.
         11    1    1    2    0    0 -0.68320510891E+01  0.41549373401E+02  0.29869904928E+02  0.51625948636E+02  0.00000000000E+00 0.  1.
</event>
<event>
 7    1  0.3151015E-009  0.1741971E+03  0.7561462E-02  0.1173540E+00
          2   -1    0    0  501    0  0.00000000000E+00  0.00000000000E+00  0.90167279848E+03  0.90167279848E+03  0.00000000000E+00 0. -1.
         -2   -1    0    0    0  501 -0.00000000000E+00 -0.00000000000E+00 -0.33717711994E+02  0.33717711994E+02  0.00000000000E+00 0.  1.
         25    2    1    2    0    0 -0.12875059242E+03 -0.43138403285E+02  0.46217415753E+03  0.49768439734E+03  0.12508865090E+03 0.  0.
          5    1    3    3  502    0 -0.15385617039E+03 -0.35567561501E+02  0.38978976407E+03  0.42058329160E+03  0.41800000000E+01 0.  1.
         -5    1    3    3    0  502  0.25105577972E+02 -0.75708417836E+01  0.72384393454E+02  0.77101105740E+02  0.41800000000E+01 0.  1.
        -11    1    1    2    0    0  0.11095910492E+02  0.44852355232E+02  0.10429001276E+03  0.11406690914E+03  0.00000000000E+00 0.  1.
         11    1    1    2    0    0  0.11765468193E+03 -0.17139519477E+01  0.30149091621E+03  0.32363920400E+03  0.00000000000E+00 0. -1.
</event>
<event>
 7    1  0.3748239E-009  0.1147373E+03  0.7561462E-02  0.1252040E+00
         -1   -1    0    0    0  501 -0.00000000000E+00  0.00000000000E+00  0.10563379214E+03  0.10563379214E+03  0.00000000000E+00 0.  1.
          1   -1    0    0  501    0  0.00000000000E+00 -0.00000000000E+00 -0.16749041736E+03  0.16749041736E+03  0.00000000000E+00 0. -1.
         25    2    1    2    0    0 -0.98365346562E+01 -0.70272064633E+02 -0.46688088397E+01  0.14388827379E+03  0.12508843702E+03 0.  0.
          5    1    3    3  502    0  0.35592885416E+01  0.25051553319E+02  0.31811985869E+02  0.40862252795E+02  0.41800000000E+01 0. -1.
         -5    1    3    3    0  502 -0.13395823198E+02 -0.95323617952E+02 -0.36480794708E+02  0.10302602099E+03  0.41800000000E+01 0. -1.
        -11    1    1    2    0    0 -0.35496364954E+02  0.36774924860E+02 -0.32409293285E+01  0.51214164509E+02  0.00000000000E+00 0.  1.
         11    1    1    2    0    0  0.45332899611E+02  0.33497139773E+02 -0.53946887047E+02  0.78021771206E+02  0.00000000000E+00 0. -1.
</event>
<event>
 7    1  0.3151015E-009  0.1080745E+03  0.7561462E-02  0.1264178E+00
         -2   -1    0    0    0  501 -0.00000000000E+00  0.00000000000E+00  0.11052238201E+02  0.11052238201E+02  0.00000000000E+00 0.  1.
          2   -1    0    0  501    0  0.00000000000E+00 -0.00000000000E+00 -0.11626607019E+04  0.11626607019E+04  0.00000000000E+00 0. -1.
         25    2    1    2    0    0 -0.12513737662E+02  0.19823323229E+02 -0.78833041763E+03  0.79853656783E+03  0.12508495123E+03 0.  0.
          5    1    3    3  502    0  0.47671064637E+02 -0.18094816542E+02 -0.44205105174E+03  0.44500175003E+03  0.41800000000E+01 0. -1.
         -5    1    3    3    0  502 -0.60184802300E+02  0.37918139771E+02 -0.34627936590E+03  0.35353481780E+03  0.41800000000E+01 0. -1.
        -11    1    1    2    0    0 -0.36028492803E+02  0.91870902758E+01 -0.14576648259E+03  0.15043378068E+03  0.00000000000E+00 0.  1.
         11    1    1    2    0    0  0.48542230465E+02 -0.29010413505E+02 -0.21751156343E+03  0.22474259155E+03  0.00000000000E+00 0. -1.
</event>
<event>
 7    1  0.3151015E-009  0.1089404E+03  0.7561462E-02  0.1262545E+00
          1   -1    0    0  501    0  0.00000000000E+00  0.00000000000E+00  0.65310889101E+03  0.65310889101E+03  0.00000000000E+00 0. -1.
         -1   -1    0    0    0  501 -0.00000000000E+00 -0.00000000000E+00 -0.20728831707E+02  0.20728831707E+02  0.00000000000E+00 0.  1.
         25    2    1    2    0    0 -0.26116813362E+02 -0.58225415238E+00  0.25590013853E+03  0.28603297835E+03  0.12509019485E+03 0.  0.
          5    1    3    3  502    0  0.78894914858E+01 -0.58093033718E+02  0.94316222524E+02  0.11113085473E+03  0.41800000000E+01 0.  1.
         -5    1    3    3    0  502 -0.34006304847E+02  0.57510779565E+02  0.16158391600E+03  0.17490212362E+03  0.41800000000E+01 0.  1.
        -11    1    1    2    0    0  0.58325974647E+02 -0.78911487692E+01  0.26492211981E+03  0.27138150105E+03  0.00000000000E+00 0.  1.
         11    1    1    2    0    0 -0.32209161285E+02  0.84734029216E+01  0.11155780096E+03  0.11642324331E+03  0.00000000000E+00 0. -1.
</event>
<event>
 7    1  0.3151015E-009  0.1072380E+03  0.7561462E-02  0.1265772E+00
         -2   -1    0    0    0  501 -0.00000000000E+00  0.00000000000E+00  0.59109905061E+02  0.59109905061E+02  0.00000000000E+00 0.  1.
          2   -1    0    0  501    0  0.00000000000E+00 -0.00000000000E+00 -0.33513571960E+03  0.33513571960E+03  0.00000000000E+00 0. -1.
         25    2    1    2    0    0  0.11508368158E+02  0.82521323219E+02 -0.10156208453E+03  0.18139670972E+03  0.12509075889E+03 0.  0.
          5    1    3    3  502    0  0.54440968496E+02  0.27639065568E+02 -0.38597696426E+01  0.61319713126E+02  0.41800000000E+01 0. -1.
         -5    1    3    3    0  502 -0.42932600337E+02  0.54882257651E+02 -0.97702314888E+02  0.12007699659E+03  0.41800000000E+01 0. -1.
        -11    1    1    2    0    0 -0.75983612766E+01 -0.36313789380E+02 -0.16004127737E+03  0.16428523018E+03  0.00000000000E+00 0.  1.
         11    1    1    2    0    0 -0.39100068816E+01 -0.46207533839E+02 -0.14422452638E+02  0.48563684759E+02  0.00000000000E+00 0. -1.
</event>
<event>
 7    1  0.3151015E-009  0.1033127E+03  0.7561462E-02  0.1273480E+00
         -1   -1    0    0    0  501 -0.00000000000E+00  0.00000000000E+00  0.29387470784E+02  0.29387470784E+02  0.00000000000E+00 0.  1.
          1   -1    0    0  501    0  0.00000000000E+00 -0.00000000000E+00 -0.46967281232E+03  0.46967281232E+03  0.00000000000E+00 0. -1.
         25    2    1    2    0    0 -0.29942978970E+02 -0.16275041561E+01 -0.17390377111E+03  0.21630568996E+03  0.12508556728E+03 0.  0.
          5    1    3    3  502    0  0.41141296466E+02 -0.83873958340E+00 -0.18395163744E+02  0.45267694973E+02  0.41800000000E+01 0.  1.
         -5    1    3    3    0  502 -0.71084275437E+02 -0.78876457271E+00 -0.15550860736E+03  0.17103799498E+03  0.41800000000E+01 0.  1.
        -11    1    1    2    0    0  0.25947156359E+00 -0.41607556609E+02 -0.10024774873E+03  0.10853970342E+03  0.00000000000E+00 0.  1.
         11    1    1    2    0    0  0.29683507407E+02  0.43235060765E+02 -0.16613382170E+03  0.17421488973E+03  0.00000000000E+00 0. -1.
</event>
<event>
 7    1  0.3151015E-009  0.9091587E+02  0.7561462E-02  0.1300649E+00
          2   -1    0    0  501    0  0.00000000000E+00  0.00000000000E+00  0.56352767447E+03  0.56352767447E+03  0.00000000000E+00 0.  1.
         -2   -1    0    0    0  501 -0.00000000000E+00 -0.00000000000E+00 -0.30651794316E+02  0.30651794316E+02  0.00000000000E+00 0. -1.
         25    2    1    2    0    0  0.51854149382E+02  0.31503409208E+02  0.38963791525E+03  0.41369904108E+03  0.12509146248E+03 0.  0.
          5    1    3    3  502    0  0.20962455970E+02 -0.83981492266E+01  0.34626961105E+03  0.34703035805E+03  0.41800000000E+01 0.  1.
         -5    1    3    3    0  502  0.30891693412E+02  0.39901558435E+02  0.43368304203E+02  0.66668683029E+02  0.41800000000E+01 0.  1.
        -11    1    1    2    0    0 -0.73193977352E+02 -0.42065068998E+02  0.12326369281E+03  0.14940135982E+03  0.00000000000E+00 0.  1.
         11    1    1    2    0    0  0.21339827970E+02  0.10561659790E+02  0.19974272086E+02  0.31079067886E+02  0.00000000000E+00 0. -1.
</event>
<event>
 7    1  0.3151015E-009  0.1174915E+03  0.7561462E-02  0.1247294E+00
         -2   -1    0    0    0  501 -0.00000000000E+00  0.00000000000E+00  0.16804920796E+02  0.16804920796E+02  0.00000000000E+00 0.  1.
          2   -1    0    0  501    0  0.00000000000E+00 -0.00000000000E+00 -0.83005793754E+03  0.83005793754E+03  0.00000000000E+00 0. -1.
         25    2    1    2    0    0 -0.25391449474E+02  0.40461311226E+02 -0.44543889087E+03  0.46513095923E+03  0.12509660394E+03 0.  0.
          5    1    3    3  502    0 -0.69892645708E+02  0.52111030994E+02 -0.27301156075E+03  0.28662401535E+03  0.41800000000E+01 0.  1.
         -5    1    3    3    0  502  0.44501196234E+02 -0.11649719769E+02 -0.17242733013E+03  0.17850694388E+03  0.41800000000E+01 0.  1.
        -11    1    1    2    0    0  0.36869312914E+02 -0.64826750664E+02 -0.25050835998E+03  0.26137385534E+03  0.00000000000E+00 0. -1.
         11    1    1    2    0    0 -0.11477863440E+02  0.24365439438E+02 -0.11730576589E+03  0.12035804377E+03  0.00000000000E+00 0.  1.
</event>
<event>
 7    1  0.3151015E-009  0.1143957E+03  0.7561462E-02  0.1252640E+00
         -1   -1    0    0    0  501 -0.00000000000E+00  0.00000000000E+00  0.25274384960E+03  0.25274384960E+03  0.00000000000E+00 0.  1.
          1   -1    0    0  501    0  0.00000000000E+00 -0.00000000000E+00 -0.81837351029E+02  0.81837351029E+02  0.00000000000E+00 0. -1.
         25    2    1    2    0    0  0.77877071120E+02 -0.53993108793E+01  0.15642878809E+03  0.21496652388E+03  0.12508656954E+03 0.  0.
          5    1    3    3  502    0  0.88146428568E+02  0.39005421351E+02  0.13072790542E+03  0.16247607030E+03  0.41800000000E+01 0. -1.
         -5    1    3    3    0  502 -0.10269357448E+02 -0.44404732230E+02  0.25700882669E+02  0.52490453578E+02  0.41800000000E+01 0. -1.
        -11    1    1    2    0    0 -0.16301187521E+02 -0.14513746307E+02  0.43515905991E+02  0.48682765129E+02  0.00000000000E+00 0.  1.
         11    1    1    2    0    0 -0.61575883599E+02  0.19913057186E+02 -0.29038195512E+02  0.70931911620E+02  0.00000000000E+00 0. -1.
</event>
<event>
 7    1  0.3151015E-009  0.1479650E+03  0.7561462E-02  0.1202996E+00
         -2   -1    0    0    0  501 -0.00000000000E+00  0.00000000000E+00  0.35515507646E+03  0.35515507646E+03  0.00000000000E+00 0.  1.
          2   -1    0    0  501    0  0.00000000000E+00 -0.00000000000E+00 -0.88133042020E+02  0.88133042020E+02  0.00000000000E+00 0. -1.
         25    2    1    2    0    0  0.88661057804E+02 -0.93256858968E+02  0.74085769424E+02  0.19414760737E+03  0.12508783834E+03 0.  0.
          5    1    3    3  502    0  0.11258342668E+03 -0.70537634792E+02  0.25617066947E+02  0.13536725011E+03  0.41800000000E+01 0.  1.
         -5    1    3    3    0  502 -0.23922368873E+02 -0.22719224176E+02  0.48468702477E+02  0.58780357258E+02  0.41800000000E+01 0.  1.
        -11    1    1    2    0    0 -0.22007456254E+02  0.34376372611E+02  0.48717290774E+01  0.41107138904E+02  0.00000000000E+00 0. -1.
         11    1    1    2    0    0 -0.66653601550E+02  0.58880486356E+02  0.18806453594E+03  0.20803337221E+03  0.00000000000E+00 0.  1.
</event>
<event>
 7    1  0.3151015E-009  0.1726920E+03  0.7561462E-02  0.1175069E+00
          2   -1    0    0  501    0  0.00000000000E+00  0.00000000000E+00  0.19525939179E+04  0.19525939179E+04  0.00000000000E+00 0. -1.
         -2   -1    0    0    0  501 -0.00000000000E+00 -0.00000000000E+00 -0.29119642487E+02  0.29119642487E+02  0.00000000000E+00 0.  1.
         25    2    1    2    0    0 -0.13248569625E+03 -0.30067359722E+02  0.16687467696E+04  0.16789340430E+04  0.12508890368E+03 0.  0.
          5    1    3    3  502    0  0.39222564520E+01 -0.44637865169E+02  0.30571992789E+03  0.30901467572E+03  0.41800000000E+01 0.  1.
         -5    1    3    3    0  502 -0.13640795270E+03  0.14570505447E+02  0.13630268417E+04  0.13699193673E+04  0.41800000000E+01 0.  1.
        -11    1    1    2    0    0  0.13114081502E+03 -0.18821031164E+01  0.21407894311E+03  0.25106025086E+03  0.00000000000E+00 0. -1.
         11    1    1    2    0    0  0.13448812215E+01  0.31949462838E+02  0.40648562672E+02  0.51719266512E+02  0.00000000000E+00 0.  1.
</event>
<event>
 7    1  0.3151015E-009  0.1289544E+03  0.7561462E-02  0.1229016E+00
          3   -1    0    0  501    0  0.00000000000E+00  0.00000000000E+00  0.18880630177E+03  0.18880630177E+03  0.00000000000E+00 0. -1.
         -3   -1    0    0    0  501 -0.00000000000E+00 -0.00000000000E+00 -0.14094000965E+03  0.14094000965E+03  0.00000000000E+00 0.  1.
         25    2    1    2    0    0 -0.10240156623E+03 -0.49040690909E+02  0.70176308437E+02  0.18292954677E+03  0.12508970655E+03 0.  0.
          5    1    3    3  502    0 -0.46872409649E+02  0.13578207392E+02 -0.25931662190E+02  0.55419437080E+02  0.41800000000E+01 0. -1.
         -5    1    3    3    0  502 -0.55529156579E+02 -0.62618898301E+02  0.96107970627E+02  0.12751010969E+03  0.41800000000E+01 0. -1.
        -11    1    1    2    0    0 -0.39487013653E+01  0.11812101791E+02  0.22370082543E+02  0.25603487734E+02  0.00000000000E+00 0. -1.
         11    1    1    2    0    0  0.10635026759E+03  0.37228589118E+02 -0.44680098861E+02  0.12121327691E+03  0.00000000000E+00 0.  1.
</event>
<event>
 7    1  0.3151015E-009  0.1227382E+03  0.7561462E-02  0.1238647E+00
         -2   -1    0    0    0  501 -0.00000000000E+00  0.00000000000E+00  0.18023549237E+03  0.18023549237E+03  0.00000000000E+00 0.  1.
          2   -1    0    0  501    0  0.00000000000E+00 -0.00000000000E+00 -0.13628889053E+03  0.13628889053E+03  0.00000000000E+00 0. -1.
         25    2    1    2    0    0  0.17033110184E+02  0.10165895135E+03  0.67605336952E+02  0.17562132384E+03  0.12509076133E+03 0.  0.
          5    1    3    3  502    0 -0.77104231096E+01  0.15815390841E+02  0.82932419353E+02  0.84881304135E+02  0.41800000000E+01 0.  1.
         -5    1    3    3    0  502  0.24743533294E+02  0.85843560506E+02 -0.15327082401E+02  0.90740019700E+02  0.41800000000E+01 0.  1.
        -11    1    1    2    0    0  0.24111302295E+02 -0.92783088982E+02 -0.88056893351E+01  0.96268357543E+02  0.00000000000E+00 0.  1.
         11    1    1    2    0    0 -0.41144412479E+02 -0.88758623659E+01 -0.14853045777E+02  0.44634701521E+02  0.00000000000E+00 0. -1.
</event>
<event>
 7    1  0.3151015E-009  0.7878307E+02  0.7561462E-02  0.1332541E+00
         -1   -1    0    0    0  501 -0.00000000000E+00  0.00000000000E+00  0.63223997780E+02  0.63223997780E+02  0.00000000000E+00 0.  1.
          1   -1    0    0  501    0  0.00000000000E+00 -0.00000000000E+00 -0.22228860616E+03  0.22228860616E+03  0.00000000000E+00 0. -1.
         25    2    1    2    0    0 -0.63753499864E+01 -0.24369533156E+02 -0.43045000226E+02  0.13466274599E+03  0.12508662550E+03 0.  0.
          5    1    3    3  502    0 -0.12989550427E+02 -0.48118083060E+02  0.29405211450E+02  0.58019110628E+02  0.41800000000E+01 0.  1.
         -5    1    3    3    0  502  0.66142004402E+01  0.23748549904E+02 -0.72450211676E+02  0.76643635364E+02  0.41800000000E+01 0.  1.
        -11    1    1    2    0    0  0.42606042879E+02  0.12026947385E+02 -0.99992226956E+02  0.10935432230E+03  0.00000000000E+00 0.  1.
         11    1    1    2    0    0 -0.36230692893E+02  0.12342585772E+02 -0.16027381201E+02  0.41495535654E+02  0.00000000000E+00 0. -1.
</event>
<event>
 7    1  0.3151015E-009  0.1515852E+03  0.7561462E-02  0.1198539E+00
          1   -1    0    0  501    0  0.00000000000E+00  0.00000000000E+00  0.23555689542E+03  0.23555689542E+03  0.00000000000E+00 0. -1.
         -1   -1    0    0    0  501 -0.00000000000E+00 -0.00000000000E+00 -0.12873829239E+03  0.12873829239E+03  0.00000000000E+00 0.  1.
         25    2    1    2    0    0  0.37969349833E+02 -0.86466880349E+02 -0.86122868643E+01  0.15697337850E+03  0.12509307394E+03 0.  0.
          5    1    3    3  502    0 -0.29397523309E+02 -0.16795079406E+02 -0.42248976398E+02  0.54302278733E+02  0.41800000000E+01 0.  1.
         -5    1    3    3    0  502  0.67366873142E+02 -0.69671800944E+02  0.33636689533E+02  0.10267109976E+03  0.41800000000E+01 0.  1.
        -11    1    1    2    0    0 -0.92684056832E+02  0.43001418177E+02  0.72962667057E+02  0.12555081497E+03  0.00000000000E+00 0.  1.
         11    1    1    2    0    0  0.54714706999E+02  0.43465462173E+02  0.42468222839E+02  0.81770994337E+02  0.00000000000E+00 0. -1.
</event>
<event>
 7    1  0.3151015E-009  0.1716660E+03  0.7561462E-02  0.1176122E+00
          2   -1    0    0  501    0  0.00000000000E+00  0.00000000000E+00  0.62692298611E+03  0.62692298611E+03  0.00000000000E+00 0.  1.
         -2   -1    0    0    0  501 -0.00000000000E+00 -0.00000000000E+00 -0.61688957043E+02  0.61688957043E+02  0.00000000000E+00 0. -1.
         25    2    1    2    0    0  0.30040251023E+01  0.13963134088E+03  0.44693189066E+03  0.48466223521E+03  0.12507370559E+03 0.  0.
          5    1    3    3  502    0  0.63300051891E+02  0.69366882994E+02  0.24736014529E+03  0.26461892393E+03  0.41800000000E+01 0.  1.
         -5    1    3    3    0  502 -0.60296026789E+02  0.70264457887E+02  0.19957174537E+03  0.22004331128E+03  0.41800000000E+01 0.  1.
        -11    1    1    2    0    0  0.33456233201E+02 -0.53256766050E+02  0.82161919656E+02  0.10347069011E+03  0.00000000000E+00 0.  1.
         11    1    1    2    0    0 -0.36460258304E+02 -0.86374574831E+02  0.36140218751E+02  0.10047901783E+03  0.00000000000E+00 0. -1.
</event>
<event>
 7    1  0.3151015E-009  0.2151507E+03  0.7561462E-02  0.1137551E+00
         -2   -1    0    0    0  501 -0.00000000000E+00  0.00000000000E+00  0.41928889834E+02  0.41928889834E+02  0.00000000000E+00 0.  1.
          2   -1    0    0  501    0  0.00000000000E+00 -0.00000000000E+00 -0.15576037580E+04  0.15576037580E+04  0.00000000000E+00 0. -1.
         25    2    1    2    0    0  0.79247773933E+02 -0.18963071161E+03 -0.11095897185E+04  0.11353751647E+04  0.12508958734E+03 0.  0.
          5    1    3    3  502    0 -0.72489718266E+01 -0.64066533621E+02 -0.59940848193E+03  0.60288064236E+03  0.41800000000E+01 0. -1.
         -5    1    3    3    0  502  0.86496745759E+02 -0.12556417799E+03 -0.51018123653E+03  0.53249452234E+03  0.41800000000E+01 0. -1.
        -11    1    1    2    0    0  0.25890646633E+01  0.58705470768E+02 -0.54420102033E+02  0.80091092259E+02  0.00000000000E+00 0.  1.
         11    1    1    2    0    0 -0.81836838596E+02  0.13092524084E+03 -0.35166504771E+03  0.38406639091E+03  0.00000000000E+00 0. -1.
</event>
<event>
 7    1  0.3151015E-009  0.1114086E+03  0.7561462E-02  0.1257983E+00
          1   -1    0    0  501    0  0.00000000000E+00  0.00000000000E+00  0.71104628362E+02  0.71104628362E+02  0.00000000000E+00 0. -1.
         -1   -1    0    0    0  501 -0.00000000000E+00 -0.00000000000E+00 -0.22733660246E+03  0.22733660246E+03  0.00000000000E+00 0.  1.
         25    2    1    2    0    0  0.15516512780E+01  0.65710062024E+02 -0.87022272725E+02  0.16595404660E+03  0.12509056623E+03 0.  0.
          5    1    3    3  502    0  0.50083767785E+02  0.14073149636E+02  0.18341915278E+01  0.52223308922E+02  0.41800000000E+01 0.  1.
         -5    1    3    3    0  502 -0.48532116507E+02  0.51636912388E+02 -0.88856464252E+02  0.11373073768E+03  0.41800000000E+01 0.  1.
        -11    1    1    2    0    0 -0.28461592112E+02  0.18355366231E+00 -0.51968427873E+02  0.59252117373E+02  0.00000000000E+00 0.  1.
         11    1    1    2    0    0  0.26909940835E+02 -0.65893615687E+02 -0.17241273497E+02  0.73235066845E+02  0.00000000000E+00 0. -1.
</event>
<event>
 7    1  0.3151015E-009  0.1239378E+03  0.7561462E-02  0.1236739E+00
          1   -1    0    0  501    0  0.00000000000E+00  0.00000000000E+00  0.17315199198E+03  0.17315199198E+03  0.00000000000E+00 0. -1.
         -1   -1    0    0    0  501 -0.00000000000E+00 -0.00000000000E+00 -0.11908602580E+03  0.11908602580E+03  0.00000000000E+00 0.  1.
         25    2    1    2    0    0  0.78421971328E+02  0.56390555078E+01 -0.23117008096E+02  0.14954748544E+03  0.12509296464E+03 0.  0.
          5    1    3    3  502    0 -0.24864846015E+02  0.44567667032E+01  0.24762543317E+02  0.35619928247E+02  0.41800000000E+01 0.  1.
         -5    1    3    3    0  502  0.10328681734E+03  0.11822888046E+01 -0.47879551414E+02  0.11392755719E+03  0.41800000000E+01 0.  1.
        -11    1    1    2    0    0  0.12069322602E+02  0.21295667162E+02  0.84059676580E+01  0.25881156856E+02  0.00000000000E+00 0. -1.
         11    1    1    2    0    0 -0.90491293930E+02 -0.26934722670E+02  0.68777006623E+02  0.11680937549E+03  0.00000000000E+00 0.  1.
</event>
<event>
 7    1  0.3151015E-009  0.1422862E+03  0.7561462E-02  0.1210285E+00
         -1   -1    0    0    0  501 -0.00000000000E+00  0.00000000000E+00  0.17001704879E+02  0.17001704879E+02  0.00000000000E+00 0.  1.
          1   -1    0    0  501    0  0.00000000000E+00 -0.00000000000E+00 -0.15530689882E+04  0.15530689882E+04  0.00000000000E+00 0. -1.
         25    2    1    2    0    0  0.83481062735E+02 -0.83243466793E+02 -0.94941365814E+03  0.96484802836E+03  0.12508741333E+03 0.  0.
          5    1    3    3  502    0  0.23063270515E+01  0.26237944108E+02 -0.30513045536E+03  0.30629367614E+03  0.41800000000E+01 0. -1.
         -5    1    3    3    0  502  0.81174735683E+02 -0.10948141090E+03 -0.64428320278E+03  0.65855435222E+03  0.41800000000E+01 0. -1.
        -11    1    1    2    0    0 -0.67793118117E+02  0.81117251652E+02 -0.57716212508E+03  0.58676403605E+03  0.00000000000E+00 0. -1.
         11    1    1    2    0    0 -0.15687944618E+02  0.21262151413E+01 -0.94915000598E+01  0.18458628620E+02  0.00000000000E+00 0.  1.
</event>
<event>
 7    1  0.3151015E-009  0.9117945E+02  0.7561462E-02  0.1300020E+00
         -2   -1    0    0    0  501 -0.00000000000E+00  0.00000000000E+00  0.59010663221E+02  0.59010663221E+02  0.00000000000E+00 0.  1.
          2   -1    0    0  501    0  0.00000000000E+00 -0.00000000000E+00 -0.32658821851E+03  0.32658821851E+03  0.00000000000E+00 0. -1.
         25    2    1    2    0    0 -0.29126658383E+02 -0.12598619697E+02 -0.33858642824E+02  0.13341369768E+03  0.12508285089E+03 0.  0.
          5    1    3    3  502    0 -0.56707080052E+02  0.25233358905E+01  0.28345090035E+02  0.63584405959E+02  0.41800000000E+01 0. -1.
         -5    1    3    3    0  502  0.27580421669E+02 -0.15121955588E+02 -0.62203732859E+02  0.69829291718E+02  0.41800000000E+01 0. -1.
        -11    1    1    2    0    0 -0.31867029671E+02  0.42906567144E+01 -0.63486997283E+02  0.71165413925E+02  0.00000000000E+00 0.  1.
         11    1    1    2    0    0  0.60993688054E+02  0.83079629828E+01 -0.17023191518E+03  0.18101977013E+03  0.00000000000E+00 0. -1.
</event>
<event>
 7    1  0.3151015E-009  0.1425845E+03  0.7561462E-02  0.1209893E+00
         -1   -1    0    0    0  501 -0.00000000000E+00  0.00000000000E+00  0.32495407374E+02  0.32495407374E+02  0.00000000000E+00 0.  1.
          1   -1    0    0  501    0  0.00000000000E+00 -0.00000000000E+00 -0.76429603517E+03  0.76429603517E+03  0.00000000000E+00 0. -1.
         25    2    1    2    0    0 -0.16331210126E+02  0.10419063079E+03 -0.50931914299E+03  0.53495419281E+03  0.12509037942E+03 0.  0.
          5    1    3    3  502    0  0.15686737006E+02 -0.20108651773E+02 -0.34697021718E+02  0.43264157337E+02  0.41800000000E+01 0.  1.
         -5    1    3    3    0  502 -0.32017947132E+02  0.12429928256E+03 -0.47462212127E+03  0.49169003547E+03  0.41800000000E+01 0.  1.
        -11    1    1    2    0    0  0.26346300044E+02 -0.11760813013E+00 -0.85787757877E+02  0.89742301949E+02  0.00000000000E+00 0. -1.
         11    1    1    2    0    0 -0.10015089918E+02 -0.10407302266E+03 -0.13669372693E+03  0.17209494779E+03  0.00000000000E+00 0.  1.
</event>
<event>
 7    1  0.3151015E-009  0.8472729E+02  0.7561462E-02  0.1316147E+00
          1   -1    0    0  501    0  0.00000000000E+00  0.00000000000E+00  0.38944081538E+03  0.38944081538E+03  0.00000000000E+00 0. -1.
         -1   -1    0    0    0  501 -0.00000000000E+00 -0.00000000000E+00 -0.32374438626E+02  0.32374438626E+02  0.00000000000E+00 0.  1.
         25    2    1    2    0    0 -0.17609756050E+02  0.22817554988E+02  0.21013627514E+03  0.24624164743E+03  0.12508777109E+03 0.  0.
          5    1    3    3  502    0  0.68481190166E+01 -0.48612866225E+02  0.56228397692E+02  0.74761036668E+02  0.41800000000E+01 0.  1.
         -5    1    3    3    0  502 -0.24457875066E+02  0.71430421213E+02  0.15390787745E+03  0.17148061076E+03  0.41800000000E+01 0.  1.
        -11    1    1    2    0    0  0.11448809638E+02  0.74626564019E+01 -0.91613912516E+01  0.16452889483E+02  0.00000000000E+00 0.  1.
         11    1    1    2    0    0  0.61609464121E+01 -0.30280211390E+02  0.15609149287E+03  0.15912071709E+03  0.00000000000E+00 0. -1.
</event>
<event>
 7    1  0.3151015E-009  0.1303917E+03  0.7561462E-02  0.1226876E+00
         -1   -1    0    0    0  501 -0.00000000000E+00  0.00000000000E+00  0.33909444990E+02  0.33909444990E+02  0.00000000000E+00 0.  1.
          1   -1    0    0  501    0  0.00000000000E+00 -0.00000000000E+00 -0.57881842875E+03  0.57881842875E+03  0.00000000000E+00 0. -1.
         25    2    1    2    0    0 -0.77865072888E+02  0.65901773265E+01 -0.21474172843E+03  0.26051520970E+03  0.12509102503E+03 0.  0.
          5    1    3    3  502    0 -0.24947221086E+02 -0.58032519938E+02 -0.10384276538E+03  0.12161796550E+03  0.41800000000E+01 0. -1.
         -5    1    3    3    0  502 -0.52917851802E+02  0.64622697265E+02 -0.11089896305E+03  0.13889724420E+03  0.41800000000E+01 0. -1.
        -11    1    1    2    0    0 -0.15635474411E+01  0.27405761072E+02 -0.33985854334E+02  0.43687054323E+02  0.00000000000E+00 0.  1.
         11    1    1    2    0    0  0.79428620330E+02 -0.33995938399E+02 -0.29618140100E+03  0.30852560972E+03  0.00000000000E+00 0. -1.
</event>
<event>
 7    1  0.3151015E-009  0.1200408E+03  0.7561462E-02  0.1243030E+00
         -3   -1    0    0    0  501 -0.00000000000E+00  0.00000000000E+00  0.95602798014E+02  0.95602798014E+02  0.00000000000E+00 0.  1.
          3   -1    0    0  501    0  0.00000000000E+00 -0.00000000000E+00 -0.57578862032E+03  0.57578862032E+03  0.00000000000E+00 0. -1.
         25    2    1    2    0    0 -0.38038878854E+02 -0.70970302722E+02  0.25941667407E+02  0.15101417522E+03  0.12509424782E+03 0.  0.
          5    1    3    3  502    0 -0.14442557136E+02  0.22513004458E+02 -0.29238126000E+02  0.39846746898E+02  0.41800000000E+01 0. -1.
         -5    1    3    3    0  502 -0.23596321717E+02 -0.93483307180E+02  0.55179793407E+02  0.11116742832E+03  0.41800000000E+01 0. -1.
        -11    1    1    2    0    0  0.58474046940E+02  0.20349497180E+02 -0.33755127452E+03  0.34318242836E+03  0.00000000000E+00 0. -1.
         11    1    1    2    0    0 -0.20435168086E+02  0.50620805542E+02 -0.16857621519E+03  0.17719481476E+03  0.00000000000E+00 0.  1.
</event>
<event>
 7    1  0.3151015E-009  0.9374909E+02  0.7561462E-02  0.1294019E+00
         -2   -1    0    0    0  501 -0.00000000000E+00  0.00000000000E+00  0.30845186694E+03  0.30845186694E+03  0.00000000000E+00 0.  1.
          2   -1    0    0  501    0  0.00000000000E+00 -0.00000000000E+00 -0.39861944244E+02  0.39861944244E+02  0.00000000000E+00 0. -1.
         25    2    1    2    0    0 -0.20459517428E+02 -0.20400763890E+02  0.19461721952E+03  0.23314694621E+03  0.12508738294E+03 0.  0.
          5    1    3    3  502    0  0.52873899880E+02 -0.45224691909E+01  0.80991701970E+02  0.96918678304E+02  0.41800000000E+01 0. -1.
         -5    1    3    3    0  502 -0.73333417308E+02 -0.15878294700E+02  0.11362551755E+03  0.13622826790E+03  0.41800000000E+01 0. -1.
        -11    1    1    2    0    0  0.24935441521E+02  0.35492564602E+02  0.85352949418E+02  0.95742489837E+02  0.00000000000E+00 0.  1.
         11    1    1    2    0    0 -0.44759240927E+01 -0.15091800711E+02 -0.11380246241E+02  0.19424375143E+02  0.00000000000E+00 0. -1.
</event>
<event>
 7    1  0.3151015E-009  0.1572719E+03  0.7561462E-02  0.1191812E+00
          1   -1    0    0  501    0  0.00000000000E+00  0.00000000000E+00  0.95866633980E+03  0.95866633980E+03  0.00000000000E+00 0. -1.
         -1   -1    0    0    0  501 -0.00000000000E+00 -0.00000000000E+00 -0.37105542840E+02  0.37105542840E+02  0.00000000000E+00 0.  1.
         25    2    1    2    0    0 -0.71128532342E+02 -0.13389828705E+03  0.53346097189E+03  0.56852057493E+03  0.12508803378E+03 0.  0.
          5    1    3    3  502    0 -0.38035760262E+01 -0.35382492427E+02  0.19339103147E+02  0.40716842602E+02  0.41800000000E+01 0. -1.
         -5    1    3    3    0  502 -0.67324956316E+02 -0.98515794623E+02  0.51412186875E+03  0.52780373233E+03  0.41800000000E+01 0. -1.
        -11    1    1    2    0    0 -0.93054934914E+00  0.44421219510E+02  0.21467905081E+03  0.21922866035E+03  0.00000000000E+00 0. -1.
         11    1    1    2    0    0  0.72059081691E+02  0.89477067541E+02  0.17342077426E+03  0.20802264736E+03  0.00000000000E+00 0.  1.
</event>
<event>
 6    1  0.3151015E-009  0.8146629E+02  0.7561462E-02  0.1324941E+00
         -2   -1    0    0    0  501 -0.00000000000E+00  0.00000000000E+00  0.15748733748E+03  0.15748733748E+03  0.00000000000E+00 0.  1.
          2   -1    0    0  501    0  0.00000000000E+00 -0.00000000000E+00 -0.94352749085E+02  0.94352749085E+02  0.00000000000E+00 0. -1.
          5    1    1    2  502    0  0.13269168599E+02 -0.40158841310E+02 -0.33132934670E+02  0.53889397199E+02  0.41800000000E+01 0.  1.
         -5    1    1    2    0  502  0.39287761745E+02  0.24643094968E+02  0.76363644401E+02  0.89440980198E+02  0.41800000000E+01 0.  1.
        -11    1    1    2    0    0 -0.42314965338E+02  0.32961261734E+02  0.49281862778E+02  0.72840257176E+02  0.00000000000E+00 0.  1.
         11    1    1    2    0    0 -0.10241965007E+02 -0.17445515392E+02 -0.29377984116E+02  0.35669451989E+02  0.00000000000E+00 0. -1.
</event>
<event>
 7    1  0.3442846E-009  0.1468827E+03  0.7561462E-02  0.1204357E+00
         -2   -1    0    0    0  501 -0.00000000000E+00  0.00000000000E+00  0.62173000909E+02  0.62173000909E+02  0.00000000000E+00 0.  1.
          2   -1    0    0  501    0  0.00000000000E+00 -0.00000000000E+00 -0.39606150875E+03  0.39606150875E+03  0.00000000000E+00 0. -1.
         25    2    1    2    0    0 -0.58350491829E+02 -0.88611700962E+02 -0.12197414464E+03  0.20440637638E+03  0.12508981295E+03 0.  0.
          5    1    3    3  502    0 -0.57353474420E+02  0.15296272071E+02 -0.36646148220E+02  0.69884258218E+02  0.41800000000E+01 0. -1.
         -5    1    3    3    0  502 -0.99701740837E+00 -0.10390797303E+03 -0.85327996416E+02  0.13452211817E+03  0.41800000000E+01 0. -1.
        -11    1    1    2    0    0  0.70681580946E+02  0.42375277956E+02 -0.17485795072E+03  0.19330507752E+03  0.00000000000E+00 0. -1.
         11    1    1    2    0    0 -0.12331089118E+02  0.46236423007E+02 -0.37056412491E+02  0.60523055756E+02  0.00000000000E+00 0.  1.
</event>
<event>
 7    1  0.3151015E-009  0.8094197E+02  0.7561462E-02  0.1326399E+00
         -3   -1    0    0    0  501 -0.00000000000E+00  0.00000000000E+00  0.14954511890E+03  0.14954511890E+03  0.00000000000E+00 0.  1.
          3   -1    0    0  501    0  0.00000000000E+00 -0.00000000000E+00 -0.78448265771E+02  0.78448265771E+02  0.00000000000E+00 0. -1.
         25    2    1    2    0    0 -0.99398457453E+01  0.20959614230E+01  0.52113143216E+02  0.13589291074E+03  0.12509160606E+03 0.  0.
          5    1    3    3  502    0 -0.30425240497E+02 -0.55524751319E+02  0.19062003313E+02  0.66253495294E+02  0.41800000000E+01 0. -1.
         -5    1    3    3    0  502  0.20485394752E+02  0.57620712742E+02  0.33051139902E+02  0.69639415447E+02  0.41800000000E+01 0. -1.
        -11    1    1    2    0    0  0.13681853521E+02  0.14609551135E+02  0.51555022440E+02  0.55304181025E+02  0.00000000000E+00 0.  1.
         11    1    1    2    0    0 -0.37420077755E+01 -0.16705512558E+02 -0.32571312525E+02  0.36796292906E+02  0.00000000000E+00 0. -1.
</event>
<event>
 7    1  0.3151015E-009  0.9868801E+02  0.7561462E-02  0.1283079E+00
          2   -1    0    0  501    0  0.00000000000E+00  0.00000000000E+00  0.71166015808E+03  0.71166015808E+03  0.00000000000E+00 0. -1.
         -2   -1    0    0    0  501 -0.00000000000E+00 -0.00000000000E+00 -0.24890951010E+02  0.24890951010E+02  0.00000000000E+00 0.  1.
         25    2    1    2    0    0  0.63264064327E+02  0.36408277217E+02  0.34151415993E+03  0.37095442051E+03  0.12508939274E+03 0.  0.
          5    1    3    3  502    0  0.31312671680E+02  0.16960845348E+01  0.61074625323E+01  0.32220080836E+02  0.41800000000E+01 0.  1.
         -5    1    3    3    0  502  0.31951392648E+02  0.34712192682E+02  0.33540669740E+03  0.33873433967E+03  0.41800000000E+01 0.  1.
        -11    1    1    2    0    0 -0.82531953719E+02 -0.64847819451E+01  0.20976942237E+03  0.22551449254E+03  0.00000000000E+00 0.  1.
         11    1    1    2    0    0  0.19267889392E+02 -0.29923495272E+02  0.13548562477E+03  0.14008219605E+03  0.00000000000E+00 0. -1.
</event>
<event>
 7    1  0.3151015E-009  0.1068240E+03  0.7561462E-02  0.1266567E+00
          1   -1    0    0  501    0  0.00000000000E+00  0.00000000000E+00  0.95756899578E+03  0.95756899578E+03  0.00000000000E+00 0.  1.
         -1   -1    0    0    0  501 -0.00000000000E+00 -0.00000000000E+00 -0.14488530177E+02  0.14488530177E+02  0.00000000000E+00 0. -1.
         25    2    1    2    0    0  0.27582884558E+01  0.44599938820E+02  0.59093936951E+03  0.60568438082E+03  0.12508983987E+03 0.  0.
          5    1    3    3  502    0  0.50885933498E+02  0.44205558292E+02  0.47938092283E+03  0.48411470870E+03  0.41800000000E+01 0.  1.
         -5    1    3    3    0  502 -0.48127645042E+02  0.39438052788E+00  0.11155844668E+03  0.12156967212E+03  0.41800000000E+01 0.  1.
        -11    1    1    2    0    0 -0.80953871193E+01 -0.70700174575E+02  0.20923916171E+03  0.22100922327E+03  0.00000000000E+00 0.  1.
         11    1    1    2    0    0  0.53370986635E+01  0.26100235756E+02  0.14290193438E+03  0.14536392186E+03  0.00000000000E+00 0. -1.
</event>
<event>
 7    1  0.3151015E-009  0.1510684E+03  0.7561462E-02  0.1199166E+00
          1   -1    0    0  501    0  0.00000000000E+00  0.00000000000E+00  0.37246035924E+02  0.37246035924E+02  0.00000000000E+00 0. -1.
         -1   -1    0    0    0  501 -0.00000000000E+00 -0.00000000000E+00 -0.76784361069E+03  0.76784361069E+03  0.00000000000E+00 0.  1.
         25    2    1    2    0    0 -0.43032867307E+02 -0.11419378233E+03 -0.50163234615E+03  0.53119996635E+03  0.12508535467E+03 0.  0.
          5    1    3    3  502    0 -0.70150848919E+02 -0.10531848633E+03 -0.47621698798E+03  0.49276081135E+03  0.41800000000E+01 0.  1.
         -5    1    3    3    0  502  0.27117981612E+02 -0.88752960037E+01 -0.25415358173E+02  0.38439154998E+02  0.41800000000E+01 0.  1.
        -11    1    1    2    0    0  0.48332405035E+02  0.19939711106E+02 -0.11182830479E+03  0.12344708667E+03  0.00000000000E+00 0.  1.
         11    1    1    2    0    0 -0.52995377273E+01  0.94254071226E+02 -0.11713692382E+03  0.15044259358E+03  0.00000000000E+00 0. -1.
</event>
<event>
 7    1  0.3151015E-009  0.1790239E+03  0.7561462E-02  0.1168751E+00
          1   -1    0    0  501    0  0.00000000000E+00  0.00000000000E+00  0.97103706265E+02  0.97103706265E+02  0.00000000000E+00 0. -1.
         -1   -1    0    0    0  501 -0.00000000000E+00 -0.00000000000E+00 -0.34807053212E+03  0.34807053212E+03  0.00000000000E+00 0.  1.
         25    2    1    2    0    0 -0.12314130715E+03 -0.80559142811E+02 -0.10930855070E+03  0.22192251143E+03  0.12509070632E+03 0.  0.
          5    1    3    3  502    0 -0.60874761739E+02 -0.10457594663E+03 -0.94107724208E+02  0.15334797483E+03  0.41800000000E+01 0. -1.
         -5    1    3    3    0  502 -0.62266545415E+02  0.24016803818E+02 -0.15200826487E+02  0.68574536596E+02  0.41800000000E+01 0. -1.
        -11    1    1    2    0    0  0.13247412462E+03  0.55987812810E+02 -0.13210972415E+03  0.19528698905E+03  0.00000000000E+00 0.  1.
         11    1    1    2    0    0 -0.93328174642E+01  0.24571330001E+02 -0.95485510128E+01  0.27964737908E+02  0.00000000000E+00 0. -1.
</event>
<event>
 7    1  0.3151015E-009  0.1220060E+03  0.7561462E-02  0.1239824E+00
         -3   -1    0    0    0  501 -0.00000000000E+00  0.00000000000E+00  0.37685951476E+03  0.37685951476E+03  0.00000000000E+00 0.  1.
          3   -1    0    0  501    0  0.00000000000E+00 -0.00000000000E+00 -0.47890762529E+02  0.47890762529E+02  0.00000000000E+00 0. -1.
         25    2    1    2    0    0  0.19579268131E+01 -0.76422238569E+02  0.14236231853E+03  0.20435098560E+03  0.12509238008E+03 0.  0.
          5    1    3    3  502    0  0.42015143498E+02  0.10630279300E+02  0.17560509422E+02  0.46948045884E+02  0.41800000000E+01 0.  1.
         -5    1    3    3    0  502 -0.40057216685E+02 -0.87052517869E+02  0.12480180911E+03  0.15740293972E+03  0.41800000000E+01 0.  1.
        -11    1    1    2    0    0 -0.29269391575E+02  0.72042984617E+01  0.10813133995E+03  0.11225411297E+03  0.00000000000E+00 0.  1.
         11    1    1    2    0    0  0.27311464762E+02  0.69217940107E+02  0.78475093750E+02  0.10814517871E+03  0.00000000000E+00 0. -1.
</event>
<event>
 7    1  0.3151015E-009  0.9153111E+02  0.7561462E-02  0.1299186E+00
          2   -1    0    0  501    0  0.00000000000E+00  0.00000000000E+00  0.20580696446E+03  0.20580696446E+03  0.00000000000E+00 0. -1.
         -2   -1    0    0    0  501 -0.00000000000E+00 -0.00000000000E+00 -0.57337102499E+02  0.57337102499E+02  0.00000000000E+00 0.  1.
         25    2    1    2    0    0  0.14072476753E+02 -0.17128139163E+02  0.77991111916E+02  0.14906927494E+03  0.12509047702E+03 0.  0.
          5    1    3    3  502    0  0.69396489792E+02 -0.15901760821E+02  0.48258579682E+02  0.86110984814E+02  0.41800000000E+01 0. -1.
         -5    1    3    3    0  502 -0.55324013039E+02 -0.12263783420E+01  0.29732532234E+02  0.62958290126E+02  0.41800000000E+01 0. -1.
        -11    1    1    2    0    0 -0.26461691437E+02 -0.84919168205E+01 -0.93527803025E+01  0.29322487349E+02  0.00000000000E+00 0.  1.
         11    1    1    2    0    0  0.12389214683E+02  0.25620055983E+02  0.79831530344E+02  0.84752304665E+02  0.00000000000E+00 0. -1.
</event>
<event>
 7    1  0.3151015E-009  0.1122012E+03  0.7561462E-02  0.1256547E+00
         -2   -1    0    0    0  501 -0.00000000000E+00  0.00000000000E+00  0.28201439554E+02  0.28201439554E+02  0.00000000000E+00 0.  1.
          2   -1    0    0  501    0  0.00000000000E+00 -0.00000000000E+00 -0.59940605966E+03  0.59940605966E+03  0.00000000000E+00 0. -1.
         25    2    1    2    0    0 -0.44592120720E+02  0.22040087544E+02 -0.19006106835E+03  0.23290584155E+03  0.12509076158E+03 0.  0.
          5    1    3    3  502    0 -0.53873047664E+02  0.61700654035E+02 -0.76375161708E+02  0.11207102078E+03  0.41800000000E+01 0.  1.
         -5    1    3    3    0  502  0.92809269444E+01 -0.39660566491E+02 -0.11368590665E+03  0.12083482077E+03  0.41800000000E+01 0.  1.
        -11    1    1    2    0    0 -0.27021847467E+02 -0.10043085942E+02 -0.83776246463E+02  0.88597422576E+02  0.00000000000E+00 0.  1.
         11    1    1    2    0    0  0.71613968187E+02 -0.11997001602E+02 -0.29736730529E+03  0.30610423510E+03  0.00000000000E+00 0. -1.
</event>
<event>
 7    1  0.3151015E-009  0.1078965E+03  0.7561462E-02  0.1264516E+00
         -1   -1    0    0    0  501 -0.00000000000E+00  0.00000000000E+00  0.45656765198E+03  0.45656765198E+03  0.00000000000E+00 0.  1.
          1   -1    0    0  501    0  0.00000000000E+00 -0.00000000000E+00 -0.37889096568E+02  0.37889096568E+02  0.00000000000E+00 0. -1.
         25    2    1    2    0    0  0.20931570939E+02 -0.68088631233E+02  0.24759639495E+03  0.28639971278E+03  0.12508648339E+03 0.  0.
          5    1    3    3  502    0  0.56551374813E+02 -0.23878696527E+02  0.45733923195E+02  0.76663643742E+02  0.41800000000E+01 0.  1.
         -5    1    3    3    0  502 -0.35619803874E+02 -0.44209934706E+02  0.20186247175E+03  0.20973606904E+03  0.41800000000E+01 0.  1.
        -11    1    1    2    0    0  0.20945896086E+02  0.44716017639E+02  0.14560817659E+03  0.15375302887E+03  0.00000000000E+00 0.  1.
         11    1    1    2    0    0 -0.41877467024E+02  0.23372613594E+02  0.25473983875E+02  0.54304006897E+02  0.00000000000E+00 0. -1.
</event>
<event>
 7    1  0.3244117E-009  0.1172648E+03  0.7561462E-02  0.1247679E+00
          1   -1    0    0  501    0  0.00000000000E+00  0.00000000000E+00  0.71179146633E+03  0.71179146633E+03  0.00000000000E+00 0. -1.
         -1   -1    0    0    0  501 -0.00000000000E+00 -0.00000000000E+00 -0.24793504872E+02  0.24793504872E+02  0.00000000000E+00 0.  1.
         25    2    1    2    0    0  0.18545591201E+02 -0.73491898683E+02  0.40465600701E+03  0.43027743817E+03  0.12508873515E+03 0.  0.
          5    1    3    3  502    0  0.62909083854E+02 -0.38684611720E+01  0.15905786593E+03  0.17114144716E+03  0.41800000000E+01 0.  1.
         -5    1    3    3    0  502 -0.44363492653E+02 -0.69623437511E+02  0.24559814109E+03  0.25913599101E+03  0.41800000000E+01 0.  1.
        -11    1    1    2    0    0  0.14500877404E+02  0.11719061034E+02  0.37185016899E+01  0.19011551536E+02  0.00000000000E+00 0.  1.
         11    1    1    2    0    0 -0.33046468604E+02  0.61772837650E+02  0.27862345275E+03  0.28729598149E+03  0.00000000000E+00 0. -1.
</event>
<event>
 7    1  0.3151015E-009  0.2537353E+03  0.7561462E-02  0.1110967E+00
         -1   -1    0    0    0  501 -0.00000000000E+00  0.00000000000E+00  0.23785548538E+03  0.23785548538E+03  0.00000000000E+00 0.  1.
          1   -1    0    0  501    0  0.00000000000E+00 -0.00000000000E+00 -0.30333312933E+03  0.30333312933E+03  0.00000000000E+00 0. -1.
         25    2    1    2    0    0  0.18935456237E+02  0.24416526466E+03 -0.39933376865E+02  0.27788105268E+03  0.12509187375E+03 0.  0.
          5    1    3    3  502    0 -0.20822515698E+02  0.49482834180E+02 -0.56990164458E+02  0.78405862558E+02  0.41800000000E+01 0.  1.
         -5    1    3    3    0  502  0.39757971935E+02  0.19468243048E+03  0.17056787592E+02  0.19947519012E+03  0.41800000000E+01 0.  1.
        -11    1    1    2    0    0 -0.41480219541E+02 -0.90319102470E+02  0.19799039179E+02  0.10134175268E+03  0.00000000000E+00 0.  1.
         11    1    1    2    0    0  0.22544763303E+02 -0.15384616219E+03 -0.45343306264E+02  0.16196580935E+03  0.00000000000E+00 0. -1.
</event>
<event>
 7    1  0.3151015E-009  0.1057043E+03  0.7561462E-02  0.1268738E+00
         -2   -1    0    0    0  501 -0.00000000000E+00  0.00000000000E+00  0.44360689032E+03  0.44360689032E+03  0.00000000000E+00 0.  1.
          2   -1    0    0  501    0  0.00000000000E+00 -0.00000000000E+00 -0.29749178637E+02  0.29749178637E+02  0.00000000000E+00 0. -1.
         25    2    1    2    0    0  0.26950363229E+02  0.22409415640E+02  0.19929671753E+03  0.23789812023E+03  0.12509128668E+03 0.  0.
          5    1    3    3  502    0 -0.32856189650E+02 -0.32794987368E+02  0.54244036820E+02  0.71518727095E+02  0.41800000000E+01 0.  1.
         -5    1    3    3    0  502  0.59806552879E+02  0.55204403009E+02  0.14505268071E+03  0.16637939314E+03  0.41800000000E+01 0.  1.
        -11    1    1    2    0    0  0.15940556031E+02 -0.35118312048E+02  0.16157201424E+03  0.16611114639E+03  0.00000000000E+00 0.  1.
         11    1    1    2    0    0 -0.42890919260E+02  0.12708896407E+02  0.52988979907E+02  0.69346802338E+02  0.00000000000E+00 0. -1.
</event>
<event>
 7    1  0.3151015E-009  0.2061008E+03  0.7561462E-02  0.1144691E+00
         -2   -1    0    0    0  501 -0.00000000000E+00  0.00000000000E+00  0.31718012950E+02  0.31718012950E+02  0.00000000000E+00 0.  1.
          2   -1    0    0  501    0  0.00000000000E+00 -0.00000000000E+00 -0.14330676939E+04  0.14330676939E+04  0.00000000000E+00 0. -1.
         25    2    1    2    0    0  0.10122593385E+03 -0.15382697901E+03 -0.79624009409E+03  0.82677340725E+03  0.12508617161E+03 0.  0.
          5    1    3    3  502    0  0.12055531964E+03 -0.15212509086E+03 -0.62692408482E+03  0.65629788122E+03  0.41800000000E+01 0. -1.
         -5    1    3    3    0  502 -0.19329385789E+02 -0.17018881559E+01 -0.16931600927E+03  0.17047552603E+03  0.41800000000E+01 0. -1.
        -11    1    1    2    0    0 -0.52781932843E+01  0.71742243773E+02 -0.16180330161E+03  0.17707376225E+03  0.00000000000E+00 0.  1.
         11    1    1    2    0    0 -0.95947740566E+02  0.82084735241E+02 -0.44330628524E+03  0.46093853735E+03  0.00000000000E+00 0. -1.
</event>
<event>
 7    1  0.3151015E-009  0.9601504E+02  0.7561462E-02  0.1288906E+00
         -2   -1    0    0    0  501 -0.00000000000E+00  0.00000000000E+00  0.25621454826E+02  0.25621454826E+02  0.00000000000E+00 0.  1.
          2   -1    0    0  501    0  0.00000000000E+00 -0.00000000000E+00 -0.57907070846E+03  0.57907070846E+03  0.00000000000E+00 0. -1.
         25    2    1    2    0    0 -0.18209818738E+02  0.33929795292E+02 -0.40890955834E+03  0.42934530819E+03  0.12509012055E+03 0.  0.
          5    1    3    3  502    0  0.53624490408E+02  0.20637502137E+02 -0.17186037807E+03  0.18125935677E+03  0.41800000000E+01 0. -1.
         -5    1    3    3    0  502 -0.71834309146E+02  0.13292293155E+02 -0.23704918027E+03  0.24808595143E+03  0.41800000000E+01 0. -1.
        -11    1    1    2    0    0 -0.27095376596E+01 -0.39504226091E+02 -0.14819254582E+03  0.15339151251E+03  0.00000000000E+00 0. -1.
         11    1    1    2    0    0  0.20919356398E+02  0.55744307995E+01  0.36528505280E+01  0.21955342580E+02  0.00000000000E+00 0.  1.
</event>
<event>
 7    1  0.3151015E-009  0.1212344E+03  0.7561462E-02  0.1241074E+00
          2   -1    0    0  501    0  0.00000000000E+00  0.00000000000E+00  0.11960382346E+04  0.11960382346E+04  0.00000000000E+00 0. -1.
         -2   -1    0    0    0  501 -0.00000000000E+00 -0.00000000000E+00 -0.17460305931E+02  0.17460305931E+02  0.00000000000E+00 0.  1.
         25    2    1    2    0    0  0.65368483666E+02  0.59486808449E+02  0.78647035664E+03  0.80124604383E+03  0.12509149392E+03 0.  0.
          5    1    3    3  502    0  0.51451146042E+02 -0.56140111934E+01  0.11161313714E+03  0.12310037503E+03  0.41800000000E+01 0.  1.
         -5    1    3    3    0  502  0.13917337623E+02  0.65100819642E+02  0.67485721950E+03  0.67814566881E+03  0.41800000000E+01 0.  1.
        -11    1    1    2    0    0 -0.26838786698E+02 -0.76981092947E+02  0.20943846812E+03  0.22474625930E+03  0.00000000000E+00 0.  1.
         11    1    1    2    0    0 -0.38529696968E+02  0.17494284498E+02  0.18266910393E+03  0.18750623741E+03  0.00000000000E+00 0. -1.
</event>
<event>
 7    1  0.3151015E-009  0.1103543E+03  0.7561462E-02  0.1259915E+00
         -1   -1    0    0    0  501 -0.00000000000E+00  0.00000000000E+00  0.94618148876E+02  0.94618148876E+02  0.00000000000E+00 0.  1.
          1   -1    0    0  501    0  0.00000000000E+00 -0.00000000000E+00 -0.24627290362E+03  0.24627290362E+03  0.00000000000E+00 0. -1.
         25    2    1    2    0    0  0.89935209145E+02 -0.21169468420E+02 -0.61621407911E+02  0.16728091405E+03  0.12509683471E+03 0.  0.
          5    1    3    3  502    0  0.69646941479E+02 -0.27240968318E+01  0.26662276295E+02  0.74742668792E+02  0.41800000000E+01 0. -1.
         -5    1    3    3    0  502  0.20288267666E+02 -0.18445371589E+02 -0.88283684206E+02  0.92538245256E+02  0.41800000000E+01 0. -1.
        -11    1    1    2    0    0 -0.10428980532E+03  0.96387756278E+01 -0.27304551430E+02  0.10823496671E+03  0.00000000000E+00 0.  1.
         11    1    1    2    0    0  0.14354596174E+02  0.11530692793E+02 -0.62728795400E+02  0.65375171739E+02  0.00000000000E+00 0. -1.
</event>
<event>
 7    1  0.3151015E-009  0.1625448E+03  0.7561462E-02  0.1185853E+00
         -3   -1    0    0    0  501 -0.00000000000E+00  0.00000000000E+00  0.55677162748E+03  0.55677162748E+03  0.00000000000E+00 0.  1.
          3   -1    0    0  501    0  0.00000000000E+00 -0.00000000000E+00 -0.57135790976E+02  0.57135790976E+02  0.00000000000E+00 0. -1.
         25    2    1    2    0    0  0.11732668118E+03 -0.58190752831E+02  0.17316059881E+03  0.25056902376E+03  0.12509408003E+03 0.  0.
          5    1    3    3  502    0 -0.19409436131E+02  0.70276016775E+01  0.82784700017E+00  0.21077740081E+02  0.41800000000E+01 0. -1.
         -5    1    3    3    0  502  0.13673611731E+03 -0.65218354508E+02  0.17233275181E+03  0.22949128368E+03  0.41800000000E+01 0. -1.
        -11    1    1    2    0    0 -0.14005214169E+02  0.46420767410E+02  0.59051527857E+02  0.76407569083E+02  0.00000000000E+00 0. -1.
         11    1    1    2    0    0 -0.10332146701E+03  0.11769985420E+02  0.26742370984E+03  0.28693082561E+03  0.00000000000E+00 0.  1.
</event>
<event>
 7    1  0.3151015E-009  0.9567127E+02  0.7561462E-02  0.1289671E+00
         -2   -1    0    0    0  501 -0.00000000000E+00  0.00000000000E+00  0.22315911249E+03  0.22315911249E+03  0.00000000000E+00 0. -1.
          2   -1    0    0  501    0  0.00000000000E+00 -0.00000000000E+00 -0.24808030534E+03  0.24808030534E+03  0.00000000000E+00 0.  1.
         25    2    1    2    0    0 -0.43461049128E+02 -0.43095080491E+02  0.18656396744E+03  0.23280870003E+03  0.12509087940E+03 0.  0.
          5    1    3    3  502    0 -0.32882114245E+02  0.24174257959E+02  0.14978602808E+03  0.15530278424E+03  0.41800000000E+01 0. -1.
         -5    1    3    3    0  502 -0.10578934882E+02 -0.67269338450E+02  0.36777939358E+02  0.77505915788E+02  0.41800000000E+01 0. -1.
        -11    1    1    2    0    0  0.40290140807E+02  0.14387551523E+01 -0.25256582780E+02  0.47573736835E+02  0.00000000000E+00 0. -1.
         11    1    1    2    0    0  0.31709083202E+01  0.41656325339E+02 -0.18622857751E+03  0.19085698096E+03  0.00000000000E+00 0.  1.
</event>
<event>
 7    1  0.3151015E-009  0.1341985E+03  0.7561462E-02  0.1221356E+00
          2   -1    0    0  501    0  0.00000000000E+00  0.00000000000E+00  0.18675228707E+03  0.18675228707E+03  0.00000000000E+00 0. -1.
         -2   -1    0    0    0  501 -0.00000000000E+00 -0.00000000000E+00 -0.15210570140E+03  0.15210570140E+03  0.00000000000E+00 0.  1.
         25    2    1    2    0    0  0.79013167118E+02  0.71387930699E+02 -0.52747633778E+02  0.17254053475E+03  0.12509438851E+03 0.  0.
          5    1    3    3  502    0  0.35958285803E+02 -0.19091741155E+02 -0.59284847574E+02  0.72039284076E+02  0.41800000000E+01 0. -1.
         -5    1    3    3    0  502  0.43054881314E+02  0.90479671853E+02  0.65372137961E+01  0.10050125068E+03  0.41800000000E+01 0. -1.
        -11    1    1    2    0    0 -0.82292838920E+02 -0.33013602094E+02  0.23527028154E+02  0.91736199587E+02  0.00000000000E+00 0.  1.
         11    1    1    2    0    0  0.32796718029E+01 -0.38374328604E+02  0.63867191297E+02  0.74581254127E+02  0.00000000000E+00 0. -1.
</event>
<event>
 7    1  0.3151015E-009  0.1382646E+03  0.7561462E-02  0.1215683E+00
         -2   -1    0    0    0  501 -0.00000000000E+00  0.00000000000E+00  0.17829666317E+03  0.17829666317E+03  0.00000000000E+00 0.  1.
          2   -1    0    0  501    0  0.00000000000E+00 -0.00000000000E+00 -0.12880252179E+03  0.12880252179E+03  0.00000000000E+00 0. -1.
         25    2    1    2    0    0  0.87461674451E+02  0.57906177721E+02  0.38864277037E+02  0.16781181521E+03  0.12509078054E+03 0.  0.
          5    1    3    3  502    0  0.10365461200E+03  0.15110119783E+02 -0.40896753767E+01  0.10491326014E+03  0.41800000000E+01 0.  1.
         -5    1    3    3    0  502 -0.16192937549E+02  0.42796057937E+02  0.42953952413E+02  0.62898555066E+02  0.41800000000E+01 0.  1.
        -11    1    1    2    0    0  0.11460588211E+02 -0.12322988271E+02 -0.20004793680E+02  0.26141784412E+02  0.00000000000E+00 0. -1.
         11    1    1    2    0    0 -0.98922262662E+02 -0.45583189449E+02  0.30634658028E+02  0.11314558534E+03  0.00000000000E+00 0.  1.
</event>
<event>
 7    1  0.3151015E-009  0.8686806E+02  0.7561462E-02  0.1310618E+00
          2   -1    0    0  501    0  0.00000000000E+00  0.00000000000E+00  0.14028437250E+03  0.14028437250E+03  0.00000000000E+00 0. -1.
         -2   -1    0    0    0  501 -0.00000000000E+00 -0.00000000000E+00 -0.11738407987E+03  0.11738407987E+03  0.00000000000E+00 0.  1.
         25    2    1    2    0    0 -0.46736893356E+02 -0.53676419323E+02  0.13793647256E+02  0.14458679859E+03  0.12509829107E+03 0.  0.
          5    1    3    3  502    0 -0.47323800295E+02 -0.45142623873E+02  0.65118353751E+02  0.92386530186E+02  0.41800000000E+01 0.  1.
         -5    1    3    3    0  502  0.58690693844E+00 -0.85337954502E+01 -0.51324706495E+02  0.52200268403E+02  0.41800000000E+01 0.  1.
        -11    1    1    2    0    0  0.62525632352E+01  0.57662161447E+02  0.32164028301E+02  0.66321520838E+02  0.00000000000E+00 0. -1.
         11    1    1    2    0    0  0.40484330121E+02 -0.39857421236E+01 -0.23057382923E+02  0.46760132943E+02  0.00000000000E+00 0.  1.
</event>
<event>
 7    1  0.3151015E-009  0.1215513E+03  0.7561462E-02  0.1240560E+00
         -1   -1    0    0    0  501 -0.00000000000E+00  0.00000000000E+00  0.12770361266E+03  0.12770361266E+03  0.00000000000E+00 0.  1.
          1   -1    0    0  501    0  0.00000000000E+00 -0.00000000000E+00 -0.17775128681E+03  0.17775128681E+03  0.00000000000E+00 0. -1.
         25    2    1    2    0    0 -0.85322261471E+02 -0.57055541220E+02 -0.22105719113E+02  0.16331417529E+03  0.12509050302E+03 0.  0.
          5    1    3    3  502    0 -0.86513018993E+02 -0.77964576361E+02 -0.51147514564E+02  0.12726554235E+03  0.41800000000E+01 0.  1.
         -5    1    3    3    0  502  0.11907575224E+01  0.20909035141E+02  0.29041795450E+02  0.36048632942E+02  0.41800000000E+01 0.  1.
        -11    1    1    2    0    0  0.31440813945E+02  0.34842060356E+02  0.33342064942E+02  0.57568978156E+02  0.00000000000E+00 0.  1.
         11    1    1    2    0    0  0.53881447526E+02  0.22213480864E+02 -0.61284019978E+02  0.84571746016E+02  0.00000000000E+00 0. -1.
</event>
<event>
 7    1  0.3151015E-009  0.1983998E+03  0.7561462E-02  0.1151096E+00
         -2   -1    0    0    0  501 -0.00000000000E+00  0.00000000000E+00  0.38529606897E+02  0.38529606897E+02  0.00000000000E+00 0.  1.
          2   -1    0    0  501    0  0.00000000000E+00 -0.00000000000E+00 -0.12733285198E+04  0.12733285198E+04  0.00000000000E+00 0. -1.
         25    2    1    2    0    0 -0.39803771222E+02  0.18807613327E+03 -0.65152510177E+03  0.69071678633E+03  0.12509096118E+03 0.  0.
          5    1    3    3  502    0 -0.23025099915E+02  0.11229974914E+03 -0.55528832365E+03  0.56701321295E+03  0.41800000000E+01 0.  1.
         -5    1    3    3    0  502 -0.16778671307E+02  0.75776384129E+02 -0.96236778124E+02  0.12370357338E+03  0.41800000000E+01 0.  1.
        -11    1    1    2    0    0  0.31622394093E+02 -0.23043002229E+02 -0.54077064784E+02  0.66747919035E+02  0.00000000000E+00 0.  1.
         11    1    1    2    0    0  0.81813771286E+01 -0.16503313104E+03 -0.52919674635E+03  0.55439342134E+03  0.00000000000E+00 0. -1.
</event>
<event>
 7    1  0.3151015E-009  0.8214055E+02  0.7561462E-02  0.1323084E+00
         -1   -1    0    0    0  501 -0.00000000000E+00  0.00000000000E+00  0.32257940838E+02  0.32257940838E+02  0.00000000000E+00 0.  1.
          1   -1    0    0  501    0  0.00000000000E+00 -0.00000000000E+00 -0.46897291711E+03  0.46897291711E+03  0.00000000000E+00 0. -1.
         25    2    1    2    0    0  0.42487531588E+02  0.31638782286E+01 -0.16641903933E+03  0.21251148387E+03  0.12510249261E+03 0.  0.
          5    1    3    3  502    0 -0.19051324943E+02 -0.85658924697E+01  0.11238722640E+02  0.24085447525E+02  0.41800000000E+01 0. -1.
         -5    1    3    3    0  502  0.61538856531E+02  0.11729770698E+02 -0.17765776197E+03  0.18842603634E+03  0.41800000000E+01 0. -1.
        -11    1    1    2    0    0  0.18042810514E+02 -0.74282317217E+01 -0.10961245905E+02  0.22380137389E+02  0.00000000000E+00 0.  1.
         11    1    1    2    0    0 -0.60530342102E+02  0.42643534931E+01 -0.25933469103E+03  0.26633923669E+03  0.00000000000E+00 0. -1.
</event>
<event>
 7    1  0.3151015E-009  0.8994928E+02  0.7561462E-02  0.1302975E+00
          1   -1    0    0  501    0  0.00000000000E+00  0.00000000000E+00  0.41823221447E+03  0.41823221447E+03  0.00000000000E+00 0. -1.
         -1   -1    0    0    0  501 -0.00000000000E+00 -0.00000000000E+00 -0.29298161291E+02  0.29298161291E+02  0.00000000000E+00 0.  1.
         25    2    1    2    0    0 -0.83265256528E+01  0.15205465526E+02  0.29155231677E+03  0.31772744939E+03  0.12508973367E+03 0.  0.
          5    1    3    3  502    0 -0.30039151138E+02 -0.36271795713E+02  0.46364911144E+02  0.66220624814E+02  0.41800000000E+01 0. -1.
         -5    1    3    3    0  502  0.21712625485E+02  0.51477261239E+02  0.24518740562E+03  0.25150682457E+03  0.41800000000E+01 0. -1.
        -11    1    1    2    0    0  0.26195914130E+02  0.22715046232E+02  0.15845812633E+02  0.38122028021E+02  0.00000000000E+00 0.  1.
         11    1    1    2    0    0 -0.17869388477E+02 -0.37920511758E+02  0.81535923777E+02  0.91680898352E+02  0.00000000000E+00 0. -1.
</event>
<event>
 7    1  0.3151015E-009  0.1850721E+03  0.7561462E-02  0.1162983E+00
         -2   -1    0    0    0  501 -0.00000000000E+00  0.00000000000E+00  0.73870230419E+02  0.73870230419E+02  0.00000000000E+00 0. -1.
          2   -1    0    0  501    0  0.00000000000E+00 -0.00000000000E+00 -0.54445553097E+03  0.54445553097E+03  0.00000000000E+00 0.  1.
         25    2    1    2    0    0  0.15768719848E+03 -0.36934778932E+02 -0.17308605768E+03  0.26802071220E+03  0.12508752276E+03 0.  0.
          5    1    3    3  502    0  0.17247552630E+03 -0.38847069243E+02 -0.12253113538E+03  0.21514705087E+03  0.41800000000E+01 0.  1.
         -5    1    3    3    0  502 -0.14788327825E+02  0.19122903110E+01 -0.50554922294E+02  0.52873661329E+02  0.41800000000E+01 0.  1.
        -11    1    1    2    0    0 -0.40099113966E+02 -0.22581584001E+02 -0.12513496312E+03  0.13332901361E+03  0.00000000000E+00 0.  1.
         11    1    1    2    0    0 -0.11758808451E+03  0.59516362933E+02 -0.17236427976E+03  0.21697603557E+03  0.00000000000E+00 0. -1.
</event>
<event>
 7    1  0.3151015E-009  0.1678213E+03  0.7561462E-02  0.1180139E+00
         -2   -1    0    0    0  501 -0.00000000000E+00  0.00000000000E+00  0.65541129848E+02  0.65541129848E+02  0.00000000000E+00 0.  1.
          2   -1    0    0  501    0  0.00000000000E+00 -0.00000000000E+00 -0.59304091002E+03  0.59304091002E+03  0.00000000000E+00 0. -1.
         25    2    1    2    0    0 -0.60247333269E+02 -0.14842297612E+03 -0.21613366794E+03  0.29668757557E+03  0.12510249428E+03 0.  0.
          5    1    3    3  502    0 -0.19154842263E+02 -0.11896467706E+03 -0.64386561404E+02  0.13668432266E+03  0.41800000000E+01 0.  1.
         -5    1    3    3    0  502 -0.41092491006E+02 -0.29458299054E+02 -0.15174710653E+03  0.16000325291E+03  0.41800000000E+01 0.  1.
        -11    1    1    2    0    0  0.32884140287E+02  0.36534780327E+02 -0.18272343597E+03  0.18921947814E+03  0.00000000000E+00 0. -1.
         11    1    1    2    0    0  0.27363192982E+02  0.11188819579E+03 -0.12864267627E+03  0.17267498616E+03  0.00000000000E+00 0.  1.
</event>
<event>
 7    1  0.3151015E-009  0.1525728E+03  0.7561462E-02  0.1197347E+00
         -2   -1    0    0    0  501 -0.00000000000E+00  0.00000000000E+00  0.24192313700E+03  0.24192313700E+03  0.00000000000E+00 0.  1.
          2   -1    0    0  501    0  0.00000000000E+00 -0.00000000000E+00 -0.98315419418E+02  0.98315419418E+02  0.00000000000E+00 0. -1.
         25    2    1    2    0    0  0.99010077062E+02 -0.57268559609E+02  0.95567844254E+02  0.19458482550E+03  0.12508940075E+03 0.  0.
          5    1    3    3  502    0  0.23789615198E+02  0.39467410924E+02  0.33743387708E+02  0.57268760510E+02  0.41800000000E+01 0.  1.
         -5    1    3    3    0  502  0.75220461865E+02 -0.96735970533E+02  0.61824456546E+02  0.13731606499E+03  0.41800000000E+01 0.  1.
        -11    1    1    2    0    0 -0.58099269903E+02  0.72234560045E+02  0.23409596975E+02  0.95610491363E+02  0.00000000000E+00 0. -1.
         11    1    1    2    0    0 -0.40910807160E+02 -0.14966000436E+02  0.24630276351E+02  0.50043239550E+02  0.00000000000E+00 0.  1.
</event>
<event>
 7    1  0.3151015E-009  0.1242014E+03  0.7561462E-02  0.1236323E+00
         -1   -1    0    0    0  501 -0.00000000000E+00  0.00000000000E+00  0.43318648734E+02  0.43318648734E+02  0.00000000000E+00 0.  1.
          1   -1    0    0  501    0  0.00000000000E+00 -0.00000000000E+00 -0.63450777856E+03  0.63450777856E+03  0.00000000000E+00 0. -1.
         25    2    1    2    0    0 -0.38771687420E+02  0.64656957181E+02 -0.51969710846E+03  0.53983208353E+03  0.12509927261E+03 0.  0.
          5    1    3    3  502    0  0.43912250729E+02  0.58244764461E+01 -0.15962483047E+03  0.16570989468E+03  0.41800000000E+01 0.  1.
         -5    1    3    3    0  502 -0.82683938150E+02  0.58832480735E+02 -0.36007227799E+03  0.37412218885E+03  0.41800000000E+01 0.  1.
        -11    1    1    2    0    0  0.55135030007E+02 -0.27220922291E+02 -0.75004914157E+02  0.96987562563E+02  0.00000000000E+00 0. -1.
         11    1    1    2    0    0 -0.16363342587E+02 -0.37436034890E+02  0.35128927891E+01  0.41006781203E+02  0.00000000000E+00 0.  1.
</event>
<event>
 7    1  0.3151015E-009  0.1018036E+03  0.7561462E-02  0.1276548E+00
          2   -1    0    0  501    0  0.00000000000E+00  0.00000000000E+00  0.10614454789E+03  0.10614454789E+03  0.00000000000E+00 0. -1.
         -2   -1    0    0    0  501 -0.00000000000E+00 -0.00000000000E+00 -0.22420132291E+03  0.22420132291E+03  0.00000000000E+00 0.  1.
         25    2    1    2    0    0 -0.86686909980E+02 -0.19997969060E+02 -0.12855522688E+03  0.20022066984E+03  0.12508929269E+03 0.  0.
          5    1    3    3  502    0 -0.72602800927E+02 -0.25848330567E+02 -0.68401621163E+01  0.77482663308E+02  0.41800000000E+01 0. -1.
         -5    1    3    3    0  502 -0.14084109053E+02  0.58503615079E+01 -0.12171506476E+03  0.12273800654E+03  0.41800000000E+01 0. -1.
        -11    1    1    2    0    0  0.94269388644E+02  0.57145183582E+01  0.35041322468E+02  0.10073364699E+03  0.00000000000E+00 0. -1.
         11    1    1    2    0    0 -0.75824786635E+01  0.14283450701E+02 -0.24542870607E+02  0.29391553961E+02  0.00000000000E+00 0.  1.
</event>
<event>
 7    1  0.3151015E-009  0.1355048E+03  0.7561462E-02  0.1219509E+00
         -1   -1    0    0    0  501 -0.00000000000E+00  0.00000000000E+00  0.19517838703E+03  0.19517838703E+03  0.00000000000E+00 0.  1.
          1   -1    0    0  501    0  0.00000000000E+00 -0.00000000000E+00 -0.11737732702E+03  0.11737732702E+03  0.00000000000E+00 0. -1.
         25    2    1    2    0    0  0.15858785197E+02 -0.10431429614E+03  0.41489678700E+02  0.16882459250E+03  0.12508947257E+03 0.  0.
          5    1    3    3  502    0  0.29350009324E+02  0.20656870968E+02  0.19796105951E+02  0.41200577379E+02  0.41800000000E+01 0.  1.
         -5    1    3    3    0  502 -0.13491224128E+02 -0.12497116711E+03  0.21693572748E+02  0.12762401512E+03  0.41800000000E+01 0.  1.
        -11    1    1    2    0    0  0.44287557782E+01  0.62263329391E+02 -0.24506145331E+02  0.67058834046E+02  0.00000000000E+00 0. -1.
         11    1    1    2    0    0 -0.20287540975E+02  0.42050966752E+02  0.60817526647E+02  0.76672287503E+02  0.00000000000E+00 0.  1.
</event>
<event>
 7    1  0.3151015E-009  0.1961365E+03  0.7561462E-02  0.1153040E+00
          2   -1    0    0  501    0  0.00000000000E+00  0.00000000000E+00  0.14685997209E+03  0.14685997209E+03  0.00000000000E+00 0. -1.
         -2   -1    0    0    0  501 -0.00000000000E+00 -0.00000000000E+00 -0.31221340562E+03  0.31221340562E+03  0.00000000000E+00 0.  1.
         25    2    1    2    0    0  0.15554417142E+02 -0.17658798291E+03 -0.32430549003E+02  0.21940415596E+03  0.12514466645E+03 0.  0.
          5    1    3    3  502    0 -0.30756019520E+02 -0.57194617502E+02 -0.59808033268E+02  0.88383427470E+02  0.41800000000E+01 0.  1.
         -5    1    3    3    0  502  0.46310436662E+02 -0.11939336541E+03  0.27377484265E+02  0.13102072849E+03  0.41800000000E+01 0.  1.
        -11    1    1    2    0    0 -0.21321403468E+01 -0.10898009737E+02 -0.10957879301E+02  0.15600889637E+02  0.00000000000E+00 0.  1.
         11    1    1    2    0    0 -0.13422276795E+02  0.18748599265E+03 -0.12196500523E+03  0.22406833211E+03  0.00000000000E+00 0. -1.
</event>
<event>
 7    1  0.3151015E-009  0.1743999E+03  0.7561462E-02  0.1173336E+00
          1   -1    0    0  501    0  0.00000000000E+00  0.00000000000E+00  0.52369251057E+03  0.52369251057E+03  0.00000000000E+00 0. -1.
         -1   -1    0    0    0  501 -0.00000000000E+00 -0.00000000000E+00 -0.70855555637E+02  0.70855555637E+02  0.00000000000E+00 0.  1.
         25    2    1    2    0    0 -0.23103792755E+02 -0.15621362864E+03  0.21335491778E+03  0.29343579670E+03  0.12509101819E+03 0.  0.
          5    1    3    3  502    0 -0.63249069105E+02 -0.11874476955E+03  0.10091267858E+03  0.16823081208E+03  0.41800000000E+01 0.  1.
         -5    1    3    3    0  502  0.40145276351E+02 -0.37468859091E+02  0.11244223921E+03  0.12520498462E+03  0.41800000000E+01 0.  1.
        -11    1    1    2    0    0  0.11884282579E+02  0.27978209585E+02  0.13652120717E+01  0.30428279413E+02  0.00000000000E+00 0.  1.
         11    1    1    2    0    0  0.11219510175E+02  0.12823541905E+03  0.23811682508E+03  0.27068399010E+03  0.00000000000E+00 0. -1.
</event>
<event>
 7    1  0.3151015E-009  0.8032278E+02  0.7561462E-02  0.1328138E+00
         -1   -1    0    0    0  501 -0.00000000000E+00  0.00000000000E+00  0.32531215243E+02  0.32531215243E+02  0.00000000000E+00 0.  1.
          1   -1    0    0  501    0  0.00000000000E+00 -0.00000000000E+00 -0.41917122901E+03  0.41917122901E+03  0.00000000000E+00 0. -1.
         25    2    1    2    0    0 -0.23415103963E+02 -0.30566193887E+02 -0.23542135487E+03  0.26935714292E+03  0.12508995488E+03 0.  0.
          5    1    3    3  502    0 -0.55827444410E+02 -0.21712691418E+02 -0.42692625846E+02  0.73676843171E+02  0.41800000000E+01 0.  1.
         -5    1    3    3    0  502  0.32412340446E+02 -0.88535024694E+01 -0.19272872903E+03  0.19568029975E+03  0.41800000000E+01 0.  1.
        -11    1    1    2    0    0  0.27298553468E+02 -0.76316574205E+01 -0.13928320318E+03  0.14213818594E+03  0.00000000000E+00 0. -1.
         11    1    1    2    0    0 -0.38834495041E+01  0.38197851307E+02 -0.11935455721E+02  0.40207115388E+02  0.00000000000E+00 0.  1.
</event>
<event>
 7    1  0.3151015E-009  0.1317050E+03  0.7561462E-02  0.1224948E+00
         -2   -1    0    0    0  501 -0.00000000000E+00  0.00000000000E+00  0.43748097829E+02  0.43748097829E+02  0.00000000000E+00 0. -1.
          2   -1    0    0  501    0  0.00000000000E+00 -0.00000000000E+00 -0.53467250019E+03  0.53467250019E+03  0.00000000000E+00 0.  1.
         25    2    1    2    0    0  0.70374408909E+02  0.37827029012E+01 -0.11550517451E+03  0.18427129460E+03  0.12509036096E+03 0.  0.
          5    1    3    3  502    0  0.92225000016E+02 -0.34930109673E+02 -0.84194871866E+02  0.12973747353E+03  0.41800000000E+01 0. -1.
         -5    1    3    3    0  502 -0.21850591107E+02  0.38712812574E+02 -0.31310302640E+02  0.54533821070E+02  0.41800000000E+01 0. -1.
        -11    1    1    2    0    0 -0.94943599782E+02  0.13528357085E+01 -0.29841414686E+03  0.31315670255E+03  0.00000000000E+00 0.  1.
         11    1    1    2    0    0  0.24569190872E+02 -0.51355386098E+01 -0.77005080992E+02  0.80992600869E+02  0.00000000000E+00 0. -1.
</event>
<event>
 7    1  0.3151015E-009  0.8736591E+02  0.7561462E-02  0.1309359E+00
          2   -1    0    0  501    0  0.00000000000E+00  0.00000000000E+00  0.37924496367E+03  0.37924496367E+03  0.00000000000E+00 0. -1.
         -2   -1    0    0    0  501 -0.00000000000E+00 -0.00000000000E+00 -0.48284501991E+02  0.48284501991E+02  0.00000000000E+00 0.  1.
         25    2    1    2    0    0 -0.26727653916E+02  0.69389634202E+02  0.21246462305E+03  0.25752639050E+03  0.12509730988E+03 0.  0.
          5    1    3    3  502    0 -0.39497958230E+02  0.70538116590E+02  0.22499668193E+03  0.23911648600E+03  0.41800000000E+01 0.  1.
         -5    1    3    3    0  502  0.12770304314E+02 -0.11484823878E+01 -0.12532058880E+02  0.18409904504E+02  0.41800000000E+01 0.  1.
        -11    1    1    2    0    0  0.58034953865E+01 -0.54022027002E+02  0.13053135073E+03  0.14138774163E+03  0.00000000000E+00 0. -1.
         11    1    1    2    0    0  0.20924158529E+02 -0.15367607200E+02 -0.12035512102E+02  0.28615333526E+02  0.00000000000E+00 0.  1.
</event>
<event>
 7    1  0.3151015E-009  0.1207359E+03  0.7561462E-02  0.1241888E+00
          2   -1    0    0  501    0  0.00000000000E+00  0.00000000000E+00  0.55653559074E+02  0.55653559074E+02  0.00000000000E+00 0. -1.
         -2   -1    0    0    0  501 -0.00000000000E+00 -0.00000000000E+00 -0.26764753657E+03  0.26764753657E+03  0.00000000000E+00 0.  1.
         25    2    1    2    0    0 -0.40414605536E+02 -0.37369222418E+02 -0.11959940100E+03  0.18160860868E+03  0.12509145016E+03 0.  0.
          5    1    3    3  502    0 -0.11994034672E+02 -0.81182854292E+02 -0.88122328880E+02  0.12048871294E+03  0.41800000000E+01 0.  1.
         -5    1    3    3    0  502 -0.28420570864E+02  0.43813631874E+02 -0.31477072119E+02  0.61119895741E+02  0.41800000000E+01 0.  1.
        -11    1    1    2    0    0 -0.14206487424E+02  0.49039849540E+02 -0.51060936895E+02  0.72207689372E+02  0.00000000000E+00 0.  1.
         11    1    1    2    0    0  0.54621092959E+02 -0.11670627122E+02 -0.41333639602E+02  0.69484797591E+02  0.00000000000E+00 0. -1.
</event>
<event>
 7    1  0.3151015E-009  0.1254807E+03  0.7561462E-02  0.1234320E+00
          1   -1    0    0  501    0  0.00000000000E+00  0.00000000000E+00  0.87813605884E+02  0.87813605884E+02  0.00000000000E+00 0. -1.
         -1   -1    0    0    0  501 -0.00000000000E+00 -0.00000000000E+00 -0.21908836102E+03  0.21908836102E+03  0.00000000000E+00 0.  1.
         25    2    1    2    0    0 -0.16756392388E+02 -0.69360585718E+02 -0.12562167244E+03  0.19109726042E+03  0.12508273589E+03 0.  0.
          5    1    3    3  502    0  0.48349088105E+02 -0.87041760495E+01 -0.71542623577E+02  0.86886226697E+02  0.41800000000E+01 0.  1.
         -5    1    3    3    0  502 -0.65105480493E+02 -0.60656409669E+02 -0.54079048867E+02  0.10421103373E+03  0.41800000000E+01 0.  1.
        -11    1    1    2    0    0 -0.15379842605E+02  0.77836500454E+02 -0.16115669145E+02  0.80961565903E+02  0.00000000000E+00 0.  1.
         11    1    1    2    0    0  0.32136234992E+02 -0.84759147360E+01  0.10462586453E+02  0.34843140578E+02  0.00000000000E+00 0. -1.
</event>
<event>
 7    1  0.3151015E-009  0.1495640E+03  0.7561462E-02  0.1201010E+00
         -1   -1    0    0    0  501 -0.00000000000E+00  0.00000000000E+00  0.35767059686E+02  0.35767059686E+02  0.00000000000E+00 0.  1.
          1   -1    0    0  501    0  0.00000000000E+00 -0.00000000000E+00 -0.97961084174E+03  0.97961084174E+03  0.00000000000E+00 0. -1.
         25    2    1    2    0    0 -0.11684687102E+03  0.39620115148E+02 -0.74460071765E+03  0.76504887067E+03  0.12508637414E+03 0.  0.
          5    1    3    3  502    0  0.87188633933E+01 -0.22512879343E+02 -0.42169649545E+02  0.48770893552E+02  0.41800000000E+01 0.  1.
         -5    1    3    3    0  502 -0.12556573442E+03  0.62132994490E+02 -0.70243106811E+03  0.71627797712E+03  0.41800000000E+01 0.  1.
        -11    1    1    2    0    0  0.11363250831E+03 -0.20981727514E+02 -0.20045591917E+03  0.23137665259E+03  0.00000000000E+00 0. -1.
         11    1    1    2    0    0  0.32143627165E+01 -0.18638387634E+02  0.12128547699E+01  0.18952378161E+02  0.00000000000E+00 0.  1.
</event>
<event>
 6    1  0.3151015E-009  0.1478690E+03  0.7561462E-02  0.1203116E+00
         -1   -1    0    0    0  501 -0.00000000000E+00  0.00000000000E+00  0.23244228958E+03  0.23244228958E+03  0.00000000000E+00 0.  1.
          1   -1    0    0  501    0  0.00000000000E+00 -0.00000000000E+00 -0.11679963321E+03  0.11679963321E+03  0.00000000000E+00 0. -1.
          5    1    1    2  502    0 -0.14318599007E+02  0.11213057718E+03  0.38614770738E+02  0.11952766013E+03  0.41800000000E+01 0. -1.
         -5    1    1    2    0  502  0.38485983127E+02  0.11830894569E+01  0.72648067028E+02  0.82327301916E+02  0.41800000000E+01 0. -1.
        -11    1    1    2    0    0 -0.52347916356E+02 -0.99667541429E+02 -0.98216472303E+01  0.11300614105E+03  0.00000000000E+00 0. -1.
         11    1    1    2    0    0  0.28180532236E+02 -0.13646125210E+02  0.14201465835E+02  0.34380819684E+02  0.00000000000E+00 0.  1.
</event>
<event>
 7    1  0.3151015E-009  0.7069486E+02  0.7561462E-02  0.1357746E+00
          1   -1    0    0  501    0  0.00000000000E+00  0.00000000000E+00  0.39364910223E+03  0.39364910223E+03  0.00000000000E+00 0. -1.
         -1   -1    0    0    0  501 -0.00000000000E+00 -0.00000000000E+00 -0.31859963324E+02  0.31859963324E+02  0.00000000000E+00 0.  1.
         25    2    1    2    0    0 -0.25724362704E+02 -0.20001916424E+02  0.20605995344E+03  0.24324944214E+03  0.12509103563E+03 0.  0.
          5    1    3    3  502    0 -0.49098831507E+02 -0.16694833007E+02  0.21221323251E+03  0.21849792025E+03  0.41800000000E+01 0.  1.
         -5    1    3    3    0  502  0.23374468803E+02 -0.33070834175E+01 -0.61532790693E+01  0.24751521889E+02  0.41800000000E+01 0.  1.
        -11    1    1    2    0    0  0.19501270426E+02 -0.18204399653E+02  0.13641467579E+03  0.13899878951E+03  0.00000000000E+00 0. -1.
         11    1    1    2    0    0  0.62230922779E+01  0.38206316077E+02  0.19314509683E+02  0.43260833903E+02  0.00000000000E+00 0.  1.
</event>
<event>
 7    1  0.3151015E-009  0.1301207E+03  0.7561462E-02  0.1227277E+00
          1   -1    0    0  501    0  0.00000000000E+00  0.00000000000E+00  0.79122022983E+03  0.79122022983E+03  0.00000000000E+00 0. -1.
         -1   -1    0    0    0  501 -0.00000000000E+00 -0.00000000000E+00 -0.33808568361E+02  0.33808568361E+02  0.00000000000E+00 0.  1.
         25    2    1    2    0    0 -0.96265688791E+02 -0.73535619513E+02  0.44653496425E+03  0.47928680660E+03  0.12509116080E+03 0.  0.
          5    1    3    3  502    0 -0.82032719618E+02 -0.31132009687E+02  0.11493942216E+03  0.14466206235E+03  0.41800000000E+01 0.  1.
         -5    1    3    3    0  502 -0.14232969173E+02 -0.42403609826E+02  0.33159554209E+03  0.33462474426E+03  0.41800000000E+01 0.  1.
        -11    1    1    2    0    0  0.54320702500E+02  0.16681452273E+02  0.23620057167E+03  0.24293974485E+03  0.00000000000E+00 0. -1.
         11    1    1    2    0    0  0.41944986291E+02  0.56854167240E+02  0.74676125554E+02  0.10280224674E+03  0.00000000000E+00 0.  1.
</event>
<event>
 7    1  0.3151015E-009  0.8760464E+02  0.7561462E-02  0.1308758E+00
          1   -1    0    0  501    0  0.00000000000E+00  0.00000000000E+00  0.75038680060E+02  0.75038680060E+02  0.00000000000E+00 0. -1.
         -1   -1    0    0    0  501 -0.00000000000E+00 -0.00000000000E+00 -0.18390331108E+03  0.18390331108E+03  0.00000000000E+00 0.  1.
         25    2    1    2    0    0 -0.34649757118E+02 -0.17413153737E+02 -0.95897750406E+02  0.16230080282E+03  0.12506537679E+03 0.  0.
          5    1    3    3  502    0 -0.10623370132E+02 -0.44313333400E+02 -0.11318564629E+03  0.12208599607E+03  0.41800000000E+01 0.  1.
         -5    1    3    3    0  502 -0.24026386986E+02  0.26900179663E+02  0.17287895888E+02  0.40214806748E+02  0.41800000000E+01 0.  1.
        -11    1    1    2    0    0 -0.22982310776E+02 -0.14585989389E+02 -0.14217808523E+02  0.30709669067E+02  0.00000000000E+00 0.  1.
         11    1    1    2    0    0  0.57632067894E+02  0.31999143126E+02  0.12509279087E+01  0.65931519254E+02  0.00000000000E+00 0. -1.
</event>
<event>
 7    1  0.3151015E-009  0.1268570E+03  0.7561462E-02  0.1232195E+00
         -2   -1    0    0    0  501 -0.00000000000E+00  0.00000000000E+00  0.26605981603E+02  0.26605981603E+02  0.00000000000E+00 0.  1.
          2   -1    0    0  501    0  0.00000000000E+00 -0.00000000000E+00 -0.73848707807E+03  0.73848707807E+03  0.00000000000E+00 0. -1.
         25    2    1    2    0    0 -0.77792996333E+02 -0.28507890411E+02 -0.50668535288E+03  0.52843362682E+03  0.12509037147E+03 0.  0.
          5    1    3    3  502    0 -0.11082526043E+03 -0.32016310982E+02 -0.41775898711E+03  0.43341357412E+03  0.41800000000E+01 0. -1.
         -5    1    3    3    0  502  0.33032264096E+02  0.35084205716E+01 -0.88926365772E+02  0.95020052702E+02  0.41800000000E+01 0. -1.
        -11    1    1    2    0    0  0.26565265585E+02  0.43899107277E+02 -0.46700272621E+02  0.69381268496E+02  0.00000000000E+00 0.  1.
         11    1    1    2    0    0  0.51227730749E+02 -0.15391216866E+02 -0.15849547097E+03  0.16727816436E+03  0.00000000000E+00 0. -1.
</event>
<event>
 7    1  0.3151015E-009  0.1664194E+03  0.7561462E-02  0.1181634E+00
          1   -1    0    0  501    0  0.00000000000E+00  0.00000000000E+00  0.94685791145E+03  0.94685791145E+03  0.00000000000E+00 0.  1.
         -1   -1    0    0    0  501 -0.00000000000E+00 -0.00000000000E+00 -0.30647138368E+02  0.30647138368E+02  0.00000000000E+00 0. -1.
         25    2    1    2    0    0  0.12915598284E+03  0.22672892561E+01  0.55054200941E+03  0.57916229824E+03  0.12508419197E+03 0.  0.
          5    1    3    3  502    0  0.61919615463E+02 -0.58358978868E+02  0.32778708395E+03  0.33867632631E+03  0.41800000000E+01 0. -1.
         -5    1    3    3    0  502  0.67236367381E+02  0.60626268125E+02  0.22275492545E+03  0.24048597194E+03  0.41800000000E+01 0. -1.
        -11    1    1    2    0    0  0.12943372886E+02 -0.72446812503E+01  0.49471867330E+02  0.51647671441E+02  0.00000000000E+00 0.  1.
         11    1    1    2    0    0 -0.14209935573E+03  0.49773919942E+01  0.31619689635E+03  0.34669508013E+03  0.00000000000E+00 0. -1.
</event>
<event>
 7    1  0.3151015E-009  0.9333835E+02  0.7561462E-02  0.1294963E+00
         -3   -1    0    0    0  501 -0.00000000000E+00  0.00000000000E+00  0.49207810735E+03  0.49207810735E+03  0.00000000000E+00 0.  1.
          3   -1    0    0  501    0  0.00000000000E+00 -0.00000000000E+00 -0.24954461899E+02  0.24954461899E+02  0.00000000000E+00 0. -1.
         25    2    1    2    0    0 -0.77923370124E+01  0.20985931662E+02  0.26183457099E+03  0.29105362969E+03  0.12511491896E+03 0.  0.
          5    1    3    3  502    0  0.34743207526E+02  0.50477575210E+02  0.20529528251E+03  0.21428649395E+03  0.41800000000E+01 0. -1.
         -5    1    3    3    0  502 -0.42535544538E+02 -0.29491643548E+02  0.56539288484E+02  0.76767135746E+02  0.41800000000E+01 0. -1.
        -11    1    1    2    0    0 -0.64592861928E+01  0.24668754961E+02  0.15302066468E+03  0.15513089205E+03  0.00000000000E+00 0.  1.
         11    1    1    2    0    0  0.14251623205E+02 -0.45654686623E+02  0.52268409784E+02  0.70848047510E+02  0.00000000000E+00 0. -1.
</event>
<event>
 7    1  0.3151015E-009  0.1204198E+03  0.7561462E-02  0.1242406E+00
          3   -1    0    0  501    0  0.00000000000E+00  0.00000000000E+00  0.39778782303E+02  0.39778782303E+02  0.00000000000E+00 0. -1.
         -3   -1    0    0    0  501 -0.00000000000E+00 -0.00000000000E+00 -0.68641119463E+03  0.68641119463E+03  0.00000000000E+00 0.  1.
         25    2    1    2    0    0 -0.10224868034E+03  0.14658315081E+02 -0.49758803677E+03  0.52336390744E+03  0.12508503686E+03 0.  0.
          5    1    3    3  502    0  0.16227225104E+02  0.21869626595E+01 -0.66485793568E+01  0.18159891181E+02  0.41800000000E+01 0. -1.
         -5    1    3    3    0  502 -0.11847590544E+03  0.12471352422E+02 -0.49093945741E+03  0.50520401626E+03  0.41800000000E+01 0. -1.
        -11    1    1    2    0    0  0.44538388659E+02  0.22661925641E+01 -0.13343857732E+03  0.14069348816E+03  0.00000000000E+00 0.  1.
         11    1    1    2    0    0  0.57710291679E+02 -0.16924507646E+02 -0.15605798242E+02  0.62132581336E+02  0.00000000000E+00 0. -1.
</event>
<event>
 7    1  0.3151015E-009  0.1962906E+03  0.7561462E-02  0.1152907E+00
         -1   -1    0    0    0  501 -0.00000000000E+00  0.00000000000E+00  0.76143340821E+03  0.76143340821E+03  0.00000000000E+00 0.  1.
          1   -1    0    0  501    0  0.00000000000E+00 -0.00000000000E+00 -0.61776625542E+02  0.61776625542E+02  0.00000000000E+00 0. -1.
         25    2    1    2    0    0  0.12646511541E+02  0.16268907130E+03  0.53747198936E+03  0.57546872237E+03  0.12514169129E+03 0.  0.
          5    1    3    3  502    0  0.27223404490E+02  0.18029247562E+03  0.47937196005E+03  0.51289515401E+03  0.41800000000E+01 0.  1.
         -5    1    3    3    0  502 -0.14576892949E+02 -0.17603404322E+02  0.58100029311E+02  0.62573568363E+02  0.41800000000E+01 0.  1.
        -11    1    1    2    0    0  0.19095868454E+02  0.20386946673E+01  0.21227395813E+02  0.28625352416E+02  0.00000000000E+00 0. -1.
         11    1    1    2    0    0 -0.31742379994E+02 -0.16472776596E+03  0.14095739749E+03  0.21911595897E+03  0.00000000000E+00 0.  1.
</event>
<event>
 7    1  0.3151015E-009  0.9084829E+02  0.7561462E-02  0.1300810E+00
         -2   -1    0    0    0  501 -0.00000000000E+00  0.00000000000E+00  0.10845679609E+02  0.10845679609E+02  0.00000000000E+00 0.  1.
          2   -1    0    0  501    0  0.00000000000E+00 -0.00000000000E+00 -0.15779682697E+04  0.15779682697E+04  0.00000000000E+00 0. -1.
         25    2    1    2    0    0  0.59140247667E+02  0.15574330806E+02 -0.10934052295E+04  0.11022353861E+04  0.12509085377E+03 0.  0.
          5    1    3    3  502    0  0.44829500429E+02 -0.48666249711E+01 -0.10566169579E+04  0.10575869876E+04  0.41800000000E+01 0.  1.
         -5    1    3    3    0  502  0.14310747238E+02  0.20440955778E+02 -0.36788271560E+02  0.44648398448E+02  0.41800000000E+01 0.  1.
        -11    1    1    2    0    0  0.25331448060E+02 -0.65023173952E+01 -0.10735849181E+03  0.11049800069E+03  0.00000000000E+00 0. -1.
         11    1    1    2    0    0 -0.84471695727E+02 -0.90720134111E+01 -0.36635886883E+03  0.37608056261E+03  0.00000000000E+00 0.  1.
</event>
<event>
 7    1  0.3151015E-009  0.9568115E+02  0.7561462E-02  0.1289649E+00
          2   -1    0    0  501    0  0.00000000000E+00  0.00000000000E+00  0.98154641865E+03  0.98154641865E+03  0.00000000000E+00 0. -1.
         -2   -1    0    0    0  501 -0.00000000000E+00 -0.00000000000E+00 -0.17994953781E+02  0.17994953781E+02  0.00000000000E+00 0.  1.
         25    2    1    2    0    0 -0.72439881685E+02  0.41508083589E+01  0.61007255407E+03  0.62697789254E+03  0.12509192958E+03 0.  0.
          5    1    3    3  502    0 -0.17110152912E+02 -0.25928217611E+02  0.29691614357E+02  0.43175156795E+02  0.41800000000E+01 0. -1.
         -5    1    3    3    0  502 -0.55329728772E+02  0.30079025970E+02  0.58038093971E+03  0.58380273575E+03  0.41800000000E+01 0. -1.
        -11    1    1    2    0    0  0.24794397562E+02 -0.32943874887E+02  0.53932628920E+02  0.67888066000E+02  0.00000000000E+00 0.  1.
         11    1    1    2    0    0  0.47645484123E+02  0.28793066528E+02  0.29954628189E+03  0.30467541389E+03  0.00000000000E+00 0. -1.
</event>
<event>
 7    1  0.3151015E-009  0.1381352E+03  0.7561462E-02  0.1215860E+00
         -1   -1    0    0    0  501 -0.00000000000E+00  0.00000000000E+00  0.27940656060E+02  0.27940656060E+02  0.00000000000E+00 0.  1.
          1   -1    0    0  501    0  0.00000000000E+00 -0.00000000000E+00 -0.93128741657E+03  0.93128741657E+03  0.00000000000E+00 0. -1.
         25    2    1    2    0    0  0.22233073810E+02  0.96073632422E+02 -0.66694317757E+03  0.68570091967E+03  0.12509235270E+03 0.  0.
          5    1    3    3  502    0 -0.29954872723E+00  0.11431264713E+03 -0.36905113111E+03  0.38637246382E+03  0.41800000000E+01 0. -1.
         -5    1    3    3    0  502  0.22532622537E+02 -0.18239014705E+02 -0.29789204646E+03  0.29932845585E+03  0.41800000000E+01 0. -1.
        -11    1    1    2    0    0 -0.56488991008E+02 -0.52069315613E+02 -0.99547773475E+02  0.12574569153E+03  0.00000000000E+00 0.  1.
         11    1    1    2    0    0  0.34255917199E+02 -0.44004316809E+02 -0.13685580946E+03  0.14778146144E+03  0.00000000000E+00 0. -1.
</event>
<event>
 7    1  0.3151015E-009  0.1824285E+03  0.7561462E-02  0.1165473E+00
          1   -1    0    0  501    0  0.00000000000E+00  0.00000000000E+00  0.84863892479E+03  0.84863892479E+03  0.00000000000E+00 0. -1.
         -1   -1    0    0    0  501 -0.00000000000E+00 -0.00000000000E+00 -0.51442936432E+02  0.51442936432E+02  0.00000000000E+00 0.  1.
         25    2    1    2    0    0 -0.21097171583E+02  0.17132351444E+03  0.50727394837E+03  0.55024664506E+03  0.12509066495E+03 0.  0.
          5    1    3    3  502    0 -0.18625991226E+02  0.14579336919E+02  0.23356077305E+03  0.23479265687E+03  0.41800000000E+01 0. -1.
         -5    1    3    3    0  502 -0.24711803570E+01  0.15674417752E+03  0.27371317533E+03  0.31545398819E+03  0.41800000000E+01 0. -1.
        -11    1    1    2    0    0  0.43025223388E+02 -0.89467839927E+02  0.21462719092E+03  0.23647514734E+03  0.00000000000E+00 0.  1.
         11    1    1    2    0    0 -0.21928051805E+02 -0.81855674516E+02  0.75294849072E+02  0.11336006882E+03  0.00000000000E+00 0. -1.
</event>
<event>
 7    1  0.3151015E-009  0.1082564E+03  0.7561462E-02  0.1263833E+00
         -2   -1    0    0    0  501 -0.00000000000E+00  0.00000000000E+00  0.30300485163E+02  0.30300485163E+02  0.00000000000E+00 0.  1.
          2   -1    0    0  501    0  0.00000000000E+00 -0.00000000000E+00 -0.66691986132E+03  0.66691986132E+03  0.00000000000E+00 0. -1.
         25    2    1    2    0    0  0.87809823842E+02  0.26187383761E+02 -0.34497542257E+03  0.37822284200E+03  0.12509249298E+03 0.  0.
          5    1    3    3  502    0  0.75435800938E+02  0.13447753975E+02 -0.73908794562E+02  0.10654287618E+03  0.41800000000E+01 0.  1.
         -5    1    3    3    0  502  0.12374022904E+02  0.12739629785E+02 -0.27106662801E+03  0.27167996582E+03  0.41800000000E+01 0.  1.
        -11    1    1    2    0    0 -0.11469978982E+02  0.26430336451E+02 -0.12519534898E+03  0.12846788902E+03  0.00000000000E+00 0.  1.
         11    1    1    2    0    0 -0.76339844860E+02 -0.52617720212E+02 -0.16644860461E+03  0.19052961546E+03  0.00000000000E+00 0. -1.
</event>
<event>
 7    1  0.3151015E-009  0.1209448E+03  0.7561462E-02  0.1241547E+00
         -2   -1    0    0    0  501 -0.00000000000E+00  0.00000000000E+00  0.24358047713E+02  0.24358047713E+02  0.00000000000E+00 0.  1.
          2   -1    0    0  501    0  0.00000000000E+00 -0.00000000000E+00 -0.71282342463E+03  0.71282342463E+03  0.00000000000E+00 0. -1.
         25    2    1    2    0    0 -0.46653530321E+02 -0.57382128671E+02 -0.37342772955E+03  0.40070534933E+03  0.12508895715E+03 0.  0.
          5    1    3    3  502    0 -0.62817893908E+02 -0.76073850271E+02 -0.35778505888E+03  0.37116160799E+03  0.41800000000E+01 0. -1.
         -5    1    3    3    0  502  0.16164363587E+02  0.18691721600E+02 -0.15642670674E+02  0.29543741340E+02  0.41800000000E+01 0. -1.
        -11    1    1    2    0    0  0.17916088321E+02  0.79703804098E+02 -0.21135517676E+03  0.22659367456E+03  0.00000000000E+00 0.  1.
         11    1    1    2    0    0  0.28737442000E+02 -0.22321675426E+02 -0.10368247061E+03  0.10988244846E+03  0.00000000000E+00 0. -1.
</event>
<event>
 7    1  0.3151015E-009  0.9871913E+02  0.7561462E-02  0.1283013E+00
         -2   -1    0    0    0  501 -0.00000000000E+00  0.00000000000E+00  0.44726351894E+02  0.44726351894E+02  0.00000000000E+00 0.  1.
          2   -1    0    0  501    0  0.00000000000E+00 -0.00000000000E+00 -0.34523576549E+03  0.34523576549E+03  0.00000000000E+00 0. -1.
         25    2    1    2    0    0  0.11311916820E+02 -0.49802195582E+02 -0.21454533368E+03  0.25355386930E+03  0.12510653974E+03 0.  0.
          5    1    3    3  502    0 -0.19913858834E+02 -0.67959637668E+02 -0.20356190664E+03  0.21556900603E+03  0.41800000000E+01 0. -1.
         -5    1    3    3    0  502  0.31225775654E+02  0.18157442085E+02 -0.10983427043E+02  0.37984863273E+02  0.41800000000E+01 0. -1.
        -11    1    1    2    0    0  0.17789368541E+01 -0.19513551588E+02  0.60119943649E+01  0.20496033474E+02  0.00000000000E+00 0.  1.
         11    1    1    2    0    0 -0.13090853674E+02  0.69315747170E+02 -0.91976074274E+02  0.11591221460E+03  0.00000000000E+00 0. -1.
</event>
<event>
 7    1  0.3151015E-009  0.9615656E+02  0.7561462E-02  0.1288592E+00
          2   -1    0    0  501    0  0.00000000000E+00  0.00000000000E+00  0.26700915120E+03  0.26700915120E+03  0.00000000000E+00 0.  1.
         -2   -1    0    0    0  501 -0.00000000000E+00 -0.00000000000E+00 -0.55664846329E+02  0.55664846329E+02  0.00000000000E+00 0. -1.
         25    2    1    2    0    0  0.30589565304E+02 -0.39772019566E+02  0.15666063250E+03  0.20665495609E+03  0.12508469952E+03 0.  0.
          5    1    3    3  502    0  0.42719026678E+02  0.52261585592E+01  0.15381492719E+03  0.15977713290E+03  0.41800000000E+01 0. -1.
         -5    1    3    3    0  502 -0.12129461374E+02 -0.44998178125E+02  0.28457053172E+01  0.46877823185E+02  0.41800000000E+01 0. -1.
        -11    1    1    2    0    0  0.28941138184E+02  0.30478289919E+02  0.24107164794E+02  0.48452771129E+02  0.00000000000E+00 0.  1.
         11    1    1    2    0    0 -0.59530703487E+02  0.92937296472E+01  0.30576507576E+02  0.67566270313E+02  0.00000000000E+00 0. -1.
</event>
<event>
 6    1  0.3151015E-009  0.1198451E+03  0.7561462E-02  0.1243353E+00
         -1   -1    0    0    0  501 -0.00000000000E+00  0.00000000000E+00  0.46888927332E+02  0.46888927332E+02  0.00000000000E+00 0.  1.
          1   -1    0    0  501    0  0.00000000000E+00 -0.00000000000E+00 -0.43654663969E+03  0.43654663969E+03  0.00000000000E+00 0. -1.
          5    1    1    2  502    0  0.10368296732E+03  0.38820848285E+02 -0.27104707851E+03  0.29281599537E+03  0.41800000000E+01 0. -1.
         -5    1    1    2    0  502 -0.34028866952E+02  0.57275913975E+01 -0.43360685347E+02  0.55573289654E+02  0.41800000000E+01 0. -1.
        -11    1    1    2    0    0 -0.19095363235E+02  0.84600967992E+01  0.95690434971E+01  0.22973304690E+02  0.00000000000E+00 0.  1.
         11    1    1    2    0    0 -0.50558737128E+02 -0.53008536482E+02 -0.84818991994E+02  0.11207297731E+03  0.00000000000E+00 0. -1.
</event>
<event>
 7    1  0.3151015E-009  0.1229344E+03  0.7561462E-02  0.1238333E+00
         -2   -1    0    0    0  501 -0.00000000000E+00  0.00000000000E+00  0.53528374101E+02  0.53528374101E+02  0.00000000000E+00 0.  1.
          2   -1    0    0  501    0  0.00000000000E+00 -0.00000000000E+00 -0.55970263946E+03  0.55970263946E+03  0.00000000000E+00 0. -1.
         25    2    1    2    0    0  0.44567941191E+02 -0.55589927032E+02 -0.65950078827E+02  0.15834673218E+03  0.12509090025E+03 0.  0.
          5    1    3    3  502    0  0.81571310920E+02 -0.36048686947E+02 -0.12214781816E+02  0.90111374924E+02  0.41800000000E+01 0.  1.
         -5    1    3    3    0  502 -0.37003369730E+02 -0.19541240085E+02 -0.53735297011E+02  0.68235357259E+02  0.41800000000E+01 0.  1.
        -11    1    1    2    0    0  0.25846822659E+02  0.30036955985E+02 -0.14846116895E+03  0.15365869859E+03  0.00000000000E+00 0.  1.
         11    1    1    2    0    0 -0.70414763850E+02  0.25552971047E+02 -0.29176301758E+03  0.30122558279E+03  0.00000000000E+00 0. -1.
</event>
<event>
 7    1  0.3151015E-009  0.1994645E+03  0.7561462E-02  0.1150192E+00
          1   -1    0    0  501    0  0.00000000000E+00  0.00000000000E+00  0.14280481716E+04  0.14280481716E+04  0.00000000000E+00 0. -1.
         -1   -1    0    0    0  501 -0.00000000000E+00 -0.00000000000E+00 -0.42270980008E+02  0.42270980008E+02  0.00000000000E+00 0.  1.
         25    2    1    2    0    0  0.13355056629E+03 -0.12893667989E+03  0.10725202326E+04  0.10956309513E+04  0.12508841209E+03 0.  0.
          5    1    3    3  502    0  0.11625499281E+03 -0.13289080498E+03  0.67595821871E+03  0.69865025244E+03  0.41800000000E+01 0. -1.
         -5    1    3    3    0  502  0.17295573477E+02  0.39541250923E+01  0.39656201390E+03  0.39698069882E+03  0.41800000000E+01 0. -1.
        -11    1    1    2    0    0 -0.26915328155E+02 -0.10203232936E+02  0.61590329679E+02  0.67984627394E+02  0.00000000000E+00 0. -1.
         11    1    1    2    0    0 -0.10663523814E+03  0.13913991282E+03  0.25166662930E+03  0.30670357294E+03  0.00000000000E+00 0.  1.
</event>
<event>
 7    1  0.3151015E-009  0.1010433E+03  0.7561462E-02  0.1278117E+00
          2   -1    0    0  501    0  0.00000000000E+00  0.00000000000E+00  0.21553871656E+03  0.21553871656E+03  0.00000000000E+00 0. -1.
         -2   -1    0    0    0  501 -0.00000000000E+00 -0.00000000000E+00 -0.77735941070E+02  0.77735941070E+02  0.00000000000E+00 0.  1.
         25    2    1    2    0    0 -0.15485738901E+02 -0.61490593016E+02  0.42942034189E+02  0.14667142564E+03  0.12509031801E+03 0.  0.
          5    1    3    3  502    0 -0.40590392756E+02 -0.63274437188E+02 -0.20718041261E+02  0.78089333581E+02  0.41800000000E+01 0. -1.
         -5    1    3    3    0  502  0.25104653855E+02  0.17838441712E+01  0.63660075450E+02  0.68582092061E+02  0.41800000000E+01 0. -1.
        -11    1    1    2    0    0  0.65616981127E+00  0.78622028836E+02  0.42108530455E+02  0.89190707555E+02  0.00000000000E+00 0.  1.
         11    1    1    2    0    0  0.14829569089E+02 -0.17131435819E+02  0.52752210850E+02  0.57412524437E+02  0.00000000000E+00 0. -1.
</event>
<event>
 7    1  0.3151015E-009  0.2644294E+03  0.7561462E-02  0.1104511E+00
         -2   -1    0    0    0  501 -0.00000000000E+00  0.00000000000E+00  0.48398385041E+02  0.48398385041E+02  0.00000000000E+00 0. -1.
          2   -1    0    0  501    0  0.00000000000E+00 -0.00000000000E+00 -0.16368869647E+04  0.16368869647E+04  0.00000000000E+00 0.  1.
         25    2    1    2    0    0  0.73361359463E+01  0.24216254177E+03 -0.10896694132E+04  0.11232647856E+04  0.12509129905E+03 0.  0.
          5    1    3    3  502    0 -0.56301873674E+02  0.11770876278E+03 -0.45412160463E+03  0.47251365907E+03  0.41800000000E+01 0.  1.
         -5    1    3    3    0  502  0.63638009620E+02  0.12445377899E+03 -0.63554780852E+03  0.65075112653E+03  0.41800000000E+01 0.  1.
        -11    1    1    2    0    0  0.33309989672E+02 -0.18702440117E+03 -0.38107116453E+03  0.42579679952E+03  0.00000000000E+00 0.  1.
         11    1    1    2    0    0 -0.40646125618E+02 -0.55138140600E+02 -0.11774800200E+03  0.13622376463E+03  0.00000000000E+00 0. -1.
</event>
<event>
 7    1  0.3151015E-009  0.1089585E+03  0.7561462E-02  0.1262511E+00
          1   -1    0    0  501    0  0.00000000000E+00  0.00000000000E+00  0.25081963020E+03  0.25081963020E+03  0.00000000000E+00 0. -1.
         -1   -1    0    0    0  501 -0.00000000000E+00 -0.00000000000E+00 -0.49005043941E+02  0.49005043941E+02  0.00000000000E+00 0.  1.
         25    2    1    2    0    0  0.31921263194E+01  0.28311209620E+02  0.12171089479E+03  0.17682857541E+03  0.12507233471E+03 0.  0.
          5    1    3    3  502    0 -0.57418943868E+02 -0.69448522110E+01  0.57359065381E+02  0.81564090558E+02  0.41800000000E+01 0.  1.
         -5    1    3    3    0  502  0.60611070188E+02  0.35256061831E+02  0.64351829407E+02  0.95264484847E+02  0.41800000000E+01 0.  1.
        -11    1    1    2    0    0 -0.35592481696E+01  0.30583154694E+02  0.44702173832E+02  0.54279664183E+02  0.00000000000E+00 0. -1.
         11    1    1    2    0    0  0.36712185018E+00 -0.58894364314E+02  0.35401517638E+02  0.68716434552E+02  0.00000000000E+00 0.  1.
</event>
<event>
 7    1  0.3151015E-009  0.1063724E+03  0.7561462E-02  0.1267439E+00
         -2   -1    0    0    0  501 -0.00000000000E+00  0.00000000000E+00  0.32360094408E+02  0.32360094408E+02  0.00000000000E+00 0.  1.
          2   -1    0    0  501    0  0.00000000000E+00 -0.00000000000E+00 -0.45433066390E+03  0.45433066390E+03  0.00000000000E+00 0. -1.
         25    2    1    2    0    0 -0.17338225341E+02 -0.46195694721E+02 -0.26999025665E+03  0.30162632011E+03  0.12509613115E+03 0.  0.
          5    1    3    3  502    0 -0.18307613455E+02 -0.83034042147E+02 -0.12007303146E+03  0.14718976238E+03  0.41800000000E+01 0. -1.
         -5    1    3    3    0  502  0.96938811434E+00  0.36838347426E+02 -0.14991722519E+03  0.15443655773E+03  0.41800000000E+01 0. -1.
        -11    1    1    2    0    0  0.44612556266E+02  0.44787783971E+02 -0.14294268047E+03  0.15629726700E+03  0.00000000000E+00 0. -1.
         11    1    1    2    0    0 -0.27274330925E+02  0.14079107500E+01 -0.90376323679E+01  0.28767171201E+02  0.00000000000E+00 0.  1.
</event>
<event>
 7    1  0.3151015E-009  0.1137235E+03  0.7561462E-02  0.1253826E+00
          1   -1    0    0  501    0  0.00000000000E+00  0.00000000000E+00  0.85752408259E+02  0.85752408259E+02  0.00000000000E+00 0. -1.
         -1   -1    0    0    0  501 -0.00000000000E+00 -0.00000000000E+00 -0.30319684295E+03  0.30319684295E+03  0.00000000000E+00 0.  1.
         25    2    1    2    0    0 -0.66260842986E+02 -0.65603109780E+02 -0.20639901221E+03  0.25873499566E+03  0.12509587687E+03 0.  0.
          5    1    3    3  502    0 -0.22659703052E+02 -0.73391711645E+02 -0.19936963436E+03  0.21369494375E+03  0.41800000000E+01 0.  1.
         -5    1    3    3    0  502 -0.43601139935E+02  0.77886018650E+01 -0.70293778502E+01  0.45040051905E+02  0.41800000000E+01 0.  1.
        -11    1    1    2    0    0  0.69527289903E+02  0.39975771783E+02 -0.41480718379E+02  0.90292615247E+02  0.00000000000E+00 0.  1.
         11    1    1    2    0    0 -0.32664469168E+01  0.25627337997E+02  0.30435295897E+02  0.39921640305E+02  0.00000000000E+00 0. -1.
</event>
<event>
 7    1  0.3151015E-009  0.2332769E+03  0.7561462E-02  0.1124354E+00
         -2   -1    0    0    0  501 -0.00000000000E+00  0.00000000000E+00  0.64992538017E+02  0.64992538017E+02  0.00000000000E+00 0. -1.
          2   -1    0    0  501    0  0.00000000000E+00 -0.00000000000E+00 -0.14040157372E+04  0.14040157372E+04  0.00000000000E+00 0.  1.
         25    2    1    2    0    0  0.89096405998E+02 -0.20609288765E+03 -0.10977276164E+04  0.11274154784E+04  0.12508914119E+03 0.  0.
          5    1    3    3  502    0  0.80727430414E+02 -0.17665146466E+03 -0.10643585975E+04  0.10819423989E+04  0.41800000000E+01 0. -1.
         -5    1    3    3    0  502  0.83689755844E+01 -0.29441422992E+02 -0.33369018870E+02  0.45473079513E+02  0.41800000000E+01 0. -1.
        -11    1    1    2    0    0 -0.10729552695E+03  0.18066205691E+03 -0.21631711426E+03  0.30156956550E+03  0.00000000000E+00 0. -1.
         11    1    1    2    0    0  0.18199120950E+02  0.25430830732E+02 -0.24978468522E+02  0.40023231313E+02  0.00000000000E+00 0.  1.
</event>
<event>
 7    1  0.3151015E-009  0.1177800E+03  0.7561462E-02  0.1246805E+00
          3   -1    0    0  501    0  0.00000000000E+00  0.00000000000E+00  0.23526253985E+03  0.23526253985E+03  0.00000000000E+00 0. -1.
         -3   -1    0    0    0  501 -0.00000000000E+00 -0.00000000000E+00 -0.79037201012E+02  0.79037201012E+02  0.00000000000E+00 0.  1.
         25    2    1    2    0    0 -0.61956634701E+02  0.38081221231E+02  0.12911623772E+03  0.19392790767E+03  0.12509287165E+03 0.  0.
          5    1    3    3  502    0 -0.40658701383E+02  0.81867313117E+02  0.60531410217E+02  0.10971285694E+03  0.41800000000E+01 0.  1.
         -5    1    3    3    0  502 -0.21297933318E+02 -0.43786091885E+02  0.68584827501E+02  0.84215050730E+02  0.41800000000E+01 0.  1.
        -11    1    1    2    0    0  0.45585820405E+02  0.80010588114E+01 -0.21842240430E+02  0.51177802133E+02  0.00000000000E+00 0. -1.
         11    1    1    2    0    0  0.16370814296E+02 -0.46082280043E+02  0.48951341550E+02  0.69194031059E+02  0.00000000000E+00 0.  1.
</event>
<event>
 7    1  0.3151015E-009  0.9432981E+02  0.7561462E-02  0.1292693E+00
         -1   -1    0    0    0  501 -0.00000000000E+00  0.00000000000E+00  0.13053176376E+03  0.13053176376E+03  0.00000000000E+00 0.  1.
          1   -1    0    0  501    0  0.00000000000E+00 -0.00000000000E+00 -0.13772234229E+03  0.13772234229E+03  0.00000000000E+00 0. -1.
         25    2    1    2    0    0  0.14535161119E+01 -0.16682056263E+02 -0.95386567528E+02  0.15820026920E+03  0.12509326201E+03 0.  0.
          5    1    3    3  502    0  0.62286304171E+02  0.17328021495E+01 -0.49709722589E+02  0.79819265910E+02  0.41800000000E+01 0.  1.
         -5    1    3    3    0  502 -0.60832788059E+02 -0.18414858413E+02 -0.45676844940E+02  0.78381003292E+02  0.41800000000E+01 0. -1.
        -11    1    1    2    0    0  0.24360900784E+02  0.25469250984E+02  0.32056413327E+02  0.47641891945E+02  0.00000000000E+00 0.  1.
         11    1    1    2    0    0 -0.25814416896E+02 -0.87871947205E+01  0.56139575670E+02  0.62411944908E+02  0.00000000000E+00 0. -1.
</event>
<event>
 7    1  0.3151015E-009  0.1068731E+03  0.7561462E-02  0.1266472E+00
         -1   -1    0    0    0  501 -0.00000000000E+00  0.00000000000E+00  0.44113051924E+02  0.44113051924E+02  0.00000000000E+00 0.  1.
          1   -1    0    0  501    0  0.00000000000E+00 -0.00000000000E+00 -0.39887614537E+03  0.39887614537E+03  0.00000000000E+00 0. -1.
         25    2    1    2    0    0 -0.24787360260E+02  0.72312403868E+02 -0.19119765750E+03  0.24092984028E+03  0.12508855552E+03 0.  0.
          5    1    3    3  502    0 -0.60785687416E+02  0.31430262654E+02 -0.16823476525E+03  0.18166774574E+03  0.41800000000E+01 0. -1.
         -5    1    3    3    0  502  0.35998327156E+02  0.40882141215E+02 -0.22962892250E+02  0.59262094536E+02  0.41800000000E+01 0. -1.
        -11    1    1    2    0    0  0.27804152259E+01 -0.68090585327E+02 -0.16607296776E+03  0.17951125073E+03  0.00000000000E+00 0. -1.
         11    1    1    2    0    0  0.22006945034E+02 -0.42218185416E+01  0.25075318042E+01  0.22548106290E+02  0.00000000000E+00 0.  1.
</event>
<event>
 7    1  0.3151015E-009  0.1807771E+03  0.7561462E-02  0.1167053E+00
         -2   -1    0    0    0  501 -0.00000000000E+00  0.00000000000E+00  0.94805387740E+03  0.94805387740E+03  0.00000000000E+00 0.  1.
          2   -1    0    0  501    0  0.00000000000E+00 -0.00000000000E+00 -0.37970832751E+02  0.37970832751E+02  0.00000000000E+00 0. -1.
         25    2    1    2    0    0  0.12971069477E+03 -0.68512188675E+02  0.60294258254E+03  0.63301389415E+03  0.12509215808E+03 0.  0.
          5    1    3    3  502    0  0.88309405896E+02  0.19242075287E+02  0.21847086322E+03  0.23646521755E+03  0.41800000000E+01 0.  1.
         -5    1    3    3    0  502  0.41401288872E+02 -0.87754263961E+02  0.38447171932E+03  0.39654867661E+03  0.41800000000E+01 0.  1.
        -11    1    1    2    0    0 -0.85766341552E+02 -0.75646002966E+01  0.14740355440E+03  0.17070704840E+03  0.00000000000E+00 0.  1.
         11    1    1    2    0    0 -0.43944353216E+02  0.76076788971E+02  0.15973690770E+03  0.18230376760E+03  0.00000000000E+00 0. -1.
</event>
<event>
 7    1  0.3151015E-009  0.1003424E+03  0.7561462E-02  0.1279578E+00
         -1   -1    0    0    0  501 -0.00000000000E+00  0.00000000000E+00  0.33612680119E+03  0.33612680119E+03  0.00000000000E+00 0.  1.
          1   -1    0    0  501    0  0.00000000000E+00 -0.00000000000E+00 -0.49175434895E+02  0.49175434895E+02  0.00000000000E+00 0. -1.
         25    2    1    2    0    0  0.35126627193E+02  0.84072063854E+01  0.24501222824E+03  0.27745485897E+03  0.12508255562E+03 0.  0.
          5    1    3    3  502    0  0.31582581574E+01  0.56791125500E+02  0.18626533393E+03  0.19480106148E+03  0.41800000000E+01 0.  1.
         -5    1    3    3    0  502  0.31968369036E+02 -0.48383919114E+02  0.58746894305E+02  0.82653797482E+02  0.41800000000E+01 0.  1.
        -11    1    1    2    0    0  0.43173481837E+01 -0.36710087884E+02 -0.84072234819E+01  0.37907142526E+02  0.00000000000E+00 0. -1.
         11    1    1    2    0    0 -0.39443975377E+02  0.28302881498E+02  0.50346361537E+02  0.69940234591E+02  0.00000000000E+00 0.  1.
</event>
<event>
 7    1  0.3151015E-009  0.1111084E+03  0.7561462E-02  0.1258531E+00
          2   -1    0    0  501    0  0.00000000000E+00  0.00000000000E+00  0.23906513242E+03  0.23906513242E+03  0.00000000000E+00 0. -1.
         -2   -1    0    0    0  501 -0.00000000000E+00 -0.00000000000E+00 -0.57076534989E+02  0.57076534989E+02  0.00000000000E+00 0.  1.
         25    2    1    2    0    0 -0.36182630102E+02  0.17840131720E+02  0.78405254590E+02  0.15304049201E+03  0.12508619119E+03 0.  0.
          5    1    3    3  502    0  0.34335764205E+02 -0.28648969127E+02  0.15027635605E+02  0.47360430398E+02  0.41800000000E+01 0.  1.
         -5    1    3    3    0  502 -0.70518394308E+02  0.46489100847E+02  0.63377618986E+02  0.10568006161E+03  0.41800000000E+01 0.  1.
        -11    1    1    2    0    0  0.63585251513E+02 -0.11647240947E+02  0.92611834326E+02  0.11294110983E+03  0.00000000000E+00 0. -1.
         11    1    1    2    0    0 -0.27402621411E+02 -0.61928907728E+01  0.10971508512E+02  0.30160065572E+02  0.00000000000E+00 0.  1.
</event>
<event>
 7    1  0.3151015E-009  0.9543134E+02  0.7561462E-02  0.1290208E+00
          1   -1    0    0  501    0  0.00000000000E+00  0.00000000000E+00  0.85304901301E+03  0.85304901301E+03  0.00000000000E+00 0. -1.
         -1   -1    0    0    0  501 -0.00000000000E+00 -0.00000000000E+00 -0.15733962029E+02  0.15733962029E+02  0.00000000000E+00 0.  1.
         25    2    1    2    0    0  0.14197102981E+02 -0.14712611424E+02  0.60104869771E+03  0.61426779151E+03  0.12508942401E+03 0.  0.
          5    1    3    3  502    0  0.15750568165E+02 -0.59332681522E+02  0.16817259026E+03  0.17907523561E+03  0.41800000000E+01 0. -1.
         -5    1    3    3    0  502 -0.15534651832E+01  0.44620070097E+02  0.43287610745E+03  0.43519255590E+03  0.41800000000E+01 0. -1.
        -11    1    1    2    0    0 -0.44670656755E+02 -0.93783418456E+01  0.18288928967E+03  0.18849910649E+03  0.00000000000E+00 0.  1.
         11    1    1    2    0    0  0.30473553773E+02  0.24090953270E+02  0.53377063594E+02  0.66016077034E+02  0.00000000000E+00 0. -1.
</event>
<event>
 7    1  0.3151015E-009  0.1443270E+03  0.7561462E-02  0.1207623E+00
         -2   -1    0    0    0  501 -0.00000000000E+00  0.00000000000E+00  0.40381751453E+03  0.40381751453E+03  0.00000000000E+00 0.  1.
          2   -1    0    0  501    0  0.00000000000E+00 -0.00000000000E+00 -0.73108817065E+02  0.73108817065E+02  0.00000000000E+00 0. -1.
         25    2    1    2    0    0  0.94988795655E+02 -0.47545640537E+02  0.28882596147E+03  0.33219417041E+03  0.12509624936E+03 0.  0.
          5    1    3    3  502    0  0.93682591639E+02 -0.81029309707E+02  0.18225350933E+03  0.22039961677E+03  0.41800000000E+01 0.  1.
         -5    1    3    3    0  502  0.13062040157E+01  0.33483669170E+02  0.10657245214E+03  0.11179455365E+03  0.41800000000E+01 0.  1.
        -11    1    1    2    0    0 -0.12888030030E+02 -0.20569094229E+02  0.28156424350E+02  0.37174899968E+02  0.00000000000E+00 0.  1.
         11    1    1    2    0    0 -0.82100765625E+02  0.68114734766E+02  0.13726311645E+02  0.10755726121E+03  0.00000000000E+00 0. -1.
</event>
<event>
 7    1  0.3151015E-009  0.1336183E+03  0.7561462E-02  0.1222184E+00
          1   -1    0    0  501    0  0.00000000000E+00  0.00000000000E+00  0.41638610458E+03  0.41638610458E+03  0.00000000000E+00 0. -1.
         -1   -1    0    0    0  501 -0.00000000000E+00 -0.00000000000E+00 -0.57915169514E+02  0.57915169514E+02  0.00000000000E+00 0.  1.
         25    2    1    2    0    0  0.91813027735E+01  0.10956077746E+03  0.20489370098E+03  0.26403987328E+03  0.12509102966E+03 0.  0.
          5    1    3    3  502    0  0.59687699753E+02  0.48200305409E+02  0.14617946803E+03  0.16514175794E+03  0.41800000000E+01 0. -1.
         -5    1    3    3    0  502 -0.50506396980E+02  0.61360472054E+02  0.58714232958E+02  0.98898115343E+02  0.41800000000E+01 0. -1.
        -11    1    1    2    0    0  0.34519079516E+01 -0.37659796323E+02  0.12709823587E+03  0.13260519405E+03  0.00000000000E+00 0. -1.
         11    1    1    2    0    0 -0.12633210725E+02 -0.71900981140E+02  0.26478998212E+02  0.77656206760E+02  0.00000000000E+00 0.  1.
</event>
<event>
 7    1  0.3151015E-009  0.8898162E+02  0.7561462E-02  0.1305337E+00
          1   -1    0    0  501    0  0.00000000000E+00  0.00000000000E+00  0.44067675573E+03  0.44067675573E+03  0.00000000000E+00 0. -1.
         -1   -1    0    0    0  501 -0.00000000000E+00 -0.00000000000E+00 -0.34563416735E+02  0.34563416735E+02  0.00000000000E+00 0.  1.
         25    2    1    2    0    0 -0.92171680353E+01  0.47669241102E+02  0.29000381758E+03  0.31954169270E+03  0.12508943371E+03 0.  0.
          5    1    3    3  502    0  0.22290652118E+02  0.32075507517E+02  0.14657690497E+02  0.41928887953E+02  0.41800000000E+01 0. -1.
         -5    1    3    3    0  502 -0.31507820153E+02  0.15593733586E+02  0.27534612708E+03  0.27761280474E+03  0.41800000000E+01 0. -1.
        -11    1    1    2    0    0 -0.17199253857E+02 -0.67874031665E+02  0.85360248363E+02  0.11040412360E+03  0.00000000000E+00 0. -1.
         11    1    1    2    0    0  0.26416421892E+02  0.20204790563E+02  0.30749273054E+02  0.45294356167E+02  0.00000000000E+00 0.  1.
</event>
<event>
 7    1  0.3151015E-009  0.9129191E+02  0.7561462E-02  0.1299753E+00
         -1   -1    0    0    0  501 -0.00000000000E+00  0.00000000000E+00  0.23934127538E+02  0.23934127538E+02  0.00000000000E+00 0.  1.
          1   -1    0    0  501    0  0.00000000000E+00 -0.00000000000E+00 -0.71791356157E+03  0.71791356157E+03  0.00000000000E+00 0. -1.
         25    2    1    2    0    0 -0.39818494797E+01 -0.47380487585E+02 -0.57123747650E+03  0.58670306777E+03  0.12508984550E+03 0.  0.
          5    1    3    3  502    0 -0.38128399252E+02 -0.57899962053E+02 -0.51684552394E+03  0.52149108185E+03  0.41800000000E+01 0.  1.
         -5    1    3    3    0  502  0.34146549772E+02  0.10519474468E+02 -0.54391952558E+02  0.65211985919E+02  0.41800000000E+01 0.  1.
        -11    1    1    2    0    0  0.31885533581E+02  0.32518217660E+02 -0.24029624640E+02  0.51493150922E+02  0.00000000000E+00 0.  1.
         11    1    1    2    0    0 -0.27903684101E+02  0.14862269925E+02 -0.98712332892E+02  0.10365147041E+03  0.00000000000E+00 0. -1.
</event>
<event>
 7    1  0.3151015E-009  0.1143685E+03  0.7561462E-02  0.1252687E+00
         -1   -1    0    0    0  501 -0.00000000000E+00  0.00000000000E+00  0.17904709051E+02  0.17904709051E+02  0.00000000000E+00 0.  1.
          1   -1    0    0  501    0  0.00000000000E+00 -0.00000000000E+00 -0.82467475140E+03  0.82467475140E+03  0.00000000000E+00 0. -1.
         25    2    1    2    0    0  0.91381099213E+01  0.53801402612E+02 -0.44706399464E+03  0.46743194097E+03  0.12509319791E+03 0.  0.
          5    1    3    3  502    0  0.55793889723E+02  0.26963093672E+01 -0.11147512675E+03  0.12475738254E+03  0.41800000000E+01 0.  1.
         -5    1    3    3    0  502 -0.46655779802E+02  0.51105093245E+02 -0.33558886789E+03  0.34267455844E+03  0.41800000000E+01 0.  1.
        -11    1    1    2    0    0  0.14786987408E+02 -0.71895202737E+02 -0.20978668906E+03  0.22225667612E+03  0.00000000000E+00 0.  1.
         11    1    1    2    0    0 -0.23925097330E+02  0.18093800125E+02 -0.14991935865E+03  0.15289084336E+03  0.00000000000E+00 0. -1.
</event>
<event>
 7    1  0.3151015E-009  0.1271221E+03  0.7561462E-02  0.1231790E+00
          1   -1    0    0  501    0  0.00000000000E+00  0.00000000000E+00  0.14610674504E+04  0.14610674504E+04  0.00000000000E+00 0. -1.
         -1   -1    0    0    0  501 -0.00000000000E+00 -0.00000000000E+00 -0.16621621251E+02  0.16621621251E+02  0.00000000000E+00 0.  1.
         25    2    1    2    0    0  0.43803553515E+02 -0.64496570342E+02  0.11622340311E+04  0.11715432831E+04  0.12508861740E+03 0.  0.
          5    1    3    3  502    0  0.73082943724E+02 -0.74538418797E+02  0.64856622813E+03  0.65692672134E+03  0.41800000000E+01 0.  1.
         -5    1    3    3    0  502 -0.29279390209E+02  0.10041848455E+02  0.51366780300E+03  0.51461656177E+03  0.41800000000E+01 0.  1.
        -11    1    1    2    0    0  0.15929208352E+02  0.55977428234E+02  0.14571686649E+03  0.15690958329E+03  0.00000000000E+00 0.  1.
         11    1    1    2    0    0 -0.59732761867E+02  0.85191421081E+01  0.13649493154E+03  0.14923620526E+03  0.00000000000E+00 0. -1.
</event>
<event>
 7    1  0.4544432E-009  0.9521132E+02  0.7561462E-02  0.1290701E+00
         -2   -1    0    0    0  501 -0.00000000000E+00  0.00000000000E+00  0.10777686860E+03  0.10777686860E+03  0.00000000000E+00 0.  1.
          2   -1    0    0  501    0  0.00000000000E+00 -0.00000000000E+00 -0.13670296646E+03  0.13670296646E+03  0.00000000000E+00 0. -1.
         25    2    1    2    0    0  0.37053494964E+02  0.32924139505E+02  0.78466251265E+01  0.13478435494E+03  0.12509313474E+03 0.  0.
          5    1    3    3  502    0 -0.12017685229E+02  0.71086737137E+02  0.26819993654E+01  0.72266274815E+02  0.41800000000E+01 0.  1.
         -5    1    3    3    0  502  0.49071180193E+02 -0.38162597632E+02  0.51646257611E+01  0.62518080127E+02  0.41800000000E+01 0.  1.
        -11    1    1    2    0    0 -0.17371682258E+02  0.19845501535E+00  0.28804081361E+02  0.33637625242E+02  0.00000000000E+00 0.  1.
         11    1    1    2    0    0 -0.19681812707E+02 -0.33122594520E+02 -0.65576804354E+02  0.76057854877E+02  0.00000000000E+00 0. -1.
</event>
<event>
 7    1  0.3151015E-009  0.1236505E+03  0.7561462E-02  0.1237194E+00
          3   -1    0    0  501    0  0.00000000000E+00  0.00000000000E+00  0.88421917344E+02  0.88421917344E+02  0.00000000000E+00 0. -1.
         -3   -1    0    0    0  501 -0.00000000000E+00 -0.00000000000E+00 -0.22846329025E+03  0.22846329025E+03  0.00000000000E+00 0.  1.
         25    2    1    2    0    0  0.90682297731E+02  0.11877028381E+02 -0.70553346590E+02  0.17026554697E+03  0.12509292085E+03 0.  0.
          5    1    3    3  502    0 -0.16909197986E+02  0.14391794810E+02  0.19523085539E+02  0.29860810494E+02  0.41800000000E+01 0.  1.
         -5    1    3    3    0  502  0.10759149572E+03 -0.25147664286E+01 -0.90076432129E+02  0.14040473648E+03  0.41800000000E+01 0.  1.
        -11    1    1    2    0    0 -0.74816163670E+02  0.23344949678E+02 -0.73922112680E+02  0.10773543412E+03  0.00000000000E+00 0.  1.
         11    1    1    2    0    0 -0.15866134061E+02 -0.35221978059E+02  0.44340863675E+01  0.38884226498E+02  0.00000000000E+00 0. -1.
</event>
<event>
 7    1  0.3151015E-009  0.1338416E+03  0.7561462E-02  0.1221864E+00
         -2   -1    0    0    0  501 -0.00000000000E+00  0.00000000000E+00  0.23990865952E+02  0.23990865952E+02  0.00000000000E+00 0. -1.
          2   -1    0    0  501    0  0.00000000000E+00 -0.00000000000E+00 -0.11790924617E+04  0.11790924617E+04  0.00000000000E+00 0.  1.
         25    2    1    2    0    0  0.55613993859E+02  0.94009830695E+02 -0.86091738427E+03  0.87678778418E+03  0.12508921366E+03 0.  0.
          5    1    3    3  502    0  0.49633933789E+02 -0.86313554538E+01 -0.14602337429E+03  0.15452613346E+03  0.41800000000E+01 0.  1.
         -5    1    3    3    0  502  0.59800600701E+01  0.10264118615E+03 -0.71489400997E+03  0.72226165073E+03  0.41800000000E+01 0.  1.
        -11    1    1    2    0    0 -0.27681157868E+02 -0.76277858772E+02 -0.27773507807E+03  0.28934638727E+03  0.00000000000E+00 0.  1.
         11    1    1    2    0    0 -0.27932835992E+02 -0.17731971923E+02 -0.16449133442E+02  0.36949156226E+02  0.00000000000E+00 0. -1.
</event>
<event>
 7    1  0.3151015E-009  0.1092623E+03  0.7561462E-02  0.1261942E+00
         -1   -1    0    0    0  501 -0.00000000000E+00  0.00000000000E+00  0.22626242018E+03  0.22626242018E+03  0.00000000000E+00 0.  1.
          1   -1    0    0  501    0  0.00000000000E+00 -0.00000000000E+00 -0.89312902368E+02  0.89312902368E+02  0.00000000000E+00 0. -1.
         25    2    1    2    0    0  0.78332175573E+02 -0.22804505173E+02  0.11921695741E+03  0.19108886024E+03  0.12508514854E+03 0.  0.
          5    1    3    3  502    0  0.32044570666E+02  0.24424648895E+02  0.11806109709E+03  0.12481711833E+03  0.41800000000E+01 0. -1.
         -5    1    3    3    0  502  0.46287604907E+02 -0.47229154067E+02  0.11558603217E+01  0.66271741904E+02  0.41800000000E+01 0. -1.
        -11    1    1    2    0    0 -0.85674174797E+02 -0.21923121725E+01  0.35698200224E+02  0.92839818823E+02  0.00000000000E+00 0.  1.
         11    1    1    2    0    0  0.73419992247E+01  0.24996817345E+02 -0.17965639821E+02  0.31646643490E+02  0.00000000000E+00 0. -1.
</event>
<event>
 7    1  0.3151015E-009  0.1241173E+03  0.7561462E-02  0.1236455E+00
          1   -1    0    0  501    0  0.00000000000E+00  0.00000000000E+00  0.10043846123E+04  0.10043846123E+04  0.00000000000E+00 0. -1.
         -1   -1    0    0    0  501 -0.00000000000E+00 -0.00000000000E+00 -0.15780276710E+02  0.15780276710E+02  0.00000000000E+00 0.  1.
         25    2    1    2    0    0  0.17584209847E+02 -0.60370006340E+02  0.56219872797E+03  0.57936972218E+03  0.12509245839E+03 0.  0.
          5    1    3    3  502    0 -0.37186103499E+02  0.18358778563E+02  0.12537079894E+03  0.13211798012E+03  0.41800000000E+01 0.  1.
         -5    1    3    3    0  502  0.54770313346E+02 -0.78728784903E+02  0.43682792903E+03  0.44725174206E+03  0.41800000000E+01 0.  1.
        -11    1    1    2    0    0 -0.55013199944E+02  0.39247352849E+02  0.22887709546E+03  0.23864520046E+03  0.00000000000E+00 0. -1.
         11    1    1    2    0    0  0.37428990097E+02  0.21122653491E+02  0.19752851220E+03  0.20214996641E+03  0.00000000000E+00 0.  1.
</event>
<event>
 7    1  0.3151015E-009  0.7085048E+02  0.7561462E-02  0.1357225E+00
          2   -1    0    0  501    0  0.00000000000E+00  0.00000000000E+00  0.25574346468E+03  0.25574346468E+03  0.00000000000E+00 0. -1.
         -2   -1    0    0    0  501 -0.00000000000E+00 -0.00000000000E+00 -0.58965655141E+02  0.58965655141E+02  0.00000000000E+00 0.  1.
         25    2    1    2    0    0 -0.47622520096E+02  0.30652813949E+02  0.10152130065E+03  0.17076820322E+03  0.12509078832E+03 0.  0.
          5    1    3    3  502    0  0.20470560154E+01  0.17565846351E+02  0.11585972781E+03  0.11727616264E+03  0.41800000000E+01 0. -1.
         -5    1    3    3    0  502 -0.49669576111E+02  0.13086967599E+02 -0.14338427159E+02  0.53492040580E+02  0.41800000000E+01 0. -1.
        -11    1    1    2    0    0  0.12191207213E+02  0.11616463950E+02 -0.13772969345E+02  0.21754596125E+02  0.00000000000E+00 0.  1.
         11    1    1    2    0    0  0.35431312883E+02 -0.42269277899E+02  0.10902947823E+03  0.12218632047E+03  0.00000000000E+00 0. -1.
</event>
<event>
 7    1  0.3151015E-009  0.1517486E+03  0.7561462E-02  0.1198341E+00
          1   -1    0    0  501    0  0.00000000000E+00  0.00000000000E+00  0.36758930196E+03  0.36758930196E+03  0.00000000000E+00 0. -1.
         -1   -1    0    0    0  501 -0.00000000000E+00 -0.00000000000E+00 -0.67931514371E+02  0.67931514371E+02  0.00000000000E+00 0.  1.
         25    2    1    2    0    0  0.10558456888E+02  0.11399093793E+03  0.14029483510E+03  0.22007966446E+03  0.12508798108E+03 0.  0.
          5    1    3    3  502    0 -0.48430260484E+02  0.69285328419E+02  0.35654759365E+02  0.91840520088E+02  0.41800000000E+01 0. -1.
         -5    1    3    3    0  502  0.58988717371E+02  0.44705609511E+02  0.10464007574E+03  0.12823914437E+03  0.41800000000E+01 0. -1.
        -11    1    1    2    0    0  0.35541635606E+02 -0.79719449222E+02  0.89864315235E+02  0.12527567042E+03  0.00000000000E+00 0. -1.
         11    1    1    2    0    0 -0.46100092493E+02 -0.34271488707E+02  0.69498637253E+02  0.90165481456E+02  0.00000000000E+00 0.  1.
</event>
<event>
 7    1  0.3151015E-009  0.1224537E+03  0.7561462E-02  0.1239103E+00
         -2   -1    0    0    0  501 -0.00000000000E+00  0.00000000000E+00  0.87813482523E+02  0.87813482523E+02  0.00000000000E+00 0.  1.
          2   -1    0    0  501    0  0.00000000000E+00 -0.00000000000E+00 -0.22289375669E+03  0.22289375669E+03  0.00000000000E+00 0. -1.
         25    2    1    2    0    0  0.47513432689E+01 -0.83113688816E+02 -0.10083800828E+03  0.18095677760E+03  0.12508633383E+03 0.  0.
          5    1    3    3  502    0  0.23747495161E+02  0.26843682026E+02 -0.11250465830E+02  0.37796457143E+02  0.41800000000E+01 0.  1.
         -5    1    3    3    0  502 -0.18996151892E+02 -0.10995737084E+03 -0.89587542453E+02  0.14316032045E+03  0.41800000000E+01 0.  1.
        -11    1    1    2    0    0 -0.20511209551E+02  0.10863282845E+02 -0.49112517923E+02  0.54320898816E+02  0.00000000000E+00 0. -1.
         11    1    1    2    0    0  0.15759866282E+02  0.72250405971E+02  0.14870252041E+02  0.75429562799E+02  0.00000000000E+00 0.  1.
</event>
<event>
 7    1  0.3151015E-009  0.2986746E+03  0.7561462E-02  0.1085905E+00
         -2   -1    0    0    0  501 -0.00000000000E+00  0.00000000000E+00  0.55002150806E+03  0.55002150806E+03  0.00000000000E+00 0.  1.
          2   -1    0    0  501    0  0.00000000000E+00 -0.00000000000E+00 -0.16760657381E+03  0.16760657381E+03  0.00000000000E+00 0. -1.
         25    2    1    2    0    0  0.16314284844E+03 -0.22504123634E+03  0.25704425546E+03  0.39872206606E+03  0.12509352363E+03 0.  0.
          5    1    3    3  502    0 -0.20153113874E+02 -0.14216658679E+02  0.27006795023E+02  0.36811693253E+02  0.41800000000E+01 0.  1.
         -5    1    3    3    0  502  0.18329596231E+03 -0.21082457766E+03  0.23003746043E+03  0.36191037281E+03  0.41800000000E+01 0.  1.
        -11    1    1    2    0    0 -0.13079669318E+03  0.10242644654E+03  0.78109927901E+02  0.18357590456E+03  0.00000000000E+00 0.  1.
         11    1    1    2    0    0 -0.32346155255E+02  0.12261478979E+03  0.47260750898E+02  0.13533011125E+03  0.00000000000E+00 0. -1.
</event>
<event>
 7    1  0.3151015E-009  0.1040810E+03  0.7561462E-02  0.1271941E+00
         -1   -1    0    0    0  501 -0.00000000000E+00  0.00000000000E+00  0.52680877001E+03  0.52680877001E+03  0.00000000000E+00 0.  1.
          1   -1    0    0  501    0  0.00000000000E+00 -0.00000000000E+00 -0.24132698291E+02  0.24132698291E+02  0.00000000000E+00 0. -1.
         25    2    1    2    0    0 -0.22883933853E+01  0.46566637227E+01  0.20717737499E+03  0.24206846341E+03  0.12509098691E+03 0.  0.
          5    1    3    3  502    0 -0.51281063199E+02  0.34789696686E+02  0.14230784304E+03  0.15527094071E+03  0.41800000000E+01 0.  1.
         -5    1    3    3    0  502  0.48992669813E+02 -0.30133032963E+02  0.64869531952E+02  0.86797522699E+02  0.41800000000E+01 0.  1.
        -11    1    1    2    0    0 -0.20330223471E+02  0.36294795272E+02  0.11112616205E+03  0.11865771801E+03  0.00000000000E+00 0.  1.
         11    1    1    2    0    0  0.22618616856E+02 -0.40951458995E+02  0.18437253468E+03  0.19021528689E+03  0.00000000000E+00 0. -1.
</event>
<event>
 7    1  0.3151015E-009  0.9342792E+02  0.7561462E-02  0.1294757E+00
          1   -1    0    0  501    0  0.00000000000E+00  0.00000000000E+00  0.33706946475E+02  0.33706946475E+02  0.00000000000E+00 0. -1.
         -1   -1    0    0    0  501 -0.00000000000E+00 -0.00000000000E+00 -0.35389374170E+03  0.35389374170E+03  0.00000000000E+00 0.  1.
         25    2    1    2    0    0 -0.39219775950E+01  0.14884923117E+02 -0.17637139161E+03  0.21677396754E+03  0.12508853817E+03 0.  0.
          5    1    3    3  502    0  0.25271182626E+02 -0.33260770899E+02 -0.14750504761E+03  0.15336271719E+03  0.41800000000E+01 0.  1.
         -5    1    3    3    0  502 -0.29193160221E+02  0.48145694016E+02 -0.28866343995E+02  0.63411250355E+02  0.41800000000E+01 0.  1.
        -11    1    1    2    0    0 -0.16647748104E+02 -0.47233002534E+02 -0.10468733479E+03  0.11604973981E+03  0.00000000000E+00 0.  1.
         11    1    1    2    0    0  0.20569725699E+02  0.32348079417E+02 -0.39128068823E+02  0.54776980814E+02  0.00000000000E+00 0. -1.
</event>
<event>
 7    1  0.3257628E-009  0.1016264E+03  0.7561462E-02  0.1276913E+00
         -1   -1    0    0    0  501 -0.00000000000E+00  0.00000000000E+00  0.12016797754E+02  0.12016797754E+02  0.00000000000E+00 0.  1.
          1   -1    0    0  501    0  0.00000000000E+00 -0.00000000000E+00 -0.10811963142E+04  0.10811963142E+04  0.00000000000E+00 0. -1.
         25    2    1    2    0    0 -0.13703519382E+02  0.93250454310E+01 -0.75969987997E+03  0.77011718343E+03  0.12514721594E+03 0.  0.
          5    1    3    3  502    0  0.45510467074E+02 -0.12675020093E+02 -0.15450872894E+03  0.16162387963E+03  0.41800000000E+01 0. -1.
         -5    1    3    3    0  502 -0.59213986456E+02  0.22000065524E+02 -0.60519115104E+03  0.60849330380E+03  0.41800000000E+01 0. -1.
        -11    1    1    2    0    0  0.19813734238E+02  0.39034170699E+02 -0.13375297931E+03  0.14073418214E+03  0.00000000000E+00 0. -1.
         11    1    1    2    0    0 -0.61102148558E+01 -0.48359216130E+02 -0.17572665711E+03  0.18236174635E+03  0.00000000000E+00 0.  1.
</event>
<event>
 7    1  0.3151015E-009  0.1189999E+03  0.7561462E-02  0.1244756E+00
         -2   -1    0    0    0  501 -0.00000000000E+00  0.00000000000E+00  0.70687022575E+02  0.70687022575E+02  0.00000000000E+00 0.  1.
          2   -1    0    0  501    0  0.00000000000E+00 -0.00000000000E+00 -0.28669942229E+03  0.28669942229E+03  0.00000000000E+00 0. -1.
         25    2    1    2    0    0  0.50032667054E+02  0.61790625502E+02 -0.17731415356E+03  0.23110458183E+03  0.12509064520E+03 0.  0.
          5    1    3    3  502    0  0.74394618520E+02  0.57323728533E+02 -0.60903058761E+02  0.11201439231E+03  0.41800000000E+01 0. -1.
         -5    1    3    3    0  502 -0.24361951466E+02  0.44668969693E+01 -0.11641109480E+03  0.11909018952E+03  0.41800000000E+01 0. -1.
        -11    1    1    2    0    0 -0.69234447045E+02 -0.69572803108E+02 -0.24495298840E+02  0.10116226201E+03  0.00000000000E+00 0.  1.
         11    1    1    2    0    0  0.19201779991E+02  0.77821776061E+01 -0.14202947309E+02  0.25119601020E+02  0.00000000000E+00 0. -1.
</event>
<event>
 7    1  0.3151015E-009  0.3120245E+03  0.7561462E-02  0.1079380E+00
         -2   -1    0    0    0  501 -0.00000000000E+00  0.00000000000E+00  0.19113301281E+03  0.19113301281E+03  0.00000000000E+00 0.  1.
          2   -1    0    0  501    0  0.00000000000E+00 -0.00000000000E+00 -0.61183444934E+03  0.61183444934E+03  0.00000000000E+00 0. -1.
         25    2    1    2    0    0 -0.30807526768E+03 -0.15455917202E+02 -0.87434436886E+02  0.34415649046E+03  0.12509857409E+03 0.  0.
          5    1    3    3  502    0 -0.99366146749E+02 -0.34425165016E+02  0.22268257297E+02  0.10757355990E+03  0.41800000000E+01 0. -1.
         -5    1    3    3    0  502 -0.20870912093E+03  0.18969247814E+02 -0.10970269418E+03  0.23658293056E+03  0.41800000000E+01 0. -1.
        -11    1    1    2    0    0  0.15087705602E+03  0.18210409398E+02 -0.11884238186E+03  0.19292230760E+03  0.00000000000E+00 0.  1.
         11    1    1    2    0    0  0.15719821166E+03 -0.27544921964E+01 -0.21442461779E+03  0.26588866408E+03  0.00000000000E+00 0. -1.
</event>
<event>
 7    1  0.3151015E-009  0.1473476E+03  0.7561462E-02  0.1203771E+00
         -1   -1    0    0    0  501 -0.00000000000E+00  0.00000000000E+00  0.24892984019E+03  0.24892984019E+03  0.00000000000E+00 0.  1.
          1   -1    0    0  501    0  0.00000000000E+00 -0.00000000000E+00 -0.11044115065E+03  0.11044115065E+03  0.00000000000E+00 0. -1.
         25    2    1    2    0    0  0.11260099808E+03 -0.10512642255E+00  0.14110061005E+02  0.16889311673E+03  0.12508715056E+03 0.  0.
          5    1    3    3  502    0  0.11107775958E+03  0.46180080597E+02  0.23207998150E+00  0.12036774809E+03  0.41800000000E+01 0. -1.
         -5    1    3    3    0  502  0.15232385001E+01 -0.46285207020E+02  0.13877981024E+02  0.48525368640E+02  0.41800000000E+01 0. -1.
        -11    1    1    2    0    0 -0.42156015868E+02  0.29546467812E+02  0.96173914050E+02  0.10908503645E+03  0.00000000000E+00 0.  1.
         11    1    1    2    0    0 -0.70444982216E+02 -0.29441341389E+02  0.28204714488E+02  0.81392837655E+02  0.00000000000E+00 0. -1.
</event>
<event>
 7    1  0.3151015E-009  0.1401517E+03  0.7561462E-02  0.1213125E+00
          4   -1    0    0  501    0  0.00000000000E+00  0.00000000000E+00  0.60596061280E+03  0.60596061280E+03  0.00000000000E+00 0. -1.
         -4   -1    0    0    0  501 -0.00000000000E+00 -0.00000000000E+00 -0.35089421470E+02  0.35089421470E+02  0.00000000000E+00 0.  1.
         25    2    1    2    0    0  0.96052881417E+02 -0.79701180909E+01  0.28019033016E+03  0.32162812339E+03  0.12509336445E+03 0.  0.
          5    1    3    3  502    0  0.82421188396E+02 -0.58055871971E+02  0.14410254924E+03  0.17591689420E+03  0.41800000000E+01 0. -1.
         -5    1    3    3    0  502  0.13631693022E+02  0.50085753880E+02  0.13608778093E+03  0.14571122920E+03  0.41800000000E+01 0. -1.
        -11    1    1    2    0    0 -0.19021832576E+02 -0.34475121316E+02  0.13488898709E+03  0.14051833668E+03  0.00000000000E+00 0. -1.
         11    1    1    2    0    0 -0.77031048841E+02  0.42445239407E+02  0.15579187408E+03  0.17890357420E+03  0.00000000000E+00 0.  1.
</event>
<event>
 7    1  0.3151015E-009  0.1083935E+03  0.7561462E-02  0.1263574E+00
          4   -1    0    0  501    0  0.00000000000E+00  0.00000000000E+00  0.25240308191E+03  0.25240308191E+03  0.00000000000E+00 0. -1.
         -4   -1    0    0    0  501 -0.00000000000E+00 -0.00000000000E+00 -0.80543951244E+02  0.80543951244E+02  0.00000000000E+00 0.  1.
         25    2    1    2    0    0 -0.56969029333E+02 -0.22953740934E+02  0.15898004683E+02  0.14026230831E+03  0.12509366112E+03 0.  0.
          5    1    3    3  502    0 -0.53852709136E+02  0.23118268754E+02 -0.37377701916E+02  0.69635720949E+02  0.41800000000E+01 0. -1.
         -5    1    3    3    0  502 -0.31163201967E+01 -0.46072009688E+02  0.53275706599E+02  0.70626587358E+02  0.41800000000E+01 0. -1.
        -11    1    1    2    0    0  0.37578406871E+02 -0.34509607497E+02  0.55928260141E+02  0.75703500282E+02  0.00000000000E+00 0.  1.
         11    1    1    2    0    0  0.19390622462E+02  0.57463348431E+02  0.10003286585E+03  0.11698122457E+03  0.00000000000E+00 0. -1.
</event>
<event>
 7    1  0.3151015E-009  0.1552047E+03  0.7561462E-02  0.1194220E+00
          1   -1    0    0  501    0  0.00000000000E+00  0.00000000000E+00  0.11765354197E+03  0.11765354197E+03  0.00000000000E+00 0. -1.
         -1   -1    0    0    0  501 -0.00000000000E+00 -0.00000000000E+00 -0.26665617265E+03  0.26665617265E+03  0.00000000000E+00 0.  1.
         25    2    1    2    0    0  0.55727327791E+01 -0.12950520330E+03 -0.92737914403E+02  0.20261236990E+03  0.12509515832E+03 0.  0.
          5    1    3    3  502    0 -0.39867239399E+02 -0.11920180751E+03 -0.39671862103E+02  0.13187037853E+03  0.41800000000E+01 0. -1.
         -5    1    3    3    0  502  0.45439972178E+02 -0.10303395791E+02 -0.53066052299E+02  0.70741991370E+02  0.41800000000E+01 0. -1.
        -11    1    1    2    0    0  0.14920897912E+02  0.10439434353E+03  0.11993023919E+02  0.10613503087E+03  0.00000000000E+00 0. -1.
         11    1    1    2    0    0 -0.20493630691E+02  0.25110859769E+02 -0.68257740197E+02  0.75562313848E+02  0.00000000000E+00 0.  1.
</event>
<event>
 7    1  0.3151015E-009  0.1199164E+03  0.7561462E-02  0.1243235E+00
          2   -1    0    0  501    0  0.00000000000E+00  0.00000000000E+00  0.24828971758E+03  0.24828971758E+03  0.00000000000E+00 0. -1.
         -2   -1    0    0    0  501 -0.00000000000E+00 -0.00000000000E+00 -0.75473929531E+02  0.75473929531E+02  0.00000000000E+00 0.  1.
         25    2    1    2    0    0  0.10281387352E+02  0.81487041241E+02  0.89980118088E+02  0.17460827857E+03  0.12508311028E+03 0.  0.
          5    1    3    3  502    0 -0.23780422293E+02 -0.10546022959E+02 -0.15425883912E+02  0.30531252499E+02  0.41800000000E+01 0.  1.
         -5    1    3    3    0  502  0.34061809645E+02  0.92033064200E+02  0.10540600200E+03  0.14407702607E+03  0.41800000000E+01 0.  1.
        -11    1    1    2    0    0 -0.15092467424E+02 -0.97438706660E+02  0.87528358147E+02  0.13184573413E+03  0.00000000000E+00 0. -1.
         11    1    1    2    0    0  0.48110800725E+01  0.15951665419E+02 -0.46926881880E+01  0.17309634413E+02  0.00000000000E+00 0.  1.
</event>
<event>
 7    1  0.3151015E-009  0.1880908E+03  0.7561462E-02  0.1160195E+00
         -1   -1    0    0    0  501 -0.00000000000E+00  0.00000000000E+00  0.21055996760E+03  0.21055996760E+03  0.00000000000E+00 0.  1.
          1   -1    0    0  501    0  0.00000000000E+00 -0.00000000000E+00 -0.27176914112E+03  0.27176914112E+03  0.00000000000E+00 0. -1.
         25    2    1    2    0    0  0.35419811657E+01 -0.17380349383E+03  0.91499856684E+02  0.23289342296E+03  0.12508765962E+03 0.  0.
          5    1    3    3  502    0  0.80849176556E+01  0.80955285785E+01  0.42781830301E+02  0.44482141140E+02  0.41800000000E+01 0. -1.
         -5    1    3    3    0  502 -0.45429364898E+01 -0.18189902240E+03  0.48718026383E+02  0.18841128182E+03  0.41800000000E+01 0. -1.
        -11    1    1    2    0    0  0.22037071310E+02  0.39065596721E+02 -0.91359428934E+00  0.44861877063E+02  0.00000000000E+00 0.  1.
         11    1    1    2    0    0 -0.25579052475E+02  0.13473789711E+03 -0.15179543591E+03  0.20457380869E+03  0.00000000000E+00 0. -1.
</event>
<event>
 7    1  0.3151015E-009  0.1450189E+03  0.7561462E-02  0.1206731E+00
          1   -1    0    0  501    0  0.00000000000E+00  0.00000000000E+00  0.29227496149E+02  0.29227496149E+02  0.00000000000E+00 0. -1.
         -1   -1    0    0    0  501 -0.00000000000E+00 -0.00000000000E+00 -0.13735138839E+04  0.13735138839E+04  0.00000000000E+00 0.  1.
         25    2    1    2    0    0  0.97231505823E+02  0.10119391941E+03 -0.10311738994E+04  0.10481703372E+04  0.12508904804E+03 0.  0.
          5    1    3    3  502    0  0.67581778921E+02  0.33212482199E+02 -0.20105825946E+03  0.21473765835E+03  0.41800000000E+01 0.  1.
         -5    1    3    3    0  502  0.29649726902E+02  0.67981437208E+02 -0.83011563995E+03  0.83343267886E+03  0.41800000000E+01 0.  1.
        -11    1    1    2    0    0 -0.43129564175E+02 -0.45127346550E+02 -0.49446083521E+02  0.79633861442E+02  0.00000000000E+00 0. -1.
         11    1    1    2    0    0 -0.54101941648E+02 -0.56066572857E+02 -0.26366640482E+03  0.27493718139E+03  0.00000000000E+00 0.  1.
</event>
<event>
 7    1  0.3151015E-009  0.1012582E+03  0.7561462E-02  0.1277672E+00
         -2   -1    0    0    0  501 -0.00000000000E+00  0.00000000000E+00  0.51357915079E+02  0.51357915079E+02  0.00000000000E+00 0.  1.
          2   -1    0    0  501    0  0.00000000000E+00 -0.00000000000E+00 -0.31658990910E+03  0.31658990910E+03  0.00000000000E+00 0. -1.
         25    2    1    2    0    0  0.73002615295E+02 -0.16409016166E+02 -0.19826325873E+03  0.24608347956E+03  0.12510044562E+03 0.  0.
          5    1    3    3  502    0  0.83042710507E+02 -0.25721138703E+02 -0.56871775842E+02  0.10396893782E+03  0.41800000000E+01 0. -1.
         -5    1    3    3    0  502 -0.10040095212E+02  0.93121225371E+01 -0.14139148289E+03  0.14211454173E+03  0.41800000000E+01 0. -1.
        -11    1    1    2    0    0 -0.42867811986E+02 -0.25247253399E+02 -0.26065215113E+02  0.56164655679E+02  0.00000000000E+00 0. -1.
         11    1    1    2    0    0 -0.30134803309E+02  0.41656269564E+02 -0.40903520174E+02  0.65699688942E+02  0.00000000000E+00 0.  1.
</event>
<event>
 7    1  0.3151015E-009  0.8732679E+02  0.7561462E-02  0.1309457E+00
         -1   -1    0    0    0  501 -0.00000000000E+00  0.00000000000E+00  0.68826308560E+02  0.68826308560E+02  0.00000000000E+00 0.  1.
          1   -1    0    0  501    0  0.00000000000E+00 -0.00000000000E+00 -0.19709799860E+03  0.19709799860E+03  0.00000000000E+00 0. -1.
         25    2    1    2    0    0 -0.27268157411E+02 -0.31415293098E+01 -0.10966614940E+03  0.16860504204E+03  0.12509026446E+03 0.  0.
          5    1    3    3  502    0  0.45005864390E+02  0.23365290043E+02 -0.40525913433E+02  0.65048341008E+02  0.41800000000E+01 0.  1.
         -5    1    3    3    0  502 -0.72274021801E+02 -0.26506819353E+02 -0.69140235970E+02  0.10355670104E+03  0.41800000000E+01 0.  1.
        -11    1    1    2    0    0  0.34681820481E+02 -0.56909450312E+01  0.30710605742E+02  0.46672870409E+02  0.00000000000E+00 0.  1.
         11    1    1    2    0    0 -0.74136630691E+01  0.88324743410E+01 -0.49316146379E+02  0.50646394707E+02  0.00000000000E+00 0. -1.
</event>
<event>
 7    1  0.3151015E-009  0.1294089E+03  0.7561462E-02  0.1228336E+00
         -1   -1    0    0    0  501 -0.00000000000E+00  0.00000000000E+00  0.74943267478E+02  0.74943267478E+02  0.00000000000E+00 0.  1.
          1   -1    0    0  501    0  0.00000000000E+00 -0.00000000000E+00 -0.23961933109E+03  0.23961933109E+03  0.00000000000E+00 0. -1.
         25    2    1    2    0    0  0.77607524654E+02  0.16564988777E+02 -0.77131798974E+02  0.16701440124E+03  0.12508864486E+03 0.  0.
          5    1    3    3  502    0  0.48966735848E+01 -0.44728396699E+02 -0.11272351006E+01  0.45203428437E+02  0.41800000000E+01 0.  1.
         -5    1    3    3    0  502  0.72710851069E+02  0.61293385476E+02 -0.76004563873E+02  0.12181097281E+03  0.41800000000E+01 0.  1.
        -11    1    1    2    0    0 -0.96239182175E+02 -0.47098437910E+01 -0.66760977738E+02  0.11722282612E+03  0.00000000000E+00 0.  1.
         11    1    1    2    0    0  0.18631657521E+02 -0.11855144986E+02 -0.20783286902E+02  0.30325371211E+02  0.00000000000E+00 0. -1.
</event>
<event>
 7    1  0.3151015E-009  0.1933076E+03  0.7561462E-02  0.1155511E+00
          1   -1    0    0  501    0  0.00000000000E+00  0.00000000000E+00  0.10885117224E+03  0.10885117224E+03  0.00000000000E+00 0. -1.
         -1   -1    0    0    0  501 -0.00000000000E+00 -0.00000000000E+00 -0.40490482743E+03  0.40490482743E+03  0.00000000000E+00 0.  1.
         25    2    1    2    0    0 -0.12616428023E+03  0.12403426504E+03 -0.11680121650E+03  0.24615332492E+03  0.12508801175E+03 0.  0.
          5    1    3    3  502    0  0.63296211491E+01  0.98154044977E+00 -0.54228419927E+02  0.54765148163E+02  0.41800000000E+01 0.  1.
         -5    1    3    3    0  502 -0.13249390138E+03  0.12305272459E+03 -0.62572796576E+02  0.19138817676E+03  0.41800000000E+01 0.  1.
        -11    1    1    2    0    0  0.14013251938E+03 -0.10866466164E+03 -0.15364197845E+03  0.23462947219E+03  0.00000000000E+00 0. -1.
         11    1    1    2    0    0 -0.13968239146E+02 -0.15369603402E+02 -0.25610460233E+02  0.32973202558E+02  0.00000000000E+00 0.  1.
</event>
<event>
 7    1  0.3151015E-009  0.1141271E+03  0.7561462E-02  0.1253113E+00
          1   -1    0    0  501    0  0.00000000000E+00  0.00000000000E+00  0.33448265840E+02  0.33448265840E+02  0.00000000000E+00 0. -1.
         -1   -1    0    0    0  501 -0.00000000000E+00 -0.00000000000E+00 -0.46653550743E+03  0.46653550743E+03  0.00000000000E+00 0.  1.
         25    2    1    2    0    0 -0.48130577658E+02  0.34948872125E+02 -0.28020520122E+03  0.31256991876E+03  0.12508806161E+03 0.  0.
          5    1    3    3  502    0 -0.16602101512E+02 -0.44963007595E+02 -0.65441728022E+02  0.81224343599E+02  0.41800000000E+01 0.  1.
         -5    1    3    3    0  502 -0.31528476145E+02  0.79911879719E+02 -0.21476347320E+03  0.23134557516E+03  0.41800000000E+01 0.  1.
        -11    1    1    2    0    0  0.48975158996E+02  0.93222980978E+01 -0.33446450850E+02  0.60034461061E+02  0.00000000000E+00 0. -1.
         11    1    1    2    0    0 -0.84458133782E+00 -0.44271170223E+02 -0.11943558952E+03  0.12737939344E+03  0.00000000000E+00 0.  1.
</event>
<event>
 7    1  0.3151015E-009  0.3247601E+03  0.7561462E-02  0.1073479E+00
          1   -1    0    0  501    0  0.00000000000E+00  0.00000000000E+00  0.22982569541E+03  0.22982569541E+03  0.00000000000E+00 0. -1.
         -1   -1    0    0    0  501 -0.00000000000E+00 -0.00000000000E+00 -0.54717831770E+03  0.54717831770E+03  0.00000000000E+00 0.  1.
         25    2    1    2    0    0 -0.17118892161E+03 -0.27565266884E+03 -0.60765570796E+02  0.35302922421E+03  0.12508851997E+03 0.  0.
          5    1    3    3  502    0 -0.77132185098E+02 -0.12112181946E+03  0.35619773663E+02  0.14800712754E+03  0.41800000000E+01 0. -1.
         -5    1    3    3    0  502 -0.94056736515E+02 -0.15453084939E+03 -0.96385344459E+02  0.20502209667E+03  0.41800000000E+01 0. -1.
        -11    1    1    2    0    0  0.24249599024E+02  0.28960781910E+02  0.16315928055E+01  0.37807830363E+02  0.00000000000E+00 0. -1.
         11    1    1    2    0    0  0.14693932259E+03  0.24669188693E+03 -0.25821864430E+03  0.38616695854E+03  0.00000000000E+00 0.  1.
</event>
<event>
 7    1  0.3151015E-009  0.9043048E+02  0.7561462E-02  0.1301813E+00
          1   -1    0    0  501    0  0.00000000000E+00  0.00000000000E+00  0.49661054102E+03  0.49661054102E+03  0.00000000000E+00 0. -1.
         -1   -1    0    0    0  501 -0.00000000000E+00 -0.00000000000E+00 -0.28158845782E+02  0.28158845782E+02  0.00000000000E+00 0.  1.
         25    2    1    2    0    0  0.38529829083E+02  0.27261982132E+02  0.28099126237E+03  0.31117939576E+03  0.12509501755E+03 0.  0.
          5    1    3    3  502    0  0.73565379416E+02  0.21998878374E+02  0.25682517397E+03  0.26809039163E+03  0.41800000000E+01 0.  1.
         -5    1    3    3    0  502 -0.35035550333E+02  0.52631037577E+01  0.24166088402E+02  0.43089004130E+02  0.41800000000E+01 0.  1.
        -11    1    1    2    0    0 -0.14337254319E+02 -0.38888575301E+02  0.18139753221E+03  0.18607241290E+03  0.00000000000E+00 0. -1.
         11    1    1    2    0    0 -0.24192574764E+02  0.11626593169E+02  0.60629006542E+01  0.27517578142E+02  0.00000000000E+00 0.  1.
</event>
<event>
 7    1  0.3151015E-009  0.1120782E+03  0.7561462E-02  0.1256769E+00
          3   -1    0    0  501    0  0.00000000000E+00  0.00000000000E+00  0.93982245373E+02  0.93982245373E+02  0.00000000000E+00 0. -1.
         -3   -1    0    0    0  501 -0.00000000000E+00 -0.00000000000E+00 -0.30592588737E+03  0.30592588737E+03  0.00000000000E+00 0.  1.
         25    2    1    2    0    0 -0.22784911004E+02  0.35297806366E+02 -0.25636405044E+03  0.28832892293E+03  0.12508378847E+03 0.  0.
          5    1    3    3  502    0  0.16408729455E+02  0.70401155677E+02 -0.10122438863E+03  0.12445649190E+03  0.41800000000E+01 0. -1.
         -5    1    3    3    0  502 -0.39193640459E+02 -0.35103349311E+02 -0.15513966180E+03  0.16387243102E+03  0.41800000000E+01 0. -1.
        -11    1    1    2    0    0 -0.30213938969E+02  0.71683930025E+01  0.11933666261E+01  0.31075586723E+02  0.00000000000E+00 0. -1.
         11    1    1    2    0    0  0.52998849973E+02 -0.42466199369E+02  0.43227041811E+02  0.80503623093E+02  0.00000000000E+00 0.  1.
</event>
<event>
 7    1  0.3151015E-009  0.1209409E+03  0.7561462E-02  0.1241553E+00
          1   -1    0    0  501    0  0.00000000000E+00  0.00000000000E+00  0.16149005908E+03  0.16149005908E+03  0.00000000000E+00 0. -1.
         -1   -1    0    0    0  501 -0.00000000000E+00 -0.00000000000E+00 -0.21819220831E+03  0.21819220831E+03  0.00000000000E+00 0.  1.
         25    2    1    2    0    0  0.51983110216E+02 -0.41762943664E+02  0.10881231503E+03  0.17869911621E+03  0.12508743751E+03 0.  0.
          5    1    3    3  502    0  0.87458208332E+02 -0.26677464647E+02  0.10566396261E+03  0.13979617563E+03  0.41800000000E+01 0.  1.
         -5    1    3    3    0  502 -0.35475098116E+02 -0.15085479018E+02  0.31483524172E+01  0.38902940589E+02  0.41800000000E+01 0.  1.
        -11    1    1    2    0    0 -0.52283079126E+02  0.67754359472E+02 -0.10745622244E+03  0.13737180690E+03  0.00000000000E+00 0.  1.
         11    1    1    2    0    0  0.29996891009E+00 -0.25991415807E+02 -0.58058241822E+02  0.63611344275E+02  0.00000000000E+00 0. -1.
</event>
<event>
 7    1  0.3151015E-009  0.1122512E+03  0.7561462E-02  0.1256457E+00
          1   -1    0    0  501    0  0.00000000000E+00  0.00000000000E+00  0.63535023012E+03  0.63535023012E+03  0.00000000000E+00 0. -1.
         -1   -1    0    0    0  501 -0.00000000000E+00 -0.00000000000E+00 -0.33823039520E+02  0.33823039520E+02  0.00000000000E+00 0.  1.
         25    2    1    2    0    0 -0.36816885406E+02  0.23646885497E+02  0.52176668550E+03  0.53833876720E+03  0.12511393180E+03 0.  0.
          5    1    3    3  502    0 -0.15920093481E+02  0.74812728492E+02  0.27896632310E+03  0.28929237035E+03  0.41800000000E+01 0. -1.
         -5    1    3    3    0  502 -0.20896791924E+02 -0.51165842994E+02  0.24280036240E+03  0.24904639685E+03  0.41800000000E+01 0. -1.
        -11    1    1    2    0    0 -0.11624735418E+02  0.22654788605E+02 -0.15006160860E+01  0.25507366954E+02  0.00000000000E+00 0.  1.
         11    1    1    2    0    0  0.48441620824E+02 -0.46301674103E+02  0.81261121185E+02  0.10532713548E+03  0.00000000000E+00 0. -1.
</event>
<event>
 7    1  0.3151015E-009  0.1242277E+03  0.7561462E-02  0.1236281E+00
         -4   -1    0    0    0  501 -0.00000000000E+00  0.00000000000E+00  0.75048692390E+02  0.75048692390E+02  0.00000000000E+00 0.  1.
          4   -1    0    0  501    0  0.00000000000E+00 -0.00000000000E+00 -0.25558517810E+03  0.25558517810E+03  0.00000000000E+00 0. -1.
         25    2    1    2    0    0  0.56660694369E+02 -0.68257380840E+02 -0.10467144638E+03  0.18566963491E+03  0.12509035660E+03 0.  0.
          5    1    3    3  502    0  0.51035925496E+02 -0.96245761876E+02 -0.42283006307E+02  0.11693261903E+03  0.41800000000E+01 0.  1.
         -5    1    3    3    0  502  0.56247688722E+01  0.27988381036E+02 -0.62388440072E+02  0.68737015883E+02  0.41800000000E+01 0.  1.
        -11    1    1    2    0    0 -0.71471161670E+02  0.50779055682E+02 -0.83242275777E+02  0.12089630235E+03  0.00000000000E+00 0. -1.
         11    1    1    2    0    0  0.14810467302E+02  0.17478325159E+02  0.73772364470E+01  0.24067933223E+02  0.00000000000E+00 0.  1.
</event>
<event>
 7    1  0.3196288E-009  0.1028008E+03  0.7561462E-02  0.1274514E+00
         -3   -1    0    0    0  501 -0.00000000000E+00  0.00000000000E+00  0.57705353424E+02  0.57705353424E+02  0.00000000000E+00 0.  1.
          3   -1    0    0  501    0  0.00000000000E+00 -0.00000000000E+00 -0.30724170263E+03  0.30724170263E+03  0.00000000000E+00 0. -1.
         25    2    1    2    0    0  0.12699488433E+02 -0.24700404408E+02 -0.38716823083E+02  0.13385607880E+03  0.12508825068E+03 0.  0.
          5    1    3    3  502    0  0.63938339562E+02  0.27802759886E+01 -0.47169017130E+00  0.64136854398E+02  0.41800000000E+01 0.  1.
         -5    1    3    3    0  502 -0.51238851129E+02 -0.27480680396E+02 -0.38245132911E+02  0.69719224404E+02  0.41800000000E+01 0.  1.
        -11    1    1    2    0    0  0.10225450865E+02 -0.25778640620E+02 -0.25564259617E+02  0.37717761430E+02  0.00000000000E+00 0.  1.
         11    1    1    2    0    0 -0.22924939298E+02  0.50479045027E+02 -0.18525526651E+03  0.19337321582E+03  0.00000000000E+00 0. -1.
</event>
<event>
 7    1  0.3151015E-009  0.7802298E+02  0.7561462E-02  0.1334757E+00
         -1   -1    0    0    0  501 -0.00000000000E+00  0.00000000000E+00  0.10086253627E+03  0.10086253627E+03  0.00000000000E+00 0.  1.
          1   -1    0    0  501    0  0.00000000000E+00 -0.00000000000E+00 -0.14651228675E+03  0.14651228675E+03  0.00000000000E+00 0. -1.
         25    2    1    2    0    0  0.34123965165E+02  0.48578709903E+02  0.66622176039E+00  0.13847278121E+03  0.12509968517E+03 0.  0.
          5    1    3    3  502    0  0.15704934570E+02 -0.12463476032E+02  0.52398578031E+02  0.56258924486E+02  0.41800000000E+01 0. -1.
         -5    1    3    3    0  502  0.18419030595E+02  0.61042185935E+02 -0.51732356271E+02  0.82213856722E+02  0.41800000000E+01 0. -1.
        -11    1    1    2    0    0  0.24428646303E+01 -0.30998410903E+02  0.15668525651E+02  0.34819129256E+02  0.00000000000E+00 0.  1.
         11    1    1    2    0    0 -0.36566829795E+02 -0.17580299000E+02 -0.61984497887E+02  0.74082912554E+02  0.00000000000E+00 0. -1.
</event>
<event>
 7    1  0.3151015E-009  0.1179439E+03  0.7561462E-02  0.1246528E+00
         -2   -1    0    0    0  501 -0.00000000000E+00  0.00000000000E+00  0.25007798020E+02  0.25007798020E+02  0.00000000000E+00 0.  1.
          2   -1    0    0  501    0  0.00000000000E+00 -0.00000000000E+00 -0.75029638294E+03  0.75029638294E+03  0.00000000000E+00 0. -1.
         25    2    1    2    0    0  0.64794600914E+02  0.32458920124E+02 -0.29151395292E+03  0.32539187669E+03  0.12509023490E+03 0.  0.
          5    1    3    3  502    0  0.18067716023E+02  0.63215066390E+02 -0.24120783845E+03  0.25004255780E+03  0.41800000000E+01 0.  1.
         -5    1    3    3    0  502  0.46726884891E+02 -0.30756146265E+02 -0.50306114471E+02  0.75349318894E+02  0.41800000000E+01 0.  1.
        -11    1    1    2    0    0 -0.10487003566E+02  0.29625606714E+02 -0.67394480143E+02  0.74361749379E+02  0.00000000000E+00 0.  1.
         11    1    1    2    0    0 -0.54307597348E+02 -0.62084526838E+02 -0.36638015186E+03  0.37555055489E+03  0.00000000000E+00 0. -1.
</event>
<event>
 7    1  0.3151015E-009  0.1057552E+03  0.7561462E-02  0.1268639E+00
          2   -1    0    0  501    0  0.00000000000E+00  0.00000000000E+00  0.58291752757E+02  0.58291752757E+02  0.00000000000E+00 0. -1.
         -2   -1    0    0    0  501 -0.00000000000E+00 -0.00000000000E+00 -0.24099927277E+03  0.24099927277E+03  0.00000000000E+00 0.  1.
         25    2    1    2    0    0 -0.36000666819E+02  0.62270787962E+01 -0.83059528496E+02  0.15453367778E+03  0.12508776028E+03 0.  0.
          5    1    3    3  502    0 -0.65855447198E+02  0.26973448311E+02 -0.92459471561E+02  0.11675073071E+03  0.41800000000E+01 0. -1.
         -5    1    3    3    0  502  0.29854780379E+02 -0.20746369515E+02  0.93999430647E+01  0.37782947069E+02  0.41800000000E+01 0. -1.
        -11    1    1    2    0    0  0.96100432567E+01  0.44993200636E+02 -0.32793395623E+02  0.56499095845E+02  0.00000000000E+00 0.  1.
         11    1    1    2    0    0  0.26390623562E+02 -0.51220279432E+02 -0.66854595894E+02  0.88258251905E+02  0.00000000000E+00 0. -1.
</event>
<event>
 7    1  0.3151015E-009  0.1146914E+03  0.7561462E-02  0.1252121E+00
         -1   -1    0    0    0  501 -0.00000000000E+00  0.00000000000E+00  0.37949721149E+03  0.37949721149E+03  0.00000000000E+00 0.  1.
          1   -1    0    0  501    0  0.00000000000E+00 -0.00000000000E+00 -0.53990977966E+02  0.53990977966E+02  0.00000000000E+00 0. -1.
         25    2    1    2    0    0 -0.75454728382E+01  0.84763749728E+02  0.23465754696E+03  0.27920001051E+03  0.12508658639E+03 0.  0.
          5    1    3    3  502    0 -0.32769007798E+02  0.64536491198E+02  0.41965563409E+02  0.83769609528E+02  0.41800000000E+01 0.  1.
         -5    1    3    3    0  502  0.25223534960E+02  0.20227258530E+02  0.19269198355E+03  0.19543040098E+03  0.41800000000E+01 0.  1.
        -11    1    1    2    0    0  0.41658409683E+02 -0.11114227078E+02  0.25562624548E+02  0.50123815843E+02  0.00000000000E+00 0.  1.
         11    1    1    2    0    0 -0.34112936844E+02 -0.73649522650E+02  0.65286062010E+02  0.10416436310E+03  0.00000000000E+00 0. -1.
</event>
<event>
 7    1  0.3151015E-009  0.7444125E+02  0.7561462E-02  0.1345610E+00
          1   -1    0    0  501    0  0.00000000000E+00  0.00000000000E+00  0.13948438697E+03  0.13948438697E+03  0.00000000000E+00 0. -1.
         -1   -1    0    0    0  501 -0.00000000000E+00 -0.00000000000E+00 -0.11504672812E+03  0.11504672812E+03  0.00000000000E+00 0.  1.
         25    2    1    2    0    0  0.55555997338E+02  0.10194237125E+01  0.48405785018E+02  0.14518401724E+03  0.12509104994E+03 0.  0.
          5    1    3    3  502    0  0.19056227249E+02  0.26372667642E+02 -0.36613161523E+02  0.49159468998E+02  0.41800000000E+01 0.  1.
         -5    1    3    3    0  502  0.36499770089E+02 -0.25353243929E+02  0.85018946541E+02  0.96024548243E+02  0.41800000000E+01 0.  1.
        -11    1    1    2    0    0 -0.44300477107E+02 -0.20599870982E+02  0.25395694888E+02  0.55062040238E+02  0.00000000000E+00 0. -1.
         11    1    1    2    0    0 -0.11255520232E+02  0.19580447269E+02 -0.49363821058E+02  0.54285057617E+02  0.00000000000E+00 0.  1.
</event>
<event>
 7    1  0.3151015E-009  0.7455367E+02  0.7561462E-02  0.1345259E+00
          2   -1    0    0  501    0  0.00000000000E+00  0.00000000000E+00  0.48976466802E+02  0.48976466802E+02  0.00000000000E+00 0.  1.
         -2   -1    0    0    0  501 -0.00000000000E+00 -0.00000000000E+00 -0.25677554629E+03  0.25677554629E+03  0.00000000000E+00 0. -1.
         25    2    1    2    0    0  0.10099632108E+02  0.74239413441E+01 -0.15377123947E+03  0.19862100142E+03  0.12509032993E+03 0.  0.
          5    1    3    3  502    0 -0.68643238796E+01  0.28495743304E+02  0.11005083333E+02  0.31586557076E+02  0.41800000000E+01 0.  1.
         -5    1    3    3    0  502  0.16963955988E+02 -0.21071801960E+02 -0.16477632280E+03  0.16703444434E+03  0.41800000000E+01 0.  1.
        -11    1    1    2    0    0 -0.31846012532E+02  0.33227698269E+02 -0.31857506930E+02  0.55974540590E+02  0.00000000000E+00 0. -1.
         11    1    1    2    0    0  0.21746380424E+02 -0.40651639613E+02 -0.22170333093E+02  0.51156471088E+02  0.00000000000E+00 0.  1.
</event>
<event>
 7    1  0.3151015E-009  0.1052328E+03  0.7561462E-02  0.1269662E+00
          2   -1    0    0  501    0  0.00000000000E+00  0.00000000000E+00  0.20410403157E+03  0.20410403157E+03  0.00000000000E+00 0. -1.
         -2   -1    0    0    0  501 -0.00000000000E+00 -0.00000000000E+00 -0.10888719545E+03  0.10888719545E+03  0.00000000000E+00 0.  1.
         25    2    1    2    0    0  0.67007836415E+02 -0.48693368849E+02 -0.11623229249E+02  0.15048240158E+03  0.12509500156E+03 0.  0.
          5    1    3    3  502    0  0.20221723930E+02 -0.45989410754E+02 -0.63085361903E+02  0.80753819145E+02  0.41800000000E+01 0.  1.
         -5    1    3    3    0  502  0.46786112485E+02 -0.27039580955E+01  0.51462132653E+02  0.69728582433E+02  0.41800000000E+01 0.  1.
        -11    1    1    2    0    0 -0.31493130937E+02 -0.18841614527E+02  0.78596973219E+01  0.37531301286E+02  0.00000000000E+00 0.  1.
         11    1    1    2    0    0 -0.35514705478E+02  0.67534983377E+02  0.98980368048E+02  0.12497752415E+03  0.00000000000E+00 0. -1.
</event>
<event>
 7    1  0.3151015E-009  0.9121745E+02  0.7561462E-02  0.1299930E+00
         -2   -1    0    0    0  501 -0.00000000000E+00  0.00000000000E+00  0.35485701120E+02  0.35485701120E+02  0.00000000000E+00 0.  1.
          2   -1    0    0  501    0  0.00000000000E+00 -0.00000000000E+00 -0.34688150892E+03  0.34688150892E+03  0.00000000000E+00 0. -1.
         25    2    1    2    0    0  0.22134433060E+00  0.14032606876E+02 -0.19505106640E+03  0.23214023574E+03  0.12508879845E+03 0.  0.
          5    1    3    3  502    0 -0.38323504143E+02 -0.25062945581E+02 -0.22841177987E+02  0.51342321946E+02  0.41800000000E+01 0. -1.
         -5    1    3    3    0  502  0.38544848473E+02  0.39095552457E+02 -0.17220988841E+03  0.18079791379E+03  0.41800000000E+01 0. -1.
        -11    1    1    2    0    0 -0.59882691521E+01 -0.47275618923E+02 -0.27106240556E+02  0.54823277803E+02  0.00000000000E+00 0.  1.
         11    1    1    2    0    0  0.57669248215E+01  0.33243012047E+02 -0.89238500851E+02  0.95403696500E+02  0.00000000000E+00 0. -1.
</event>
<event>
 7    1  0.3151015E-009  0.8222213E+02  0.7561462E-02  0.1322861E+00
         -3   -1    0    0    0  501 -0.00000000000E+00  0.00000000000E+00  0.27740397066E+03  0.27740397066E+03  0.00000000000E+00 0.  1.
          3   -1    0    0  501    0  0.00000000000E+00 -0.00000000000E+00 -0.45920056570E+02  0.45920056570E+02  0.00000000000E+00 0. -1.
         25    2    1    2    0    0 -0.16078065428E+02  0.10473790757E+01  0.16649412160E+03  0.20886779340E+03  0.12508341778E+03 0.  0.
          5    1    3    3  502    0  0.13104605309E+02 -0.38447996039E+02  0.15215542684E+03  0.15753959945E+03  0.41800000000E+01 0.  1.
         -5    1    3    3    0  502 -0.29182670737E+02  0.39495375115E+02  0.14338694758E+02  0.51328193950E+02  0.41800000000E+01 0.  1.
        -11    1    1    2    0    0 -0.28448784150E+02  0.64516693409E+01 -0.65131287534E+01  0.29889432966E+02  0.00000000000E+00 0. -1.
         11    1    1    2    0    0  0.44526849578E+02 -0.74990484166E+01  0.71502921245E+02  0.84566800856E+02  0.00000000000E+00 0.  1.
</event>
<event>
 7    1  0.3151015E-009  0.9693096E+02  0.7561462E-02  0.1286885E+00
         -2   -1    0    0    0  501 -0.00000000000E+00  0.00000000000E+00  0.66890058483E+02  0.66890058483E+02  0.00000000000E+00 0.  1.
          2   -1    0    0  501    0  0.00000000000E+00 -0.00000000000E+00 -0.44775742593E+03  0.44775742593E+03  0.00000000000E+00 0. -1.
         25    2    1    2    0    0  0.44071249890E+02 -0.36767447210E+02 -0.38068095283E+03  0.40479559840E+03  0.12508944159E+03 0.  0.
          5    1    3    3  502    0  0.34413622405E+02  0.41415073971E+02 -0.10536918079E+03  0.11840457094E+03  0.41800000000E+01 0. -1.
         -5    1    3    3    0  502  0.96576274853E+01 -0.78182521181E+02 -0.27531177204E+03  0.28639102746E+03  0.41800000000E+01 0. -1.
        -11    1    1    2    0    0 -0.68563978272E+01  0.18050321006E+02  0.44652788897E+02  0.48648698193E+02  0.00000000000E+00 0.  1.
         11    1    1    2    0    0 -0.37214852063E+02  0.18717126204E+02 -0.44839203515E+02  0.61203187820E+02  0.00000000000E+00 0. -1.
</event>
<event>
 7    1  0.3151015E-009  0.9087668E+02  0.7561462E-02  0.1300742E+00
         -1   -1    0    0    0  501 -0.00000000000E+00  0.00000000000E+00  0.36877598017E+03  0.36877598017E+03  0.00000000000E+00 0.  1.
          1   -1    0    0  501    0  0.00000000000E+00 -0.00000000000E+00 -0.41894640651E+02  0.41894640651E+02  0.00000000000E+00 0. -1.
         25    2    1    2    0    0 -0.32112890984E+01  0.61330278502E+02  0.17016961974E+03  0.21995459254E+03  0.12510238950E+03 0.  0.
          5    1    3    3  502    0  0.33188133535E+02 -0.35253816354E+00 -0.19216876309E+01  0.33507339107E+02  0.41800000000E+01 0.  1.
         -5    1    3    3    0  502 -0.36399422634E+02  0.61682816665E+02  0.17209130738E+03  0.18644725344E+03  0.41800000000E+01 0.  1.
        -11    1    1    2    0    0  0.24261161996E+02 -0.38475903657E+02  0.15276754615E+03  0.15939549022E+03  0.00000000000E+00 0.  1.
         11    1    1    2    0    0 -0.21049872897E+02 -0.22854374845E+02  0.39441736154E+01  0.31320538055E+02  0.00000000000E+00 0. -1.
</event>
<event>
 7    1  0.3151015E-009  0.1577167E+03  0.7561462E-02  0.1191299E+00
          2   -1    0    0  501    0  0.00000000000E+00  0.00000000000E+00  0.23476378894E+03  0.23476378894E+03  0.00000000000E+00 0.  1.
         -2   -1    0    0    0  501 -0.00000000000E+00 -0.00000000000E+00 -0.16792601896E+03  0.16792601896E+03  0.00000000000E+00 0. -1.
         25    2    1    2    0    0 -0.10503129523E+03 -0.45548490731E+02  0.15674668937E+03  0.23091815658E+03  0.12508969751E+03 0.  0.
          5    1    3    3  502    0  0.25349440684E+02 -0.27156938129E+02  0.41841595909E+02  0.56109580106E+02  0.41800000000E+01 0. -1.
         -5    1    3    3    0  502 -0.13038073592E+03 -0.18391552603E+02  0.11490509347E+03  0.17480857648E+03  0.41800000000E+01 0. -1.
        -11    1    1    2    0    0  0.45064152620E+02  0.68590638213E+02 -0.52670756933E+02  0.97517496572E+02  0.00000000000E+00 0.  1.
         11    1    1    2    0    0  0.59967142611E+02 -0.23042147482E+02 -0.37238162458E+02  0.74254154744E+02  0.00000000000E+00 0. -1.
</event>
<event>
 7    1  0.3151015E-009  0.8826578E+02  0.7561462E-02  0.1307107E+00
          4   -1    0    0  501    0  0.00000000000E+00  0.00000000000E+00  0.10978959954E+03  0.10978959954E+03  0.00000000000E+00 0. -1.
         -4   -1    0    0    0  501 -0.00000000000E+00 -0.00000000000E+00 -0.11250591777E+03  0.11250591777E+03  0.00000000000E+00 0.  1.
         25    2    1    2    0    0  0.12081902095E+02 -0.10265510545E+02  0.15591426885E+02  0.12705220877E+03  0.12509123909E+03 0.  0.
          5    1    3    3  502    0  0.28974474864E+02 -0.62740782051E+02  0.18585963387E+02  0.71685677517E+02  0.41800000000E+01 0.  1.
         -5    1    3    3    0  502 -0.16892572770E+02  0.52475271506E+02 -0.29945365024E+01  0.55366531255E+02  0.41800000000E+01 0.  1.
        -11    1    1    2    0    0  0.17399563809E+02  0.13949478947E+02  0.30692706739E+02  0.37939096334E+02  0.00000000000E+00 0. -1.
         11    1    1    2    0    0 -0.29481465904E+02 -0.36839684018E+01 -0.49000451848E+02  0.57304212205E+02  0.00000000000E+00 0.  1.
</event>
<event>
 7    1  0.3151015E-009  0.7054805E+02  0.7561462E-02  0.1358239E+00
          2   -1    0    0  501    0  0.00000000000E+00  0.00000000000E+00  0.22521544040E+03  0.22521544040E+03  0.00000000000E+00 0. -1.
         -2   -1    0    0    0  501 -0.00000000000E+00 -0.00000000000E+00 -0.56467920625E+02  0.56467920625E+02  0.00000000000E+00 0.  1.
         25    2    1    2    0    0 -0.11954065422E+02 -0.14291475205E+02  0.10755693744E+03  0.16602994021E+03  0.12510116030E+03 0.  0.
          5    1    3    3  502    0 -0.51667539905E+02 -0.20985721910E+02  0.54503111644E+01  0.56188197120E+02  0.41800000000E+01 0.  1.
         -5    1    3    3    0  502  0.39713474483E+02  0.66942467045E+01  0.10210662628E+03  0.10984174309E+03  0.41800000000E+01 0.  1.
        -11    1    1    2    0    0  0.19224525090E+02 -0.83077967867E+01 -0.21266222005E+02  0.29847178272E+02  0.00000000000E+00 0.  1.
         11    1    1    2    0    0 -0.72704596689E+01  0.22599271992E+02  0.82456804334E+02  0.85806242542E+02  0.00000000000E+00 0. -1.
</event>
<event>
 7    1  0.3151015E-009  0.1449059E+03  0.7561462E-02  0.1206876E+00
          1   -1    0    0  501    0  0.00000000000E+00  0.00000000000E+00  0.24862678962E+03  0.24862678962E+03  0.00000000000E+00 0. -1.
         -1   -1    0    0    0  501 -0.00000000000E+00 -0.00000000000E+00 -0.12270121560E+03  0.12270121560E+03  0.00000000000E+00 0.  1.
         25    2    1    2    0    0  0.56951751746E+02  0.74219637338E+02  0.20186102565E+02  0.15750188638E+03  0.12508920371E+03 0.  0.
          5    1    3    3  502    0 -0.15860992151E+01  0.87355340116E+02 -0.13602395554E+02  0.88521007237E+02  0.41800000000E+01 0.  1.
         -5    1    3    3    0  502  0.58537850961E+02 -0.13135702778E+02  0.33788498119E+02  0.68980879146E+02  0.41800000000E+01 0.  1.
        -11    1    1    2    0    0 -0.24338520976E+02  0.26709738681E+02  0.10142588481E+03  0.10767071957E+03  0.00000000000E+00 0. -1.
         11    1    1    2    0    0 -0.32613230770E+02 -0.10092937602E+03  0.43135866470E+01  0.10615539927E+03  0.00000000000E+00 0.  1.
</event>
<event>
 7    1  0.3151015E-009  0.1645488E+03  0.7561462E-02  0.1183655E+00
          2   -1    0    0  501    0  0.00000000000E+00  0.00000000000E+00  0.37128152277E+03  0.37128152277E+03  0.00000000000E+00 0. -1.
         -2   -1    0    0    0  501 -0.00000000000E+00 -0.00000000000E+00 -0.10759794061E+03  0.10759794061E+03  0.00000000000E+00 0.  1.
         25    2    1    2    0    0 -0.11135863913E+03 -0.58101265224E+02  0.50975642100E+01  0.17734065288E+03  0.12508884232E+03 0.  0.
          5    1    3    3  502    0 -0.10871135129E+03 -0.90749907955E+02 -0.78059297329E+01  0.14188766202E+03  0.41800000000E+01 0. -1.
         -5    1    3    3    0  502 -0.26472878329E+01  0.32648642730E+02  0.12903493943E+02  0.35452990860E+02  0.41800000000E+01 0. -1.
        -11    1    1    2    0    0 -0.63661028620E+01  0.33546432084E+02  0.45888521118E+02  0.57198310653E+02  0.00000000000E+00 0.  1.
         11    1    1    2    0    0  0.11772474199E+03  0.24554833141E+02  0.21269749683E+03  0.24434049985E+03  0.00000000000E+00 0. -1.
</event>
<event>
 7    1  0.3151015E-009  0.1950621E+03  0.7561462E-02  0.1153973E+00
         -1   -1    0    0    0  501 -0.00000000000E+00  0.00000000000E+00  0.60674352455E+02  0.60674352455E+02  0.00000000000E+00 0.  1.
          1   -1    0    0  501    0  0.00000000000E+00 -0.00000000000E+00 -0.69436855554E+03  0.69436855554E+03  0.00000000000E+00 0. -1.
         25    2    1    2    0    0  0.57886785529E+02 -0.16210161938E+03 -0.36232909987E+03  0.42018811269E+03  0.12509140054E+03 0.  0.
          5    1    3    3  502    0 -0.15562339156E+02 -0.11564188897E+03 -0.14552044007E+03  0.18657144412E+03  0.41800000000E+01 0. -1.
         -5    1    3    3    0  502  0.73449124686E+02 -0.46459730407E+02 -0.21680865981E+03  0.23361666857E+03  0.41800000000E+01 0. -1.
        -11    1    1    2    0    0  0.17921732055E+01  0.10074750618E+03 -0.93472295260E+02  0.13744214007E+03  0.00000000000E+00 0.  1.
         11    1    1    2    0    0 -0.59678958735E+02  0.61354113197E+02 -0.17789280796E+03  0.19741265523E+03  0.00000000000E+00 0. -1.
</event>
<event>
 7    1  0.3151015E-009  0.7041695E+02  0.7561462E-02  0.1358681E+00
         -3   -1    0    0    0  501 -0.00000000000E+00  0.00000000000E+00  0.10654579161E+03  0.10654579161E+03  0.00000000000E+00 0.  1.
          3   -1    0    0  501    0  0.00000000000E+00 -0.00000000000E+00 -0.17166433784E+03  0.17166433784E+03  0.00000000000E+00 0. -1.
         25    2    1    2    0    0 -0.33211021034E+01  0.53848566246E+02  0.27211560514E+02  0.13892008357E+03  0.12509045842E+03 0.  0.
          5    1    3    3  502    0  0.24419528316E+02  0.51323902366E+02  0.68394096441E+02  0.89026294685E+02  0.41800000000E+01 0.  1.
         -5    1    3    3    0  502 -0.27740630420E+02  0.25246638800E+01 -0.41182535927E+02  0.49893788884E+02  0.41800000000E+01 0.  1.
        -11    1    1    2    0    0  0.86530908925E+01 -0.37265567382E+02  0.66138247447E+01  0.38824491909E+02  0.00000000000E+00 0.  1.
         11    1    1    2    0    0 -0.53319887891E+01 -0.16582998864E+02 -0.98943931488E+02  0.10046555397E+03  0.00000000000E+00 0. -1.
</event>
<event>
 7    1  0.3151015E-009  0.1182395E+03  0.7561462E-02  0.1246030E+00
         -2   -1    0    0    0  501 -0.00000000000E+00  0.00000000000E+00  0.70719253986E+02  0.70719253986E+02  0.00000000000E+00 0.  1.
          2   -1    0    0  501    0  0.00000000000E+00 -0.00000000000E+00 -0.39410521947E+03  0.39410521947E+03  0.00000000000E+00 0. -1.
         25    2    1    2    0    0  0.51872497214E+02  0.25844982027E+02 -0.32812742968E+03  0.35591189129E+03  0.12508774997E+03 0.  0.
          5    1    3    3  502    0 -0.16582743634E+01 -0.47065075753E+02 -0.11632970282E+03  0.12557047179E+03  0.41800000000E+01 0.  1.
         -5    1    3    3    0  502  0.53530771577E+02  0.72910057780E+02 -0.21179772687E+03  0.23034141950E+03  0.41800000000E+01 0.  1.
        -11    1    1    2    0    0 -0.73332686511E+02 -0.16082347047E+02 -0.16850086212E+02  0.76943162158E+02  0.00000000000E+00 0. -1.
         11    1    1    2    0    0  0.21460189298E+02 -0.97626349797E+01  0.21591550408E+02  0.31969420005E+02  0.00000000000E+00 0.  1.
</event>
<event>
 7    1  0.3151015E-009  0.1590862E+03  0.7561462E-02  0.1189732E+00
          1   -1    0    0  501    0  0.00000000000E+00  0.00000000000E+00  0.62977706371E+03  0.62977706371E+03  0.00000000000E+00 0. -1.
         -1   -1    0    0    0  501 -0.00000000000E+00 -0.00000000000E+00 -0.61634067076E+02  0.61634067076E+02  0.00000000000E+00 0.  1.
         25    2    1    2    0    0  0.16042441258E+02  0.14408295283E+03  0.16163716519E+03  0.25058267282E+03  0.12509134874E+03 0.  0.
          5    1    3    3  502    0  0.15768423335E+02  0.14290999424E+03  0.72021836923E+02  0.16086182587E+03  0.41800000000E+01 0.  1.
         -5    1    3    3    0  502  0.27401792288E+00  0.11729585943E+01  0.89615328267E+02  0.89720846953E+02  0.41800000000E+01 0.  1.
        -11    1    1    2    0    0  0.31772820563E+02 -0.10008190308E+03  0.26803248063E+03  0.28786682706E+03  0.00000000000E+00 0. -1.
         11    1    1    2    0    0 -0.47815261820E+02 -0.44001049753E+02  0.13847335082E+03  0.15296163090E+03  0.00000000000E+00 0.  1.
</event>
<event>
 7    1  0.3151015E-009  0.1379711E+03  0.7561462E-02  0.1216085E+00
          1   -1    0    0  501    0  0.00000000000E+00  0.00000000000E+00  0.37981454133E+03  0.37981454133E+03  0.00000000000E+00 0. -1.
         -1   -1    0    0    0  501 -0.00000000000E+00 -0.00000000000E+00 -0.87522750554E+02  0.87522750554E+02  0.00000000000E+00 0.  1.
         25    2    1    2    0    0 -0.72837116859E+02 -0.89986682218E+02  0.26767689939E+03  0.31733528474E+03  0.12509161405E+03 0.  0.
          5    1    3    3  502    0 -0.14976009094E+02 -0.62627066868E+02  0.30009374542E+02  0.71165056828E+02  0.41800000000E+01 0.  1.
         -5    1    3    3    0  502 -0.57861107766E+02 -0.27359615349E+02  0.23766752485E+03  0.24617022792E+03  0.41800000000E+01 0.  1.
        -11    1    1    2    0    0  0.30356799534E+02  0.99255725074E+02  0.10672261293E+02  0.10434141747E+03  0.00000000000E+00 0. -1.
         11    1    1    2    0    0  0.42480317326E+02 -0.92690428566E+01  0.13942630094E+02  0.45660589675E+02  0.00000000000E+00 0.  1.
</event>
<event>
 7    1  0.3151015E-009  0.1052829E+03  0.7561462E-02  0.1269563E+00
          2   -1    0    0  501    0  0.00000000000E+00  0.00000000000E+00  0.34862166857E+03  0.34862166857E+03  0.00000000000E+00 0. -1.
         -2   -1    0    0    0  501 -0.00000000000E+00 -0.00000000000E+00 -0.55477413332E+02  0.55477413332E+02  0.00000000000E+00 0.  1.
         25    2    1    2    0    0 -0.55543703348E+02  0.86134274244E+00  0.25604395817E+03  0.29032899729E+03  0.12508626326E+03 0.  0.
          5    1    3    3  502    0 -0.51826148774E+02  0.47284719101E+02  0.22097035616E+03  0.23187747855E+03  0.41800000000E+01 0. -1.
         -5    1    3    3    0  502 -0.37175545742E+01 -0.46423376359E+02  0.35073602011E+02  0.58451518736E+02  0.41800000000E+01 0. -1.
        -11    1    1    2    0    0 -0.17102646635E+02 -0.10764869139E+02  0.35007860825E+02  0.40421940194E+02  0.00000000000E+00 0. -1.
         11    1    1    2    0    0  0.72646349983E+02  0.99035263971E+01  0.20924362431E+01  0.73348144424E+02  0.00000000000E+00 0.  1.
</event>
<event>
 7    1  0.3151015E-009  0.1024668E+03  0.7561462E-02  0.1275193E+00
          3   -1    0    0  501    0  0.00000000000E+00  0.00000000000E+00  0.78560225821E+02  0.78560225821E+02  0.00000000000E+00 0. -1.
         -3   -1    0    0    0  501 -0.00000000000E+00 -0.00000000000E+00 -0.21724576701E+03  0.21724576701E+03  0.00000000000E+00 0.  1.
         25    2    1    2    0    0  0.31237082750E+01 -0.48307223858E+02 -0.29483153985E+02  0.13733337338E+03  0.12509138118E+03 0.  0.
          5    1    3    3  502    0 -0.34926437355E+02 -0.63202694272E+01 -0.62224429317E+02  0.71757604724E+02  0.41800000000E+01 0. -1.
         -5    1    3    3    0  502  0.38050145630E+02 -0.41986954431E+02  0.32741275332E+02  0.65575768659E+02  0.41800000000E+01 0. -1.
        -11    1    1    2    0    0  0.34308907172E+02  0.63343168888E+02 -0.85038254285E+02  0.11144937348E+03  0.00000000000E+00 0.  1.
         11    1    1    2    0    0 -0.37432615447E+02 -0.15035945030E+02 -0.24164132919E+02  0.47023245974E+02  0.00000000000E+00 0. -1.
</event>
<event>
 7    1  0.3151015E-009  0.1433895E+03  0.7561462E-02  0.1208840E+00
         -1   -1    0    0    0  501 -0.00000000000E+00  0.00000000000E+00  0.16952715474E+02  0.16952715474E+02  0.00000000000E+00 0.  1.
          1   -1    0    0  501    0  0.00000000000E+00 -0.00000000000E+00 -0.12778180605E+04  0.12778180605E+04  0.00000000000E+00 0. -1.
         25    2    1    2    0    0  0.72545079506E+02 -0.68607773936E+02 -0.74687345087E+03  0.76383046393E+03  0.12508881170E+03 0.  0.
          5    1    3    3  502    0  0.43134975468E+02  0.29756754411E+02 -0.17228477715E+03  0.18012664262E+03  0.41800000000E+01 0.  1.
         -5    1    3    3    0  502  0.29410104038E+02 -0.98364528346E+02 -0.57458867371E+03  0.58370382131E+03  0.41800000000E+01 0.  1.
        -11    1    1    2    0    0 -0.92051743465E+02  0.51312424845E+02 -0.44147889476E+03  0.45388335830E+03  0.00000000000E+00 0. -1.
         11    1    1    2    0    0  0.19506663959E+02  0.17295349091E+02 -0.72512999366E+02  0.77056953716E+02  0.00000000000E+00 0.  1.
</event>
<event>
 7    1  0.3151015E-009  0.9698935E+02  0.7561462E-02  0.1286757E+00
         -1   -1    0    0    0  501 -0.00000000000E+00  0.00000000000E+00  0.20446908252E+03  0.20446908252E+03  0.00000000000E+00 0.  1.
          1   -1    0    0  501    0  0.00000000000E+00 -0.00000000000E+00 -0.68158109266E+02  0.68158109266E+02  0.00000000000E+00 0. -1.
         25    2    1    2    0    0 -0.27867152058E+02 -0.41059039320E+02  0.87818660514E+02  0.16069315642E+03  0.12509096894E+03 0.  0.
          5    1    3    3  502    0 -0.40655964363E+02 -0.59449827235E+02  0.10825029652E+03  0.13008761852E+03  0.41800000000E+01 0. -1.
         -5    1    3    3    0  502  0.12788812305E+02  0.18390787915E+02 -0.20431636002E+02  0.30605537898E+02  0.41800000000E+01 0. -1.
        -11    1    1    2    0    0 -0.22942580056E+02  0.42413016527E+02  0.34257230403E+02  0.59150518049E+02  0.00000000000E+00 0.  1.
         11    1    1    2    0    0  0.50809732113E+02 -0.13539772070E+01  0.14235082341E+02  0.52783517323E+02  0.00000000000E+00 0. -1.
</event>
<event>
 7    1  0.3151015E-009  0.1560247E+03  0.7561462E-02  0.1193259E+00
          2   -1    0    0  501    0  0.00000000000E+00  0.00000000000E+00  0.30292623170E+03  0.30292623170E+03  0.00000000000E+00 0. -1.
         -2   -1    0    0    0  501 -0.00000000000E+00 -0.00000000000E+00 -0.93431112885E+02  0.93431112885E+02  0.00000000000E+00 0.  1.
         25    2    1    2    0    0 -0.52592487872E+02 -0.10703586967E+03  0.56545068606E+02  0.18184371243E+03  0.12508854381E+03 0.  0.
          5    1    3    3  502    0 -0.34262321103E+02  0.16142088995E+02 -0.11589002763E+02  0.39827767569E+02  0.41800000000E+01 0.  1.
         -5    1    3    3    0  502 -0.18330166769E+02 -0.12317795867E+03  0.68134071369E+02  0.14201594487E+03  0.41800000000E+01 0.  1.
        -11    1    1    2    0    0  0.76287260443E+02  0.61427181290E+02  0.11210056464E+03  0.14886094619E+03  0.00000000000E+00 0.  1.
         11    1    1    2    0    0 -0.23694772570E+02  0.45608688381E+02  0.40849485570E+02  0.65652685965E+02  0.00000000000E+00 0. -1.
</event>
<event>
 7    1  0.3151015E-009  0.1526254E+03  0.7561462E-02  0.1197284E+00
         -1   -1    0    0    0  501 -0.00000000000E+00  0.00000000000E+00  0.54727254724E+03  0.54727254724E+03  0.00000000000E+00 0.  1.
          1   -1    0    0  501    0  0.00000000000E+00 -0.00000000000E+00 -0.44118690840E+02  0.44118690840E+02  0.00000000000E+00 0. -1.
         25    2    1    2    0    0 -0.49332336757E+02  0.33728477764E+02  0.22829273648E+03  0.26709008359E+03  0.12509296368E+03 0.  0.
          5    1    3    3  502    0  0.22740110247E+02 -0.30967619018E+02  0.41940703169E+02  0.57031579183E+02  0.41800000000E+01 0. -1.
         -5    1    3    3    0  502 -0.72072447004E+02  0.64696096782E+02  0.18635203331E+03  0.21005850441E+03  0.41800000000E+01 0. -1.
        -11    1    1    2    0    0 -0.48661859343E+02 -0.50628221848E+02  0.14129270057E+03  0.15778092608E+03  0.00000000000E+00 0.  1.
         11    1    1    2    0    0  0.97994196100E+02  0.16899744084E+02  0.13356841936E+03  0.16652022841E+03  0.00000000000E+00 0. -1.
</event>
<event>
 7    1  0.3151015E-009  0.1300023E+03  0.7561462E-02  0.1227452E+00
          2   -1    0    0  501    0  0.00000000000E+00  0.00000000000E+00  0.20547689432E+04  0.20547689432E+04  0.00000000000E+00 0. -1.
         -2   -1    0    0    0  501 -0.00000000000E+00 -0.00000000000E+00 -0.11739685296E+02  0.11739685296E+02  0.00000000000E+00 0.  1.
         25    2    1    2    0    0  0.70518001575E+02 -0.47505323316E+02  0.15799184319E+04  0.15871419225E+04  0.12509071294E+03 0.  0.
          5    1    3    3  502    0  0.20058615305E+02 -0.77482752707E+02  0.58229108701E+03  0.58778083281E+03  0.41800000000E+01 0.  1.
         -5    1    3    3    0  502  0.50459386270E+02  0.29977429391E+02  0.99762734489E+03  0.99936108970E+03  0.41800000000E+01 0.  1.
        -11    1    1    2    0    0 -0.47830321593E+02 -0.18452855709E+02  0.24751239587E+03  0.25276596618E+03  0.00000000000E+00 0. -1.
         11    1    1    2    0    0 -0.22687679982E+02  0.65958179025E+02  0.21559843014E+03  0.22660073981E+03  0.00000000000E+00 0.  1.
</event>
<event>
 7    1  0.3151015E-009  0.1154403E+03  0.7561462E-02  0.1250815E+00
          2   -1    0    0  501    0  0.00000000000E+00  0.00000000000E+00  0.23659450016E+03  0.23659450016E+03  0.00000000000E+00 0. -1.
         -2   -1    0    0    0  501 -0.00000000000E+00 -0.00000000000E+00 -0.11586796258E+03  0.11586796258E+03  0.00000000000E+00 0.  1.
         25    2    1    2    0    0  0.59794539663E+02  0.10381986269E+02  0.18050933670E+03  0.22787463401E+03  0.12514014374E+03 0.  0.
          5    1    3    3  502    0  0.89271205001E+02  0.38423710835E+02  0.11475872697E+03  0.15044190710E+03  0.41800000000E+01 0. -1.
         -5    1    3    3    0  502 -0.29476665338E+02 -0.28041724566E+02  0.65750609727E+02  0.77432726902E+02  0.41800000000E+01 0. -1.
        -11    1    1    2    0    0 -0.73587664041E+02 -0.19550878417E+02 -0.71381280221E+02  0.10436794676E+03  0.00000000000E+00 0.  1.
         11    1    1    2    0    0  0.13793124378E+02  0.91688921480E+01  0.11598481099E+02  0.20219881976E+02  0.00000000000E+00 0. -1.
</event>
<event>
 7    1  0.3151015E-009  0.1411617E+03  0.7561462E-02  0.1211774E+00
          1   -1    0    0  501    0  0.00000000000E+00  0.00000000000E+00  0.97630846569E+02  0.97630846569E+02  0.00000000000E+00 0. -1.
         -1   -1    0    0    0  501 -0.00000000000E+00 -0.00000000000E+00 -0.21293029952E+03  0.21293029952E+03  0.00000000000E+00 0.  1.
         25    2    1    2    0    0 -0.20846750558E+02 -0.91480451359E+02 -0.55241165060E+02  0.16583093795E+03  0.12508018897E+03 0.  0.
          5    1    3    3  502    0  0.51750443273E+02 -0.50474064182E+02 -0.32057376318E+02  0.79188934268E+02  0.41800000000E+01 0. -1.
         -5    1    3    3    0  502 -0.72597193831E+02 -0.41006387177E+02 -0.23183788742E+02  0.86642003681E+02  0.41800000000E+01 0. -1.
        -11    1    1    2    0    0  0.48621427294E+02  0.84978645763E+02 -0.62414323348E+02  0.11610754147E+03  0.00000000000E+00 0.  1.
         11    1    1    2    0    0 -0.27774676736E+02  0.65018055960E+01  0.23560354619E+01  0.28622666663E+02  0.00000000000E+00 0. -1.
</event>
<event>
 7    1  0.3151015E-009  0.1326998E+03  0.7561462E-02  0.1223504E+00
         -4   -1    0    0    0  501 -0.00000000000E+00  0.00000000000E+00  0.14637753797E+03  0.14637753797E+03  0.00000000000E+00 0.  1.
          4   -1    0    0  501    0  0.00000000000E+00 -0.00000000000E+00 -0.16016456064E+03  0.16016456064E+03  0.00000000000E+00 0. -1.
         25    2    1    2    0    0 -0.11143602277E+01  0.10283783647E+03  0.30998843305E+02  0.16488102342E+03  0.12509181104E+03 0.  0.
          5    1    3    3  502    0  0.34637844041E+02  0.10455331013E+03 -0.95490190852E+01  0.11063377000E+03  0.41800000000E+01 0.  1.
         -5    1    3    3    0  502 -0.35752204269E+02 -0.17154736536E+01  0.40547862391E+02  0.54247253427E+02  0.41800000000E+01 0.  1.
        -11    1    1    2    0    0 -0.26162450003E+02 -0.77928670137E+02  0.17809156424E+01  0.82222400110E+02  0.00000000000E+00 0.  1.
         11    1    1    2    0    0  0.27276810230E+02 -0.24909166336E+02 -0.46566781624E+02  0.59438675076E+02  0.00000000000E+00 0. -1.
</event>
<event>
 7    1  0.3151015E-009  0.1171112E+03  0.7561462E-02  0.1247940E+00
          1   -1    0    0  501    0  0.00000000000E+00  0.00000000000E+00  0.22707252832E+03  0.22707252832E+03  0.00000000000E+00 0.  1.
         -1   -1    0    0    0  501 -0.00000000000E+00 -0.00000000000E+00 -0.94628358887E+02  0.94628358887E+02  0.00000000000E+00 0. -1.
         25    2    1    2    0    0 -0.50893768108E+02 -0.31673145048E+00 -0.20752916360E+02  0.13663181173E+03  0.12508913817E+03 0.  0.
          5    1    3    3  502    0  0.34637694465E+02  0.22850858617E+02 -0.23511383876E+02  0.47876812646E+02  0.41800000000E+01 0.  1.
         -5    1    3    3    0  502 -0.85531462572E+02 -0.23167590068E+02  0.27584675155E+01  0.88754999084E+02  0.41800000000E+01 0.  1.
        -11    1    1    2    0    0  0.76184103911E+02 -0.92944676977E+01  0.11134135270E+03  0.13523054995E+03  0.00000000000E+00 0. -1.
         11    1    1    2    0    0 -0.25290335803E+02  0.96111991482E+01  0.41855733095E+02  0.49838525530E+02  0.00000000000E+00 0.  1.
</event>
<event>
 7    1  0.3151015E-009  0.9920418E+02  0.7561462E-02  0.1281978E+00
          1   -1    0    0  501    0  0.00000000000E+00  0.00000000000E+00  0.82267780933E+02  0.82267780933E+02  0.00000000000E+00 0. -1.
         -1   -1    0    0    0  501 -0.00000000000E+00 -0.00000000000E+00 -0.16990816563E+03  0.16990816563E+03  0.00000000000E+00 0.  1.
         25    2    1    2    0    0  0.40408856674E+02  0.18345976580E+02 -0.27336275202E+02  0.13551538943E+03  0.12509076015E+03 0.  0.
          5    1    3    3  502    0  0.39741379379E+02 -0.45492869087E+02  0.10101109531E+02  0.61387972653E+02  0.41800000000E+01 0. -1.
         -5    1    3    3    0  502  0.66747729512E+00  0.63838845667E+02 -0.37437384733E+02  0.74127416774E+02  0.41800000000E+01 0. -1.
        -11    1    1    2    0    0  0.12537522803E+02  0.78637702891E+01 -0.55440879475E+02  0.57382222667E+02  0.00000000000E+00 0.  1.
         11    1    1    2    0    0 -0.52946379477E+02 -0.26209746869E+02 -0.48632300150E+01  0.59278334464E+02  0.00000000000E+00 0. -1.
</event>
<event>
 7    1  0.3151015E-009  0.1024945E+03  0.7561462E-02  0.1275136E+00
          3   -1    0    0  501    0  0.00000000000E+00  0.00000000000E+00  0.14801036508E+03  0.14801036508E+03  0.00000000000E+00 0. -1.
         -3   -1    0    0    0  501 -0.00000000000E+00 -0.00000000000E+00 -0.18621713632E+03  0.18621713632E+03  0.00000000000E+00 0.  1.
         25    2    1    2    0    0  0.34083292029E+02  0.77180156195E+02 -0.11273742645E+03  0.18834967115E+03  0.12508966382E+03 0.  0.
          5    1    3    3  502    0  0.39061360324E+02  0.57819004763E+02  0.38297346869E+01  0.70006902873E+02  0.41800000000E+01 0. -1.
         -5    1    3    3    0  502 -0.49780682951E+01  0.19361151432E+02 -0.11656716114E+03  0.11834276828E+03  0.41800000000E+01 0. -1.
        -11    1    1    2    0    0 -0.44234453158E+02 -0.82588143932E+01  0.16089567336E+01  0.45027587135E+02  0.00000000000E+00 0.  1.
         11    1    1    2    0    0  0.10151161129E+02 -0.68921341802E+02  0.72921698479E+02  0.10085024312E+03  0.00000000000E+00 0. -1.
</event>
<event>
 7    1  0.3151015E-009  0.1210645E+03  0.7561462E-02  0.1241351E+00
          2   -1    0    0  501    0  0.00000000000E+00  0.00000000000E+00  0.35733165574E+03  0.35733165574E+03  0.00000000000E+00 0.  1.
         -2   -1    0    0    0  501 -0.00000000000E+00 -0.00000000000E+00 -0.59389167919E+02  0.59389167919E+02  0.00000000000E+00 0. -1.
         25    2    1    2    0    0 -0.22665032902E+02 -0.74393485060E+02  0.24263513711E+03  0.28384352656E+03  0.12508894224E+03 0.  0.
          5    1    3    3  502    0  0.39519955143E+02 -0.67013493527E+02  0.91383328980E+02  0.12008755300E+03  0.41800000000E+01 0.  1.
         -5    1    3    3    0  502 -0.62184988045E+02 -0.73799915321E+01  0.15125180813E+03  0.16375597356E+03  0.41800000000E+01 0.  1.
        -11    1    1    2    0    0  0.28099097083E+02  0.12653867300E+01  0.52421328146E+02  0.59490806895E+02  0.00000000000E+00 0.  1.
         11    1    1    2    0    0 -0.54340641804E+01  0.73128098330E+02  0.28860225620E+01  0.73386490208E+02  0.00000000000E+00 0. -1.
</event>
<event>
 7    1  0.3151015E-009  0.1053415E+03  0.7561462E-02  0.1269448E+00
          1   -1    0    0  501    0  0.00000000000E+00  0.00000000000E+00  0.47903536705E+02  0.47903536705E+02  0.00000000000E+00 0. -1.
         -1   -1    0    0    0  501 -0.00000000000E+00 -0.00000000000E+00 -0.30320579294E+03  0.30320579294E+03  0.00000000000E+00 0.  1.
         25    2    1    2    0    0 -0.46116436913E+01  0.49576292128E+02 -0.15769025368E+03  0.20734898460E+03  0.12509320250E+03 0.  0.
          5    1    3    3  502    0 -0.41670744912E+02 -0.13059168073E+02 -0.13701329384E+02  0.45958586566E+02  0.41800000000E+01 0. -1.
         -5    1    3    3    0  502  0.37059101220E+02  0.62635460201E+02 -0.14398892429E+03  0.16139039803E+03  0.41800000000E+01 0. -1.
        -11    1    1    2    0    0  0.72819552367E+01 -0.71480433903E+02 -0.98208932557E+02  0.12168596360E+03  0.00000000000E+00 0.  1.
         11    1    1    2    0    0 -0.26703115454E+01  0.21904141776E+02  0.59693000303E+00  0.22074381443E+02  0.00000000000E+00 0. -1.
</event>
<event>
 7    1  0.3151015E-009  0.1213117E+03  0.7561462E-02  0.1240949E+00
         -2   -1    0    0    0  501 -0.00000000000E+00  0.00000000000E+00  0.22835482175E+02  0.22835482175E+02  0.00000000000E+00 0. -1.
          2   -1    0    0  501    0  0.00000000000E+00 -0.00000000000E+00 -0.11539240639E+04  0.11539240639E+04  0.00000000000E+00 0.  1.
         25    2    1    2    0    0 -0.11868032710E+03  0.91733976745E+01 -0.66303234105E+03  0.68514855025E+03  0.12508988510E+03 0.  0.
          5    1    3    3  502    0 -0.99826642938E+02  0.17671651463E+02 -0.65461657025E+03  0.66243337201E+03  0.41800000000E+01 0.  1.
         -5    1    3    3    0  502 -0.18853684163E+02 -0.84982537884E+01 -0.84157707990E+01  0.22715178232E+02  0.41800000000E+01 0.  1.
        -11    1    1    2    0    0  0.39377356793E+02 -0.10472623416E+02 -0.43080425148E+02  0.59297344799E+02  0.00000000000E+00 0. -1.
         11    1    1    2    0    0  0.79302970308E+02  0.12992257419E+01 -0.42497581555E+03  0.43231365106E+03  0.00000000000E+00 0.  1.
</event>
<event>
 7    1  0.3151015E-009  0.3185047E+03  0.7561462E-02  0.1076340E+00
         -1   -1    0    0    0  501 -0.00000000000E+00  0.00000000000E+00  0.10905042264E+04  0.10905042264E+04  0.00000000000E+00 0.  1.
          1   -1    0    0  501    0  0.00000000000E+00 -0.00000000000E+00 -0.10599818520E+03  0.10599818520E+03  0.00000000000E+00 0. -1.
         25    2    1    2    0    0  0.11516414220E+01  0.31152540436E+03  0.64298577510E+03  0.72534674136E+03  0.12509110431E+03 0.  0.
          5    1    3    3  502    0  0.11456234963E+02  0.12317096970E+03  0.39374999068E+03  0.41274551561E+03  0.41800000000E+01 0.  1.
         -5    1    3    3    0  502 -0.10304593541E+02  0.18835443466E+03  0.24923578442E+03  0.31260122575E+03  0.41800000000E+01 0.  1.
        -11    1    1    2    0    0 -0.35658928704E+02 -0.53902073189E+02  0.70374601833E+02  0.95548821414E+02  0.00000000000E+00 0. -1.
         11    1    1    2    0    0  0.34507287282E+02 -0.25762333117E+03  0.27114566426E+03  0.37560684883E+03  0.00000000000E+00 0.  1.
</event>
<event>
 7    1  0.3151015E-009  0.2079635E+03  0.7561462E-02  0.1143189E+00
         -3   -1    0    0    0  501 -0.00000000000E+00  0.00000000000E+00  0.23251532199E+03  0.23251532199E+03  0.00000000000E+00 0.  1.
          3   -1    0    0  501    0  0.00000000000E+00 -0.00000000000E+00 -0.31254671101E+03  0.31254671101E+03  0.00000000000E+00 0. -1.
         25    2    1    2    0    0 -0.16268681620E+03  0.96750772847E+02  0.11858487597E+03  0.25600358343E+03  0.12509096574E+03 0.  0.
          5    1    3    3  502    0 -0.44262842189E+02  0.85036974012E+02  0.94178541212E+02  0.13445280277E+03  0.41800000000E+01 0.  1.
         -5    1    3    3    0  502 -0.11842397401E+03  0.11713798835E+02  0.24406334761E+02  0.12155078066E+03  0.41800000000E+01 0.  1.
        -11    1    1    2    0    0  0.82078892384E+02 -0.10348629972E+02 -0.41751750541E+02  0.92667401984E+02  0.00000000000E+00 0. -1.
         11    1    1    2    0    0  0.80607923811E+02 -0.86402142876E+02 -0.15686451445E+03  0.19639104758E+03  0.00000000000E+00 0.  1.
</event>
<event>
 7    1  0.3151015E-009  0.2230588E+03  0.7561462E-02  0.1131623E+00
          1   -1    0    0  501    0  0.00000000000E+00  0.00000000000E+00  0.26182673641E+04  0.26182673641E+04  0.00000000000E+00 0. -1.
         -1   -1    0    0    0  501 -0.00000000000E+00 -0.00000000000E+00 -0.20266814075E+02  0.20266814075E+02  0.00000000000E+00 0.  1.
         25    2    1    2    0    0  0.78835572707E+02  0.18376139933E+03  0.15373527769E+04  0.15553403496E+04  0.12508694215E+03 0.  0.
          5    1    3    3  502    0  0.14762109655E+02 -0.13676408156E+02  0.58941569835E+02  0.62422312326E+02  0.41800000000E+01 0.  1.
         -5    1    3    3    0  502  0.64073463052E+02  0.19743780748E+03  0.14784112071E+04  0.14929180373E+04  0.41800000000E+01 0.  1.
        -11    1    1    2    0    0 -0.82641937766E+02 -0.83041575602E+02  0.49851800955E+03  0.51209940344E+03  0.00000000000E+00 0.  1.
         11    1    1    2    0    0  0.38063650591E+01 -0.10071982372E+03  0.56212976356E+03  0.57109442511E+03  0.00000000000E+00 0. -1.
</event>
<event>
 7    1  0.3151015E-009  0.4115598E+03  0.7561462E-02  0.1039849E+00
         -2   -1    0    0    0  501 -0.00000000000E+00  0.00000000000E+00  0.25497352316E+03  0.25497352316E+03  0.00000000000E+00 0. -1.
          2   -1    0    0  501    0  0.00000000000E+00 -0.00000000000E+00 -0.11338673698E+04  0.11338673698E+04  0.00000000000E+00 0.  1.
         25    2    1    2    0    0  0.29964659281E+03 -0.26806163899E+03 -0.37222323019E+01  0.42107531136E+03  0.12508173307E+03 0.  0.
          5    1    3    3  502    0  0.26077456808E+03 -0.27739599093E+03 -0.62648229262E+01  0.38079998890E+03  0.41800000000E+01 0. -1.
         -5    1    3    3    0  502  0.38872024721E+02  0.93343519386E+01  0.25425906243E+01  0.40275322458E+02  0.41800000000E+01 0. -1.
        -11    1    1    2    0    0 -0.28984122435E+03  0.25674837105E+03 -0.86938838155E+03  0.95171624939E+03  0.00000000000E+00 0.  1.
         11    1    1    2    0    0 -0.98053684588E+01  0.11313267937E+02 -0.57832327489E+01  0.16049332168E+02  0.00000000000E+00 0. -1.
</event>
<event>
 7    1  0.3151015E-009  0.1273074E+03  0.7561462E-02  0.1231507E+00
          2   -1    0    0  501    0  0.00000000000E+00  0.00000000000E+00  0.61511067550E+03  0.61511067550E+03  0.00000000000E+00 0. -1.
         -2   -1    0    0    0  501 -0.00000000000E+00 -0.00000000000E+00 -0.33519339698E+02  0.33519339698E+02  0.00000000000E+00 0.  1.
         25    2    1    2    0    0 -0.70522122850E+02 -0.55829436957E+00  0.44861049056E+03  0.47103277611E+03  0.12508725924E+03 0.  0.
          5    1    3    3  502    0 -0.10673988268E+03  0.37387252040E+01  0.33459965318E+03  0.35125742829E+03  0.41800000000E+01 0. -1.
         -5    1    3    3    0  502  0.36217759834E+02 -0.42970195736E+01  0.11401083738E+03  0.11977534782E+03  0.41800000000E+01 0. -1.
        -11    1    1    2    0    0  0.23630810414E+02  0.42160330998E+02  0.88149812117E+02  0.10053008548E+03  0.00000000000E+00 0. -1.
         11    1    1    2    0    0  0.46891312436E+02 -0.41602036629E+02  0.44831033118E+02  0.77067153601E+02  0.00000000000E+00 0.  1.
</event>
<event>
 7    1  0.3151015E-009  0.9861904E+02  0.7561462E-02  0.1283227E+00
         -1   -1    0    0    0  501 -0.00000000000E+00  0.00000000000E+00  0.12786060029E+03  0.12786060029E+03  0.00000000000E+00 0.  1.
          1   -1    0    0  501    0  0.00000000000E+00 -0.00000000000E+00 -0.14776714644E+03  0.14776714644E+03  0.00000000000E+00 0. -1.
         25    2    1    2    0    0  0.82194657619E+02 -0.65396790991E+01 -0.34608542488E+02  0.15376786119E+03  0.12509226506E+03 0.  0.
          5    1    3    3  502    0  0.64448888220E+02  0.68267206749E+01  0.39686161798E+02  0.76109967456E+02  0.41800000000E+01 0.  1.
         -5    1    3    3    0  502  0.17745769400E+02 -0.13366399774E+02 -0.74294704287E+02  0.77657893736E+02  0.41800000000E+01 0.  1.
        -11    1    1    2    0    0 -0.79032746251E+02 -0.21153398619E+02  0.33321332577E+02  0.88339982215E+02  0.00000000000E+00 0.  1.
         11    1    1    2    0    0 -0.31619113685E+01  0.27693077718E+02 -0.18619336237E+02  0.33519903325E+02  0.00000000000E+00 0. -1.
</event>
<event>
 7    1  0.3151015E-009  0.1676840E+03  0.7561462E-02  0.1180285E+00
          1   -1    0    0  501    0  0.00000000000E+00  0.00000000000E+00  0.14610273268E+03  0.14610273268E+03  0.00000000000E+00 0. -1.
         -1   -1    0    0    0  501 -0.00000000000E+00 -0.00000000000E+00 -0.26156182487E+03  0.26156182487E+03  0.00000000000E+00 0.  1.
         25    2    1    2    0    0  0.11450626213E+03 -0.10996320989E+03 -0.57566936777E+02  0.21015799406E+03  0.12509531831E+03 0.  0.
          5    1    3    3  502    0 -0.60960751734E+01 -0.13168102022E+02 -0.53302771626E+02  0.55400531644E+02  0.41800000000E+01 0. -1.
         -5    1    3    3    0  502  0.12060233730E+03 -0.96795107864E+02 -0.42641651510E+01  0.15475746242E+03  0.41800000000E+01 0. -1.
        -11    1    1    2    0    0 -0.68893681566E+02  0.33672551557E+02  0.20079872963E+02  0.79267782776E+02  0.00000000000E+00 0. -1.
         11    1    1    2    0    0 -0.45612580563E+02  0.76290658329E+02 -0.77972028384E+02  0.11823878071E+03  0.00000000000E+00 0.  1.
</event>
<event>
 7    1  0.3151015E-009  0.8329948E+02  0.7561462E-02  0.1319940E+00
         -1   -1    0    0    0  501 -0.00000000000E+00  0.00000000000E+00  0.12195802018E+03  0.12195802018E+03  0.00000000000E+00 0.  1.
          1   -1    0    0  501    0  0.00000000000E+00 -0.00000000000E+00 -0.14220055015E+03  0.14220055015E+03  0.00000000000E+00 0. -1.
         25    2    1    2    0    0 -0.70832230197E+02 -0.20562468551E+02 -0.45145066251E+01  0.14527398550E+03  0.12507649717E+03 0.  0.
          5    1    3    3  502    0 -0.43076118872E+02  0.45317512724E+01 -0.62488302875E+02  0.76146892142E+02  0.41800000000E+01 0.  1.
         -5    1    3    3    0  502 -0.27756111325E+02 -0.25094219823E+02  0.57973796249E+02  0.69127093357E+02  0.41800000000E+01 0.  1.
        -11    1    1    2    0    0  0.58876485898E+02 -0.30614078777E+01  0.29919989802E+02  0.66113679369E+02  0.00000000000E+00 0.  1.
         11    1    1    2    0    0  0.11955744299E+02  0.23623876429E+02 -0.45648013148E+02  0.52770905465E+02  0.00000000000E+00 0. -1.
</event>
<event>
 7    1  0.3151015E-009  0.1355261E+03  0.7561462E-02  0.1219479E+00
         -2   -1    0    0    0  501 -0.00000000000E+00  0.00000000000E+00  0.57216588673E+02  0.57216588673E+02  0.00000000000E+00 0. -1.
          2   -1    0    0  501    0  0.00000000000E+00 -0.00000000000E+00 -0.40986534344E+03  0.40986534344E+03  0.00000000000E+00 0.  1.
         25    2    1    2    0    0  0.88332055411E+02 -0.51163546949E+02 -0.13816341016E+03  0.21250235810E+03  0.12509142153E+03 0.  0.
          5    1    3    3  502    0  0.10048334156E+03 -0.67831464215E+02 -0.67608783088E+02  0.13887558972E+03  0.41800000000E+01 0.  1.
         -5    1    3    3    0  502 -0.12151286149E+02  0.16667917266E+02 -0.70554627068E+02  0.73626768378E+02  0.41800000000E+01 0.  1.
        -11    1    1    2    0    0 -0.16504940662E+02 -0.21114777811E+02 -0.88915433711E+02  0.92866577735E+02  0.00000000000E+00 0.  1.
         11    1    1    2    0    0 -0.71827114750E+02  0.72278324761E+02 -0.12556991090E+03  0.16171299628E+03  0.00000000000E+00 0. -1.
</event>
<event>
 7    1  0.3151015E-009  0.4057149E+03  0.7561462E-02  0.1041819E+00
          1   -1    0    0  501    0  0.00000000000E+00  0.00000000000E+00  0.54786458635E+03  0.54786458635E+03  0.00000000000E+00 0. -1.
         -1   -1    0    0    0  501 -0.00000000000E+00 -0.00000000000E+00 -0.41337320273E+03  0.41337320273E+03  0.00000000000E+00 0.  1.
         25    2    1    2    0    0  0.20609626506E+03  0.34105854277E+03 -0.17091986134E+03  0.45128424628E+03  0.12508905576E+03 0.  0.
          5    1    3    3  502    0  0.51485107501E+02  0.17892704984E+02 -0.47290601325E+02  0.72282353031E+02  0.41800000000E+01 0.  1.
         -5    1    3    3    0  502  0.15461115756E+03  0.32316583779E+03 -0.12362926002E+03  0.37900189325E+03  0.41800000000E+01 0.  1.
        -11    1    1    2    0    0 -0.13671929661E+03 -0.22630183171E+03  0.14738803785E+03  0.30270103865E+03  0.00000000000E+00 0.  1.
         11    1    1    2    0    0 -0.69376968454E+02 -0.11475671106E+03  0.15802320711E+03  0.20725250414E+03  0.00000000000E+00 0. -1.
</event>
<event>
 7    1  0.3151015E-009  0.8252511E+02  0.7561462E-02  0.1322035E+00
         -1   -1    0    0    0  501 -0.00000000000E+00  0.00000000000E+00  0.48807980229E+02  0.48807980229E+02  0.00000000000E+00 0.  1.
          1   -1    0    0  501    0  0.00000000000E+00 -0.00000000000E+00 -0.30311447185E+03  0.30311447185E+03  0.00000000000E+00 0. -1.
         25    2    1    2    0    0  0.26694988928E+01 -0.50074835384E+02 -0.11211470524E+03  0.17530895050E+03  0.12509558598E+03 0.  0.
          5    1    3    3  502    0  0.15564524774E+02  0.25248406759E-01  0.24410743250E+02  0.29250843662E+02  0.41800000000E+01 0.  1.
         -5    1    3    3    0  502 -0.12895025881E+02 -0.50100083790E+02 -0.13652544849E+03  0.14605810684E+03  0.41800000000E+01 0.  1.
        -11    1    1    2    0    0 -0.29509860130E+02 -0.10061790366E+02 -0.17894059199E+02  0.35948140771E+02  0.00000000000E+00 0.  1.
         11    1    1    2    0    0  0.26840361237E+02  0.60136625750E+02 -0.12429772718E+03  0.14066536080E+03  0.00000000000E+00 0. -1.
</event>
<event>
 7    1  0.3151015E-009  0.1081649E+03  0.7561462E-02  0.1264006E+00
          1   -1    0    0  501    0  0.00000000000E+00  0.00000000000E+00  0.96591513476E+03  0.96591513476E+03  0.00000000000E+00 0. -1.
         -1   -1    0    0    0  501 -0.00000000000E+00 -0.00000000000E+00 -0.13420671795E+02  0.13420671795E+02  0.00000000000E+00 0.  1.
         25    2    1    2    0    0  0.19061659209E+02 -0.23828181173E+02  0.60650000752E+03  0.62002264890E+03  0.12511873143E+03 0.  0.
          5    1    3    3  502    0 -0.37002728419E+02  0.27582488824E+02  0.14349965963E+03  0.15079661904E+03  0.41800000000E+01 0.  1.
         -5    1    3    3    0  502  0.56064387628E+02 -0.51410669997E+02  0.46300034790E+03  0.46922602986E+03  0.41800000000E+01 0.  1.
        -11    1    1    2    0    0  0.35478450170E+02  0.36997921417E+01  0.90237800755E+02  0.97032312007E+02  0.00000000000E+00 0.  1.
         11    1    1    2    0    0 -0.54540109379E+02  0.20128389032E+02  0.25575665468E+03  0.26228084564E+03  0.00000000000E+00 0. -1.
</event>
<event>
 7    1  0.3151015E-009  0.2262640E+03  0.7561462E-02  0.1129297E+00
          1   -1    0    0  501    0  0.00000000000E+00  0.00000000000E+00  0.24823939815E+03  0.24823939815E+03  0.00000000000E+00 0. -1.
         -1   -1    0    0    0  501 -0.00000000000E+00 -0.00000000000E+00 -0.22742871775E+03  0.22742871775E+03  0.00000000000E+00 0.  1.
         25    2    1    2    0    0 -0.13265852099E+03  0.15378033093E+03  0.68490664441E+02  0.24816413990E+03  0.12509115015E+03 0.  0.
          5    1    3    3  502    0 -0.14017280801E+03  0.83296001595E+02  0.25313308950E+02  0.16506021930E+03  0.41800000000E+01 0. -1.
         -5    1    3    3    0  502  0.75142870197E+01  0.70484329337E+02  0.43177355491E+02  0.83103920597E+02  0.41800000000E+01 0. -1.
        -11    1    1    2    0    0  0.11183649519E+03 -0.69665873312E+02 -0.49713671563E+02  0.14082678971E+03  0.00000000000E+00 0.  1.
         11    1    1    2    0    0  0.20822025804E+02 -0.84114457620E+02  0.20336875190E+01  0.86677186296E+02  0.00000000000E+00 0. -1.
</event>
<event>
 7    1  0.3151015E-009  0.8749207E+02  0.7561462E-02  0.1309041E+00
          3   -1    0    0  501    0  0.00000000000E+00  0.00000000000E+00  0.36247167481E+03  0.36247167481E+03  0.00000000000E+00 0. -1.
         -3   -1    0    0    0  501 -0.00000000000E+00 -0.00000000000E+00 -0.36978640421E+02  0.36978640421E+02  0.00000000000E+00 0.  1.
         25    2    1    2    0    0  0.33178752141E+02  0.50427259287E+01  0.22833192995E+03  0.26248316002E+03  0.12504271424E+03 0.  0.
          5    1    3    3  502    0  0.44133429509E+02  0.44559118066E+02  0.20646953865E+03  0.21582496935E+03  0.41800000000E+01 0.  1.
         -5    1    3    3    0  502 -0.10954677368E+02 -0.39516392137E+02  0.21862391295E+02  0.46658190673E+02  0.41800000000E+01 0.  1.
        -11    1    1    2    0    0 -0.10935296305E+01  0.26143165150E+02 -0.38895682518E+01  0.26453537236E+02  0.00000000000E+00 0.  1.
         11    1    1    2    0    0 -0.32085222510E+02 -0.31185891078E+02  0.10105067269E+03  0.11051361797E+03  0.00000000000E+00 0. -1.
</event>
<event>
 7    1  0.3151015E-009  0.1089757E+03  0.7561462E-02  0.1262479E+00
          1   -1    0    0  501    0  0.00000000000E+00  0.00000000000E+00  0.52507571887E+03  0.52507571887E+03  0.00000000000E+00 0.  1.
         -1   -1    0    0    0  501 -0.00000000000E+00 -0.00000000000E+00 -0.38134778829E+02  0.38134778829E+02  0.00000000000E+00 0. -1.
         25    2    1    2    0    0  0.17471615312E+02 -0.74790612836E+02  0.16960931965E+03  0.22428994007E+03  0.12505903725E+03 0.  0.
          5    1    3    3  502    0 -0.32391595606E+02  0.16338435352E+01  0.11109423387E+03  0.11580710734E+03  0.41800000000E+01 0. -1.
         -5    1    3    3    0  502  0.49863210918E+02 -0.76424456372E+02  0.58515085776E+02  0.10848283273E+03  0.41800000000E+01 0. -1.
        -11    1    1    2    0    0  0.15935181333E+02  0.52912870631E+01  0.54582419821E+01  0.17655597652E+02  0.00000000000E+00 0. -1.
         11    1    1    2    0    0 -0.33406796645E+02  0.69499325773E+02  0.31187337841E+03  0.32126495998E+03  0.00000000000E+00 0.  1.
</event>
<event>
 7    1  0.3151015E-009  0.1347727E+03  0.7561462E-02  0.1220541E+00
          1   -1    0    0  501    0  0.00000000000E+00  0.00000000000E+00  0.64176014637E+03  0.64176014637E+03  0.00000000000E+00 0. -1.
         -1   -1    0    0    0  501 -0.00000000000E+00 -0.00000000000E+00 -0.42686773883E+02  0.42686773883E+02  0.00000000000E+00 0.  1.
         25    2    1    2    0    0 -0.10109922248E+03 -0.68061981362E+02  0.26655445908E+03  0.31867151401E+03  0.12508704206E+03 0.  0.
          5    1    3    3  502    0 -0.89539994673E+02 -0.61055479377E+02  0.88297274463E+02  0.13985372103E+03  0.41800000000E+01 0.  1.
         -5    1    3    3    0  502 -0.11559227805E+02 -0.70065019857E+01  0.17825718462E+03  0.17881779298E+03  0.41800000000E+01 0.  1.
        -11    1    1    2    0    0  0.84928385096E+02  0.86500429619E+01  0.23916657330E+03  0.25394547372E+03  0.00000000000E+00 0. -1.
         11    1    1    2    0    0  0.16170837381E+02  0.59411938400E+02  0.93352340109E+02  0.11182993253E+03  0.00000000000E+00 0.  1.
</event>
<event>
 7    1  0.3151015E-009  0.3049395E+03  0.7561462E-02  0.1082797E+00
          1   -1    0    0  501    0  0.00000000000E+00  0.00000000000E+00  0.65819496615E+03  0.65819496615E+03  0.00000000000E+00 0. -1.
         -1   -1    0    0    0  501 -0.00000000000E+00 -0.00000000000E+00 -0.14334876758E+03  0.14334876758E+03  0.00000000000E+00 0.  1.
         25    2    1    2    0    0  0.59440014471E+02 -0.28253511127E+03  0.30129442509E+03  0.43564263536E+03  0.12508785206E+03 0.  0.
          5    1    3    3  502    0  0.43218192031E+01 -0.24876987847E+03  0.25281279619E+03  0.35473498964E+03  0.41800000000E+01 0.  1.
         -5    1    3    3    0  502  0.55118195268E+02 -0.33765232798E+02  0.48481628902E+02  0.80907645723E+02  0.41800000000E+01 0.  1.
        -11    1    1    2    0    0 -0.69839337026E+02  0.17797879811E+03  0.15090998658E+03  0.24357300676E+03  0.00000000000E+00 0.  1.
         11    1    1    2    0    0  0.10399322555E+02  0.10455631316E+03  0.62641786900E+02  0.12232809161E+03  0.00000000000E+00 0. -1.
</event>
<event>
 7    1  0.3151015E-009  0.9428025E+02  0.7561462E-02  0.1292805E+00
         -1   -1    0    0    0  501 -0.00000000000E+00  0.00000000000E+00  0.18101339873E+03  0.18101339873E+03  0.00000000000E+00 0.  1.
          1   -1    0    0  501    0  0.00000000000E+00 -0.00000000000E+00 -0.71802672974E+02  0.71802672974E+02  0.00000000000E+00 0. -1.
         25    2    1    2    0    0  0.56317787795E+01 -0.25760638996E+02  0.84576270137E+02  0.15326876353E+03  0.12507134344E+03 0.  0.
          5    1    3    3  502    0  0.60987172305E+02 -0.18030249942E+02  0.17971575331E+02  0.66219143898E+02  0.41800000000E+01 0.  1.
         -5    1    3    3    0  502 -0.55355393525E+02 -0.77303890536E+01  0.66604694806E+02  0.87049619628E+02  0.41800000000E+01 0.  1.
        -11    1    1    2    0    0  0.24125721116E+02 -0.64022009962E+01  0.44821758598E+02  0.51303300486E+02  0.00000000000E+00 0.  1.
         11    1    1    2    0    0 -0.29757499895E+02  0.32162839992E+02 -0.20187302981E+02  0.48244007690E+02  0.00000000000E+00 0. -1.
</event>
<event>
 7    1  0.3151015E-009  0.1328759E+03  0.7561462E-02  0.1223250E+00
         -4   -1    0    0    0  501 -0.00000000000E+00  0.00000000000E+00  0.11852119820E+04  0.11852119820E+04  0.00000000000E+00 0.  1.
          4   -1    0    0  501    0  0.00000000000E+00 -0.00000000000E+00 -0.21006873745E+02  0.21006873745E+02  0.00000000000E+00 0. -1.
         25    2    1    2    0    0 -0.57145296536E+02 -0.73179204598E+02  0.88282257721E+03  0.89646088246E+03  0.12508249299E+03 0.  0.
          5    1    3    3  502    0 -0.78891188647E+02 -0.12041374537E+01  0.51304901147E+03  0.51909732244E+03  0.41800000000E+01 0. -1.
         -5    1    3    3    0  502  0.21745892111E+02 -0.71975067145E+02  0.36977356574E+03  0.37736356002E+03  0.41800000000E+01 0. -1.
        -11    1    1    2    0    0 -0.63524877908E+01  0.38628085515E+02  0.33417414976E+02  0.51470445066E+02  0.00000000000E+00 0. -1.
         11    1    1    2    0    0  0.63497784327E+02  0.34551119084E+02  0.24796511606E+03  0.25828752821E+03  0.00000000000E+00 0.  1.
</event>
<event>
 7    1  0.3151015E-009  0.1509959E+03  0.7561462E-02  0.1199255E+00
         -1   -1    0    0    0  501 -0.00000000000E+00  0.00000000000E+00  0.86008193197E+02  0.86008193197E+02  0.00000000000E+00 0.  1.
          1   -1    0    0  501    0  0.00000000000E+00 -0.00000000000E+00 -0.32273939178E+03  0.32273939178E+03  0.00000000000E+00 0. -1.
         25    2    1    2    0    0  0.10236675543E+03 -0.54523486827E+02 -0.18400477101E+03  0.25091110346E+03  0.12508742085E+03 0.  0.
          5    1    3    3  502    0  0.46491478470E+02 -0.79278093195E+02 -0.52709962587E+02  0.10602964768E+03  0.41800000000E+01 0.  1.
         -5    1    3    3    0  502  0.55875276960E+02  0.24754606368E+02 -0.13129480842E+03  0.14488145578E+03  0.41800000000E+01 0.  1.
        -11    1    1    2    0    0 -0.87553745666E+02  0.80432813950E+02 -0.40803996706E+02  0.12569829787E+03  0.00000000000E+00 0. -1.
         11    1    1    2    0    0 -0.14813009764E+02 -0.25909327124E+02 -0.11922430871E+02  0.32138183647E+02  0.00000000000E+00 0.  1.
</event>
<event>
 7    1  0.3151015E-009  0.1165346E+03  0.7561462E-02  0.1248926E+00
         -2   -1    0    0    0  501 -0.00000000000E+00  0.00000000000E+00  0.27148906654E+02  0.27148906654E+02  0.00000000000E+00 0.  1.
          2   -1    0    0  501    0  0.00000000000E+00 -0.00000000000E+00 -0.56390783058E+03  0.56390783058E+03  0.00000000000E+00 0. -1.
         25    2    1    2    0    0 -0.41491725852E+02 -0.83593037000E+01 -0.39374886668E+03  0.41530447240E+03  0.12509273963E+03 0.  0.
          5    1    3    3  502    0 -0.42118315471E+00 -0.63189298025E+02 -0.18103419457E+03  0.19179133657E+03  0.41800000000E+01 0. -1.
         -5    1    3    3    0  502 -0.41070542697E+02  0.54829994325E+02 -0.21271467212E+03  0.22351313583E+03  0.41800000000E+01 0. -1.
        -11    1    1    2    0    0 -0.21450904954E+02 -0.22430608995E+02 -0.56107520067E+02  0.64119633119E+02  0.00000000000E+00 0.  1.
         11    1    1    2    0    0  0.62942630806E+02  0.30789912695E+02 -0.86902537174E+02  0.11163263172E+03  0.00000000000E+00 0. -1.
</event>
<event>
 7    1  0.3151015E-009  0.1422311E+03  0.7561462E-02  0.1210358E+00
         -2   -1    0    0    0  501 -0.00000000000E+00  0.00000000000E+00  0.84957294715E+02  0.84957294715E+02  0.00000000000E+00 0.  1.
          2   -1    0    0  501    0  0.00000000000E+00 -0.00000000000E+00 -0.27413525573E+03  0.27413525573E+03  0.00000000000E+00 0. -1.
         25    2    1    2    0    0  0.91707001206E+02  0.23039909093E+02 -0.41117653375E+02  0.16210876194E+03  0.12509027859E+03 0.  0.
          5    1    3    3  502    0 -0.30549024981E+02  0.32984380686E+01  0.15761730048E+01  0.31049627088E+02  0.41800000000E+01 0.  1.
         -5    1    3    3    0  502  0.12225602619E+03  0.19741471025E+02 -0.42693826380E+02  0.13105913485E+03  0.41800000000E+01 0.  1.
        -11    1    1    2    0    0 -0.59155680719E+02  0.30749656980E+02 -0.83746385575E+02  0.10704388382E+03  0.00000000000E+00 0. -1.
         11    1    1    2    0    0 -0.32551320487E+02 -0.53789566073E+02 -0.64313922060E+02  0.89939904684E+02  0.00000000000E+00 0.  1.
</event>
<event>
 6    1  0.3151015E-009  0.1038395E+03  0.7561462E-02  0.1272423E+00
          2   -1    0    0  501    0  0.00000000000E+00  0.00000000000E+00  0.99638115047E+03  0.99638115047E+03  0.00000000000E+00 0. -1.
         -2   -1    0    0    0  501 -0.00000000000E+00 -0.00000000000E+00 -0.33217510983E+02  0.33217510983E+02  0.00000000000E+00 0.  1.
          5    1    1    2  502    0  0.34598621954E+02 -0.52937206925E+02  0.12490164691E+03  0.14006179464E+03  0.41800000000E+01 0. -1.
         -5    1    1    2    0  502  0.21403407176E+02 -0.34124090933E+02  0.67239171122E+03  0.67361015813E+03  0.41800000000E+01 0. -1.
        -11    1    1    2    0    0 -0.42715635540E+02  0.59955011740E+02  0.17019277488E+03  0.18543141474E+03  0.00000000000E+00 0. -1.
         11    1    1    2    0    0 -0.13286393590E+02  0.27106286118E+02 -0.43224935240E+01  0.30495293932E+02  0.00000000000E+00 0.  1.
</event>
<event>
 7    1  0.3151015E-009  0.9036179E+02  0.7561462E-02  0.1301978E+00
         -2   -1    0    0    0  501 -0.00000000000E+00  0.00000000000E+00  0.15272529889E+03  0.15272529889E+03  0.00000000000E+00 0.  1.
          2   -1    0    0  501    0  0.00000000000E+00 -0.00000000000E+00 -0.98776196330E+02  0.98776196330E+02  0.00000000000E+00 0. -1.
         25    2    1    2    0    0  0.81170759364E+01  0.38050108346E+02 -0.12390200944E+02  0.13158491461E+03  0.12508946801E+03 0.  0.
          5    1    3    3  502    0  0.60405404181E+02  0.48416767746E+02 -0.68695268709E+01  0.77830964614E+02  0.41800000000E+01 0. -1.
         -5    1    3    3    0  502 -0.52288328244E+02 -0.10366659400E+02 -0.55206740728E+01  0.53753949994E+02  0.41800000000E+01 0. -1.
        -11    1    1    2    0    0 -0.16605025419E+02 -0.78699197019E+01 -0.20536255281E+02  0.27557218406E+02  0.00000000000E+00 0. -1.
         11    1    1    2    0    0  0.84879494830E+01 -0.30180188644E+02  0.86875558789E+02  0.92359362211E+02  0.00000000000E+00 0.  1.
</event>
<event>
 6    1  0.3151015E-009  0.1888406E+03  0.7561462E-02  0.1159511E+00
          1   -1    0    0  501    0  0.00000000000E+00  0.00000000000E+00  0.15836302094E+03  0.15836302094E+03  0.00000000000E+00 0. -1.
         -1   -1    0    0    0  501 -0.00000000000E+00 -0.00000000000E+00 -0.23191998686E+03  0.23191998686E+03  0.00000000000E+00 0.  1.
          5    1    1    2  502    0  0.28400375014E+02 -0.34050967675E+02 -0.27448440598E+02  0.52315762365E+02  0.41800000000E+01 0.  1.
         -5    1    1    2    0  502 -0.12056804227E+03 -0.94066475766E+02 -0.15861573872E+02  0.15379927375E+03  0.41800000000E+01 0.  1.
        -11    1    1    2    0    0  0.10439737142E+03  0.13108859940E+03 -0.21756403535E+02  0.16898631053E+03  0.00000000000E+00 0.  1.
         11    1    1    2    0    0 -0.12229704166E+02 -0.29711559629E+01 -0.84905479141E+01  0.15181661161E+02  0.00000000000E+00 0. -1.
</event>
<event>
 7    1  0.3151015E-009  0.8057654E+02  0.7561462E-02  0.1327423E+00
         -1   -1    0    0    0  501 -0.00000000000E+00  0.00000000000E+00  0.13773999407E+04  0.13773999407E+04  0.00000000000E+00 0.  1.
          1   -1    0    0  501    0  0.00000000000E+00 -0.00000000000E+00 -0.10177515878E+02  0.10177515878E+02  0.00000000000E+00 0. -1.
         25    2    1    2    0    0 -0.15711436308E+02 -0.36804285175E+02  0.95442907473E+03  0.96342266581E+03  0.12508784779E+03 0.  0.
          5    1    3    3  502    0 -0.13169032395E+02 -0.50917376731E+02  0.15275226356E+03  0.16160671116E+03  0.41800000000E+01 0. -1.
         -5    1    3    3    0  502 -0.25424039125E+01  0.14113091556E+02  0.80167681117E+03  0.80181595466E+03  0.41800000000E+01 0. -1.
        -11    1    1    2    0    0 -0.12800141711E+02 -0.23495929489E+02  0.70147044302E+02  0.75076695150E+02  0.00000000000E+00 0.  1.
         11    1    1    2    0    0  0.28511578018E+02  0.60300214663E+02  0.34264630580E+03  0.34907809563E+03  0.00000000000E+00 0. -1.
</event>
<event>
 7    1  0.3151015E-009  0.8517137E+02  0.7561462E-02  0.1314985E+00
          1   -1    0    0  501    0  0.00000000000E+00  0.00000000000E+00  0.10472987453E+04  0.10472987453E+04  0.00000000000E+00 0. -1.
         -1   -1    0    0    0  501 -0.00000000000E+00 -0.00000000000E+00 -0.22964150654E+02  0.22964150654E+02  0.00000000000E+00 0.  1.
         25    2    1    2    0    0 -0.43285334415E+02  0.31168220198E+01  0.91961262979E+03  0.92909499308E+03  0.12508709983E+03 0.  0.
          5    1    3    3  502    0 -0.76261170868E+02  0.20553503008E+02  0.79571920042E+03  0.79964037604E+03  0.41800000000E+01 0.  1.
         -5    1    3    3    0  502  0.32975836452E+02 -0.17436680988E+02  0.12389342937E+03  0.12945461704E+03  0.41800000000E+01 0.  1.
        -11    1    1    2    0    0  0.53955586761E+01 -0.13407098530E+02 -0.11515299369E+02  0.18478757101E+02  0.00000000000E+00 0.  1.
         11    1    1    2    0    0  0.37889775739E+02  0.10290276511E+02  0.11623726427E+03  0.12268914582E+03  0.00000000000E+00 0. -1.
</event>
<event>
 7    1  0.3151015E-009  0.9537855E+02  0.7561462E-02  0.1290326E+00
          1   -1    0    0  501    0  0.00000000000E+00  0.00000000000E+00  0.49239753048E+02  0.49239753048E+02  0.00000000000E+00 0. -1.
         -1   -1    0    0    0  501 -0.00000000000E+00 -0.00000000000E+00 -0.31970695703E+03  0.31970695703E+03  0.00000000000E+00 0.  1.
         25    2    1    2    0    0 -0.50134918683E+02  0.31677305920E+02 -0.12499524181E+03  0.18651617596E+03  0.12509001414E+03 0.  0.
          5    1    3    3  502    0 -0.53432666359E+02  0.63229185812E+02 -0.12995236269E+03  0.15413652630E+03  0.41800000000E+01 0. -1.
         -5    1    3    3    0  502  0.32977476763E+01 -0.31551879892E+02  0.49571208800E+01  0.32379649656E+02  0.41800000000E+01 0. -1.
        -11    1    1    2    0    0  0.33217732407E+02  0.67392858517E+01 -0.31421299799E+01  0.34039810530E+02  0.00000000000E+00 0. -1.
         11    1    1    2    0    0  0.16917186276E+02 -0.38416591772E+02 -0.14232983220E+03  0.14839072359E+03  0.00000000000E+00 0.  1.
</event>
<event>
 7    1  0.3151015E-009  0.1119258E+03  0.7561462E-02  0.1257045E+00
         -2   -1    0    0    0  501 -0.00000000000E+00  0.00000000000E+00  0.13461967738E+04  0.13461967738E+04  0.00000000000E+00 0.  1.
          2   -1    0    0  501    0  0.00000000000E+00 -0.00000000000E+00 -0.11784814466E+02  0.11784814466E+02  0.00000000000E+00 0. -1.
         25    2    1    2    0    0  0.17308751202E+02  0.44684816395E+02  0.10317361740E+04  0.10403959277E+04  0.12509127867E+03 0.  0.
          5    1    3    3  502    0 -0.46248556922E+02 -0.57064534856E+01  0.24097704886E+03  0.24547688915E+03  0.41800000000E+01 0. -1.
         -5    1    3    3    0  502  0.63557308124E+02  0.50391269881E+02  0.79075912515E+03  0.79491903858E+03  0.41800000000E+01 0. -1.
        -11    1    1    2    0    0  0.12132550423E+01  0.24345526513E+02  0.88732584973E+02  0.92019825500E+02  0.00000000000E+00 0. -1.
         11    1    1    2    0    0 -0.18522006244E+02 -0.69030342909E+02  0.21394320035E+03  0.22556583503E+03  0.00000000000E+00 0.  1.
</event>
<event>
 7    1  0.3151015E-009  0.1211012E+03  0.7561462E-02  0.1241291E+00
          1   -1    0    0  501    0  0.00000000000E+00  0.00000000000E+00  0.19115657873E+03  0.19115657873E+03  0.00000000000E+00 0. -1.
         -1   -1    0    0    0  501 -0.00000000000E+00 -0.00000000000E+00 -0.13288004873E+03  0.13288004873E+03  0.00000000000E+00 0.  1.
         25    2    1    2    0    0 -0.12454307544E+02  0.92189835618E+02  0.96919934715E+02  0.18355754889E+03  0.12508327003E+03 0.  0.
          5    1    3    3  502    0 -0.15676288214E+02  0.10822816191E+03  0.11504777151E+03  0.15878458103E+03  0.41800000000E+01 0. -1.
         -5    1    3    3    0  502  0.32219806700E+01 -0.16038326293E+02 -0.18127836798E+02  0.24772967862E+02  0.41800000000E+01 0. -1.
        -11    1    1    2    0    0  0.41323231833E+02 -0.55530884593E+02 -0.57662645482E+02  0.90090339753E+02  0.00000000000E+00 0.  1.
         11    1    1    2    0    0 -0.28868924289E+02 -0.36658951025E+02  0.19019240768E+02  0.50388738814E+02  0.00000000000E+00 0. -1.
</event>
<event>
 7    1  0.3151015E-009  0.8789445E+02  0.7561462E-02  0.1308032E+00
          4   -1    0    0  501    0  0.00000000000E+00  0.00000000000E+00  0.79192888267E+02  0.79192888267E+02  0.00000000000E+00 0.  1.
         -4   -1    0    0    0  501 -0.00000000000E+00 -0.00000000000E+00 -0.15982241003E+03  0.15982241003E+03  0.00000000000E+00 0. -1.
         25    2    1    2    0    0 -0.22503946620E+02  0.42599403966E+01 -0.24672344277E+02  0.12953999213E+03  0.12508920930E+03 0.  0.
          5    1    3    3  502    0 -0.43715785843E+02 -0.23582084531E+02 -0.61097082466E+02  0.78851192309E+02  0.41800000000E+01 0. -1.
         -5    1    3    3    0  502  0.21211839223E+02  0.27842024928E+02  0.36424738189E+02  0.50688799823E+02  0.41800000000E+01 0. -1.
        -11    1    1    2    0    0  0.22370588523E+02 -0.44840676989E+02 -0.45219843748E+02  0.67497880057E+02  0.00000000000E+00 0. -1.
         11    1    1    2    0    0  0.13335809684E+00  0.40580736592E+02 -0.10737333737E+02  0.41977426107E+02  0.00000000000E+00 0.  1.
</event>
<event>
 7    1  0.3151015E-009  0.9198331E+02  0.7561462E-02  0.1298119E+00
          2   -1    0    0  501    0  0.00000000000E+00  0.00000000000E+00  0.17037097957E+03  0.17037097957E+03  0.00000000000E+00 0. -1.
         -2   -1    0    0    0  501 -0.00000000000E+00 -0.00000000000E+00 -0.10121183380E+03  0.10121183380E+03  0.00000000000E+00 0.  1.
         25    2    1    2    0    0  0.90588436671E+01  0.53893486270E+01  0.11386697128E+03  0.16948307116E+03  0.12509083314E+03 0.  0.
          5    1    3    3  502    0 -0.38291877491E+02  0.27222682715E+02  0.34400644983E+01  0.47293221288E+02  0.41800000000E+01 0. -1.
         -5    1    3    3    0  502  0.47350721158E+02 -0.21833334088E+02  0.11042690678E+03  0.12218984987E+03  0.41800000000E+01 0. -1.
        -11    1    1    2    0    0  0.19242792578E+02 -0.37217718310E+02 -0.42150637185E+02  0.59431640037E+02  0.00000000000E+00 0.  1.
         11    1    1    2    0    0 -0.28301636245E+02  0.31828369683E+02 -0.25571883278E+01  0.42668102172E+02  0.00000000000E+00 0. -1.
</event>
<event>
 7    1  0.3151015E-009  0.3011471E+03  0.7561462E-02  0.1084669E+00
         -1   -1    0    0    0  501 -0.00000000000E+00  0.00000000000E+00  0.31155675362E+02  0.31155675362E+02  0.00000000000E+00 0.  1.
          1   -1    0    0  501    0  0.00000000000E+00 -0.00000000000E+00 -0.31668004737E+04  0.31668004737E+04  0.00000000000E+00 0. -1.
         25    2    1    2    0    0 -0.21759570428E+03  0.19745058608E+03 -0.16927597628E+04  0.17226187958E+04  0.12508107941E+03 0.  0.
          5    1    3    3  502    0 -0.39189176682E+02  0.22139640313E+02 -0.92845753657E+02  0.10326549092E+03  0.41800000000E+01 0. -1.
         -5    1    3    3    0  502 -0.17840652760E+03  0.17531094576E+03 -0.15999140092E+04  0.16193533049E+04  0.41800000000E+01 0. -1.
        -11    1    1    2    0    0  0.95465826488E+02 -0.14591780333E+03 -0.87218333836E+03  0.88944336810E+03  0.00000000000E+00 0.  1.
         11    1    1    2    0    0  0.12212987779E+03 -0.51532782742E+02 -0.57070169712E+03  0.58589398515E+03  0.00000000000E+00 0. -1.
</event>
<event>
 7    1  0.3151015E-009  0.9137553E+02  0.7561462E-02  0.1299554E+00
          1   -1    0    0  501    0  0.00000000000E+00  0.00000000000E+00  0.18828671298E+03  0.18828671298E+03  0.00000000000E+00 0. -1.
         -1   -1    0    0    0  501 -0.00000000000E+00 -0.00000000000E+00 -0.78305275454E+02  0.78305275454E+02  0.00000000000E+00 0.  1.
         25    2    1    2    0    0 -0.38139131663E+02  0.25372392921E+02  0.96865840537E+02  0.16470876617E+03  0.12509050686E+03 0.  0.
          5    1    3    3  502    0 -0.39963813094E+02 -0.13878537054E+02 -0.15770600848E+02  0.45342081986E+02  0.41800000000E+01 0.  1.
         -5    1    3    3    0  502  0.18246814305E+01  0.39250929975E+02  0.11263644139E+03  0.11936668419E+03  0.41800000000E+01 0.  1.
        -11    1    1    2    0    0  0.41824054890E+02  0.25982767478E+02  0.10402311307E+02  0.50324584984E+02  0.00000000000E+00 0.  1.
         11    1    1    2    0    0 -0.36849232272E+01 -0.51355160399E+02  0.27132856851E+01  0.51558637279E+02  0.00000000000E+00 0. -1.
</event>
<event>
 7    1  0.3151015E-009  0.1017183E+03  0.7561462E-02  0.1276723E+00
          1   -1    0    0  501    0  0.00000000000E+00  0.00000000000E+00  0.18789526756E+03  0.18789526756E+03  0.00000000000E+00 0. -1.
         -1   -1    0    0    0  501 -0.00000000000E+00 -0.00000000000E+00 -0.84946275533E+02  0.84946275533E+02  0.00000000000E+00 0.  1.
         25    2    1    2    0    0  0.55714626408E+02  0.53057856846E+01  0.88430725229E+02  0.16309237525E+03  0.12508740441E+03 0.  0.
          5    1    3    3  502    0  0.41972033496E+02  0.50704171107E+02  0.94341591637E+02  0.11511026399E+03  0.41800000000E+01 0. -1.
         -5    1    3    3    0  502  0.13742592912E+02 -0.45398385423E+02 -0.59108664083E+01  0.47982111256E+02  0.41800000000E+01 0. -1.
        -11    1    1    2    0    0 -0.35222342639E+02  0.31814976361E+02  0.38429130789E+02  0.61070485793E+02  0.00000000000E+00 0. -1.
         11    1    1    2    0    0 -0.20492283769E+02 -0.37120762045E+02 -0.23910863996E+02  0.48678682048E+02  0.00000000000E+00 0.  1.
</event>
<event>
 7    1  0.3151015E-009  0.1879330E+03  0.7561462E-02  0.1160339E+00
          1   -1    0    0  501    0  0.00000000000E+00  0.00000000000E+00  0.57880693715E+03  0.57880693715E+03  0.00000000000E+00 0. -1.
         -1   -1    0    0    0  501 -0.00000000000E+00 -0.00000000000E+00 -0.95972460290E+02  0.95972460290E+02  0.00000000000E+00 0.  1.
         25    2    1    2    0    0 -0.16645811546E+03 -0.77175586181E+01  0.43040281311E+03  0.47818791149E+03  0.12509689146E+03 0.  0.
          5    1    3    3  502    0 -0.17259881828E+03 -0.28778330793E+02  0.31241277258E+03  0.35810299812E+03  0.41800000000E+01 0. -1.
         -5    1    3    3    0  502  0.61407028135E+01  0.21060772175E+02  0.11799004052E+03  0.12008491337E+03  0.41800000000E+01 0. -1.
        -11    1    1    2    0    0  0.11852557343E+03 -0.24126064321E+02  0.34230598676E+01  0.12100452833E+03  0.00000000000E+00 0.  1.
         11    1    1    2    0    0  0.47932542033E+02  0.31843622939E+02  0.49008603883E+02  0.75586957620E+02  0.00000000000E+00 0. -1.
</event>
<event>
 7    1  0.3151015E-009  0.2032271E+03  0.7561462E-02  0.1147045E+00
         -1   -1    0    0    0  501 -0.00000000000E+00  0.00000000000E+00  0.44084500447E+03  0.44084500447E+03  0.00000000000E+00 0.  1.
          1   -1    0    0  501    0  0.00000000000E+00 -0.00000000000E+00 -0.11240409599E+03  0.11240409599E+03  0.00000000000E+00 0. -1.
         25    2    1    2    0    0  0.82967566552E+02 -0.17273934956E+03  0.13037750349E+03  0.26337942860E+03  0.12509168641E+03 0.  0.
          5    1    3    3  502    0  0.56643666303E+02 -0.15888253232E+03  0.47593432402E+02  0.17531335151E+03  0.41800000000E+01 0.  1.
         -5    1    3    3    0  502  0.26323900248E+02 -0.13856817236E+02  0.82784071090E+02  0.88066077092E+02  0.41800000000E+01 0.  1.
        -11    1    1    2    0    0 -0.42283503586E+02  0.15933313643E+03  0.17786782899E+03  0.24251166494E+03  0.00000000000E+00 0. -1.
         11    1    1    2    0    0 -0.40684062966E+02  0.13406213124E+02  0.20195576002E+02  0.47358006924E+02  0.00000000000E+00 0.  1.
</event>
<event>
 7    1  0.3151015E-009  0.9582159E+02  0.7561462E-02  0.1289336E+00
          1   -1    0    0  501    0  0.00000000000E+00  0.00000000000E+00  0.50952943738E+03  0.50952943738E+03  0.00000000000E+00 0. -1.
         -1   -1    0    0    0  501 -0.00000000000E+00 -0.00000000000E+00 -0.47976407315E+02  0.47976407315E+02  0.00000000000E+00 0.  1.
         25    2    1    2    0    0  0.70419137589E+02  0.11953689642E+02  0.40486134348E+03  0.42972566090E+03  0.12509872324E+03 0.  0.
          5    1    3    3  502    0  0.54668956691E+02 -0.38162447504E+02  0.33827830220E+03  0.34481117929E+03  0.41800000000E+01 0.  1.
         -5    1    3    3    0  502  0.15750180898E+02  0.50116137145E+02  0.66583041279E+02  0.84914481607E+02  0.41800000000E+01 0.  1.
        -11    1    1    2    0    0 -0.27282905610E+02  0.35119334811E+00  0.74636121698E+02  0.79467168928E+02  0.00000000000E+00 0. -1.
         11    1    1    2    0    0 -0.43136231979E+02 -0.12304882990E+02 -0.17944435108E+02  0.48313014873E+02  0.00000000000E+00 0.  1.
</event>
<event>
 7    1  0.3151015E-009  0.9290053E+02  0.7561462E-02  0.1295976E+00
         -1   -1    0    0    0  501 -0.00000000000E+00  0.00000000000E+00  0.27155527605E+03  0.27155527605E+03  0.00000000000E+00 0.  1.
          1   -1    0    0  501    0  0.00000000000E+00 -0.00000000000E+00 -0.51958263790E+02  0.51958263790E+02  0.00000000000E+00 0. -1.
         25    2    1    2    0    0 -0.33962405074E+02 -0.18453638517E+02  0.16323867215E+03  0.20926021115E+03  0.12509592380E+03 0.  0.
          5    1    3    3  502    0 -0.74798691040E+01  0.35640956575E+02  0.13975068580E+03  0.14447820877E+03  0.41800000000E+01 0. -1.
         -5    1    3    3    0  502 -0.26482535970E+02 -0.54094595092E+02  0.23487986355E+02  0.64782002382E+02  0.41800000000E+01 0. -1.
        -11    1    1    2    0    0 -0.18156936082E+02 -0.17686322017E+02  0.42265043059E+02  0.49283000915E+02  0.00000000000E+00 0.  1.
         11    1    1    2    0    0  0.52119341156E+02  0.36139960534E+02  0.14093297050E+02  0.64970327779E+02  0.00000000000E+00 0. -1.
</event>
<event>
 7    1  0.3151015E-009  0.1187330E+03  0.7561462E-02  0.1245202E+00
         -1   -1    0    0    0  501 -0.00000000000E+00  0.00000000000E+00  0.39052126598E+02  0.39052126598E+02  0.00000000000E+00 0.  1.
          1   -1    0    0  501    0  0.00000000000E+00 -0.00000000000E+00 -0.48477284266E+03  0.48477284266E+03  0.00000000000E+00 0. -1.
         25    2    1    2    0    0  0.57709158575E+02 -0.61322715899E+02 -0.24405092216E+03  0.28687713980E+03  0.12508724263E+03 0.  0.
          5    1    3    3  502    0 -0.26872804348E+02 -0.56573840592E+02 -0.13364346695E+03  0.14765092520E+03  0.41800000000E+01 0.  1.
         -5    1    3    3    0  502  0.84581962923E+02 -0.47488753064E+01 -0.11040745521E+03  0.13922621461E+03  0.41800000000E+01 0.  1.
        -11    1    1    2    0    0 -0.49930256440E+02  0.31454443564E+02 -0.37538279625E+02  0.69939509330E+02  0.00000000000E+00 0.  1.
         11    1    1    2    0    0 -0.77789021346E+01  0.29868272335E+02 -0.16413151427E+03  0.16700832012E+03  0.00000000000E+00 0. -1.
</event>
<event>
 7    1  0.3151015E-009  0.9156256E+02  0.7561462E-02  0.1299111E+00
         -1   -1    0    0    0  501 -0.00000000000E+00  0.00000000000E+00  0.10513155446E+03  0.10513155446E+03  0.00000000000E+00 0. -1.
          1   -1    0    0  501    0  0.00000000000E+00 -0.00000000000E+00 -0.14631233888E+03  0.14631233888E+03  0.00000000000E+00 0.  1.
         25    2    1    2    0    0 -0.17060806994E+02  0.57545133814E+02 -0.25483751776E+02  0.14106505111E+03  0.12508962179E+03 0.  0.
          5    1    3    3  502    0 -0.16654462312E+02 -0.19945020466E+02  0.34207348371E+02  0.43160051424E+02  0.41800000000E+01 0. -1.
         -5    1    3    3    0  502 -0.40634468187E+00  0.77490154280E+02 -0.59691100147E+02  0.97904999683E+02  0.41800000000E+01 0. -1.
        -11    1    1    2    0    0  0.30627251040E+02 -0.58042552676E+02  0.22865318778E+02  0.69496685031E+02  0.00000000000E+00 0. -1.
         11    1    1    2    0    0 -0.13566444045E+02  0.49741886266E+00 -0.38562351425E+02  0.40882157196E+02  0.00000000000E+00 0.  1.
</event>
<event>
 7    1  0.3151015E-009  0.1656064E+03  0.7561462E-02  0.1182509E+00
          1   -1    0    0  501    0  0.00000000000E+00  0.00000000000E+00  0.97829708112E+03  0.97829708112E+03  0.00000000000E+00 0. -1.
         -1   -1    0    0    0  501 -0.00000000000E+00 -0.00000000000E+00 -0.45961344770E+02  0.45961344770E+02  0.00000000000E+00 0.  1.
         25    2    1    2    0    0  0.70285983254E+02 -0.13962864863E+03  0.71062176208E+03  0.73828570326E+03  0.12508481896E+03 0.  0.
          5    1    3    3  502    0 -0.65803667855E+01 -0.71541193564E+02  0.12955459703E+03  0.14820023486E+03  0.41800000000E+01 0.  1.
         -5    1    3    3    0  502  0.76866350040E+02 -0.68087455067E+02  0.58106716505E+03  0.59008546839E+03  0.41800000000E+01 0.  1.
        -11    1    1    2    0    0 -0.23745515587E+02  0.40063009544E+02  0.14406151515E+03  0.15140216112E+03  0.00000000000E+00 0. -1.
         11    1    1    2    0    0 -0.46540467667E+02  0.99565639087E+02  0.77652459115E+02  0.13457056151E+03  0.00000000000E+00 0.  1.
</event>
<event>
 7    1  0.3151015E-009  0.9955153E+02  0.7561462E-02  0.1281242E+00
         -2   -1    0    0    0  501 -0.00000000000E+00  0.00000000000E+00  0.35592541835E+02  0.35592541835E+02  0.00000000000E+00 0.  1.
          2   -1    0    0  501    0  0.00000000000E+00 -0.00000000000E+00 -0.59113206855E+03  0.59113206855E+03  0.00000000000E+00 0. -1.
         25    2    1    2    0    0  0.94263540862E+02 -0.12589153168E+02 -0.30742926954E+03  0.34525955812E+03  0.12508918734E+03 0.  0.
          5    1    3    3  502    0  0.15398136359E+02 -0.10840909050E+02  0.74078106934E+01  0.20663396904E+02  0.41800000000E+01 0.  1.
         -5    1    3    3    0  502  0.78865404504E+02 -0.17482441175E+01 -0.31483708023E+03  0.32459616121E+03  0.41800000000E+01 0.  1.
        -11    1    1    2    0    0 -0.30354241502E+02 -0.11584026605E+02 -0.10375701403E+02  0.34106081996E+02  0.00000000000E+00 0.  1.
         11    1    1    2    0    0 -0.63909299361E+02  0.24173179773E+02 -0.23773455577E+03  0.24735897027E+03  0.00000000000E+00 0. -1.
</event>
<event>
 7    1  0.3151015E-009  0.1320845E+03  0.7561462E-02  0.1224395E+00
         -1   -1    0    0    0  501 -0.00000000000E+00  0.00000000000E+00  0.72543518337E+02  0.72543518337E+02  0.00000000000E+00 0.  1.
          1   -1    0    0  501    0  0.00000000000E+00 -0.00000000000E+00 -0.30935346204E+03  0.30935346204E+03  0.00000000000E+00 0. -1.
         25    2    1    2    0    0  0.10333873923E+03  0.39355884121E+01 -0.14216062072E+03  0.21575965218E+03  0.12509277175E+03 0.  0.
          5    1    3    3  502    0  0.91257076384E+02  0.39367626007E+02 -0.40603503738E+02  0.10744198846E+03  0.41800000000E+01 0.  1.
         -5    1    3    3    0  502  0.12081662847E+02 -0.35432037595E+02 -0.10155711698E+03  0.10831766373E+03  0.41800000000E+01 0.  1.
        -11    1    1    2    0    0 -0.92034299580E+02  0.25494690945E+02 -0.41040199466E+02  0.10394512753E+03  0.00000000000E+00 0.  1.
         11    1    1    2    0    0 -0.11304439651E+02 -0.29430279357E+02 -0.53609123515E+02  0.62192200660E+02  0.00000000000E+00 0. -1.
</event>
<event>
 7    1  0.3151015E-009  0.9664467E+02  0.7561462E-02  0.1287514E+00
         -2   -1    0    0    0  501 -0.00000000000E+00  0.00000000000E+00  0.75334759923E+02  0.75334759923E+02  0.00000000000E+00 0.  1.
          2   -1    0    0  501    0  0.00000000000E+00 -0.00000000000E+00 -0.19153256276E+03  0.19153256276E+03  0.00000000000E+00 0. -1.
         25    2    1    2    0    0 -0.29829180405E+02 -0.42455604792E+02 -0.58554399705E+02  0.14754329125E+03  0.12509255248E+03 0.  0.
          5    1    3    3  502    0 -0.32653337934E+02  0.13171811519E+02  0.27554554857E+02  0.44905044152E+02  0.41800000000E+01 0.  1.
         -5    1    3    3    0  502  0.28241575286E+01 -0.55627416311E+02 -0.86108954562E+02  0.10263824710E+03  0.41800000000E+01 0.  1.
        -11    1    1    2    0    0 -0.24982668093E+01  0.63405229561E+02 -0.22934905964E+02  0.67472026680E+02  0.00000000000E+00 0.  1.
         11    1    1    2    0    0  0.32327447215E+02 -0.20949624769E+02 -0.34708497169E+02  0.51852004755E+02  0.00000000000E+00 0. -1.
</event>
<event>
 7    1  0.3151015E-009  0.1285576E+03  0.7561462E-02  0.1229612E+00
          3   -1    0    0  501    0  0.00000000000E+00  0.00000000000E+00  0.10130397691E+03  0.10130397691E+03  0.00000000000E+00 0. -1.
         -3   -1    0    0    0  501 -0.00000000000E+00 -0.00000000000E+00 -0.18232645447E+03  0.18232645447E+03  0.00000000000E+00 0.  1.
         25    2    1    2    0    0 -0.76483407837E+02 -0.45124540457E+01 -0.10603089136E+02  0.14707116784E+03  0.12508968381E+03 0.  0.
          5    1    3    3  502    0 -0.87300639037E+02 -0.49184912495E+02 -0.11207880865E+02  0.10091405347E+03  0.41800000000E+01 0. -1.
         -5    1    3    3    0  502  0.10817231199E+02  0.44672458449E+02  0.60479172944E+00  0.46157114378E+02  0.41800000000E+01 0. -1.
        -11    1    1    2    0    0  0.13251705708E+02  0.37201175991E+02 -0.48630386241E+01  0.39789249100E+02  0.00000000000E+00 0. -1.
         11    1    1    2    0    0  0.63231702130E+02 -0.32688721945E+02 -0.65556349799E+02  0.96770014444E+02  0.00000000000E+00 0.  1.
</event>
<event>
 7    1  0.3151015E-009  0.1693940E+03  0.7561462E-02  0.1178481E+00
         -1   -1    0    0    0  501 -0.00000000000E+00  0.00000000000E+00  0.33483713267E+03  0.33483713267E+03  0.00000000000E+00 0.  1.
          1   -1    0    0  501    0  0.00000000000E+00 -0.00000000000E+00 -0.14070860101E+03  0.14070860101E+03  0.00000000000E+00 0. -1.
         25    2    1    2    0    0 -0.10756326018E+03 -0.93293651415E+02  0.23493772485E+03  0.30185812912E+03  0.12509610396E+03 0.  0.
          5    1    3    3  502    0 -0.47230863162E+02 -0.98514257222E+02  0.80060423584E+02  0.13550998906E+03  0.41800000000E+01 0. -1.
         -5    1    3    3    0  502 -0.60332397022E+02  0.52206058065E+01  0.15487730126E+03  0.16634814006E+03  0.41800000000E+01 0. -1.
        -11    1    1    2    0    0  0.49636698893E+02 -0.97126139368E+01 -0.99396443612E+01  0.51545448649E+02  0.00000000000E+00 0.  1.
         11    1    1    2    0    0  0.57926561292E+02  0.10300626535E+03 -0.30869548825E+02  0.12214215591E+03  0.00000000000E+00 0. -1.
</event>
<event>
 7    1  0.3151015E-009  0.1044048E+03  0.7561462E-02  0.1271297E+00
          2   -1    0    0  501    0  0.00000000000E+00  0.00000000000E+00  0.90513881294E+02  0.90513881294E+02  0.00000000000E+00 0. -1.
         -2   -1    0    0    0  501 -0.00000000000E+00 -0.00000000000E+00 -0.16060286901E+03  0.16060286901E+03  0.00000000000E+00 0.  1.
         25    2    1    2    0    0  0.19123248156E+01 -0.19816236844E+02 -0.87955344955E+02  0.15420719423E+03  0.12508947125E+03 0.  0.
          5    1    3    3  502    0 -0.15572962134E+02  0.45760276109E+02 -0.67638892568E+02  0.83240688410E+02  0.41800000000E+01 0. -1.
         -5    1    3    3    0  502  0.17485286950E+02 -0.65576512953E+02 -0.20316452387E+02  0.70966505820E+02  0.41800000000E+01 0. -1.
        -11    1    1    2    0    0  0.80753304522E+01 -0.35335586646E+02 -0.45766055357E+01  0.36534366886E+02  0.00000000000E+00 0.  1.
         11    1    1    2    0    0 -0.99876552678E+01  0.55151823490E+02  0.22442962770E+02  0.60375189192E+02  0.00000000000E+00 0. -1.
</event>
<event>
 7    1  0.3151015E-009  0.8111595E+02  0.7561462E-02  0.1325914E+00
          1   -1    0    0  501    0  0.00000000000E+00  0.00000000000E+00  0.37417820446E+03  0.37417820446E+03  0.00000000000E+00 0. -1.
         -1   -1    0    0    0  501 -0.00000000000E+00 -0.00000000000E+00 -0.32768239401E+02  0.32768239401E+02  0.00000000000E+00 0.  1.
         25    2    1    2    0    0  0.10636512604E+02 -0.71504506357E+01  0.24009716218E+03  0.27103192661E+03  0.12508954237E+03 0.  0.
          5    1    3    3  502    0  0.23863920820E+02  0.30972102597E+02  0.22393781621E+03  0.22736397205E+03  0.41800000000E+01 0.  1.
         -5    1    3    3    0  502 -0.13227408216E+02 -0.38122553233E+02  0.16159345963E+02  0.43667954556E+02  0.41800000000E+01 0.  1.
        -11    1    1    2    0    0 -0.38365730335E+02  0.28127432006E+02  0.85224921661E+02  0.97603119660E+02  0.00000000000E+00 0. -1.
         11    1    1    2    0    0  0.27729217731E+02 -0.20976981371E+02  0.16087881222E+02  0.38311397594E+02  0.00000000000E+00 0.  1.
</event>
<event>
 7    1  0.3151015E-009  0.1300982E+03  0.7561462E-02  0.1227310E+00
          2   -1    0    0  501    0  0.00000000000E+00  0.00000000000E+00  0.64892462322E+03  0.64892462322E+03  0.00000000000E+00 0. -1.
         -2   -1    0    0    0  501 -0.00000000000E+00 -0.00000000000E+00 -0.34764761950E+02  0.34764761950E+02  0.00000000000E+00 0.  1.
         25    2    1    2    0    0  0.54892200030E+02  0.80941024194E+02  0.41203936964E+03  0.44157726384E+03  0.12509770097E+03 0.  0.
          5    1    3    3  502    0  0.25938646367E+02  0.10232922283E+03  0.19733597215E+03  0.22383708702E+03  0.41800000000E+01 0.  1.
         -5    1    3    3    0  502  0.28953553663E+02 -0.21388198634E+02  0.21470339748E+03  0.21774017682E+03  0.41800000000E+01 0.  1.
        -11    1    1    2    0    0 -0.65777447887E+02 -0.42395235985E+02  0.73355985301E+02  0.10726196560E+03  0.00000000000E+00 0.  1.
         11    1    1    2    0    0  0.10885247857E+02 -0.38545788210E+02  0.12876450633E+03  0.13485015573E+03  0.00000000000E+00 0. -1.
</event>
<event>
 7    1  0.3602159E-009  0.1110699E+03  0.7561462E-02  0.1258601E+00
          3   -1    0    0  501    0  0.00000000000E+00  0.00000000000E+00  0.13401102496E+03  0.13401102496E+03  0.00000000000E+00 0. -1.
         -3   -1    0    0    0  501 -0.00000000000E+00 -0.00000000000E+00 -0.11760209001E+03  0.11760209001E+03  0.00000000000E+00 0.  1.
         25    2    1    2    0    0 -0.13170041222E+02 -0.54010732157E+02 -0.20217625302E+02  0.13842492198E+03  0.12514830193E+03 0.  0.
          5    1    3    3  502    0 -0.89149773807E+01 -0.90902439308E+02 -0.35454288258E+02  0.98067370974E+02  0.41800000000E+01 0.  1.
         -5    1    3    3    0  502 -0.42550638415E+01  0.36891707151E+02  0.15236662956E+02  0.40357551001E+02  0.41800000000E+01 0.  1.
        -11    1    1    2    0    0  0.28488800711E+02 -0.78944847187E+01  0.39516107292E+02  0.49350353499E+02  0.00000000000E+00 0.  1.
         11    1    1    2    0    0 -0.15318759488E+02  0.61905216876E+02 -0.28895470408E+01  0.63837839491E+02  0.00000000000E+00 0. -1.
</event>
<event>
 7    1  0.3151015E-009  0.1821782E+03  0.7561462E-02  0.1165711E+00
         -2   -1    0    0    0  501 -0.00000000000E+00  0.00000000000E+00  0.49608984899E+02  0.49608984899E+02  0.00000000000E+00 0.  1.
          2   -1    0    0  501    0  0.00000000000E+00 -0.00000000000E+00 -0.83773112794E+03  0.83773112794E+03  0.00000000000E+00 0. -1.
         25    2    1    2    0    0 -0.60351434357E+02  0.14385399633E+03 -0.25237982258E+03  0.32200006928E+03  0.12510876020E+03 0.  0.
          5    1    3    3  502    0  0.89796920935E+00 -0.13907064778E+02  0.37105124501E+01  0.15015095807E+02  0.41800000000E+01 0. -1.
         -5    1    3    3    0  502 -0.61249403567E+02  0.15776106111E+03 -0.25609033503E+03  0.30698497347E+03  0.41800000000E+01 0. -1.
        -11    1    1    2    0    0 -0.20109467216E+02 -0.61410000221E+01 -0.61211793296E+02  0.64722377827E+02  0.00000000000E+00 0. -1.
         11    1    1    2    0    0  0.80460901574E+02 -0.13771299631E+03 -0.47453052716E+03  0.50061766573E+03  0.00000000000E+00 0.  1.
</event>
<event>
 7    1  0.3151015E-009  0.2236531E+03  0.7561462E-02  0.1131188E+00
          2   -1    0    0  501    0  0.00000000000E+00  0.00000000000E+00  0.89400551953E+03  0.89400551953E+03  0.00000000000E+00 0. -1.
         -2   -1    0    0    0  501 -0.00000000000E+00 -0.00000000000E+00 -0.80218252694E+02  0.80218252694E+02  0.00000000000E+00 0.  1.
         25    2    1    2    0    0  0.93232528479E+02  0.18813053594E+03  0.64541882017E+03  0.69014379633E+03  0.12509038040E+03 0.  0.
          5    1    3    3  502    0  0.25479449636E+02  0.89666040883E+01  0.24202160794E+03  0.24356012287E+03  0.41800000000E+01 0. -1.
         -5    1    3    3    0  502  0.67753078843E+02  0.17916393185E+03  0.40339721223E+03  0.44658367347E+03  0.41800000000E+01 0. -1.
        -11    1    1    2    0    0 -0.61041753772E+01 -0.11348694327E+03  0.92468464148E+02  0.14651608824E+03  0.00000000000E+00 0.  1.
         11    1    1    2    0    0 -0.87128353102E+02 -0.74643592667E+02  0.75899982523E+02  0.13756388766E+03  0.00000000000E+00 0. -1.
</event>
<event>
 7    1  0.3151015E-009  0.2034595E+03  0.7561462E-02  0.1146853E+00
         -2   -1    0    0    0  501 -0.00000000000E+00  0.00000000000E+00  0.60677981991E+02  0.60677981991E+02  0.00000000000E+00 0.  1.
          2   -1    0    0  501    0  0.00000000000E+00 -0.00000000000E+00 -0.83456053849E+03  0.83456053849E+03  0.00000000000E+00 0. -1.
         25    2    1    2    0    0 -0.18981241431E+03  0.46032475539E+02 -0.32773012240E+03  0.40149953281E+03  0.12508836991E+03 0.  0.
          5    1    3    3  502    0 -0.54808687559E+02  0.14394605142E+02 -0.21607961513E+03  0.22342575806E+03  0.41800000000E+01 0. -1.
         -5    1    3    3    0  502 -0.13500372675E+03  0.31637870396E+02 -0.11165050727E+03  0.17807377475E+03  0.41800000000E+01 0. -1.
        -11    1    1    2    0    0  0.10686133310E+03  0.15651199988E+02 -0.21991352729E+03  0.24500257970E+03  0.00000000000E+00 0. -1.
         11    1    1    2    0    0  0.82951081203E+02 -0.61683675527E+02 -0.22623890681E+03  0.24873640797E+03  0.00000000000E+00 0.  1.
</event>
<event>
 7    1  0.3151015E-009  0.1126280E+03  0.7561462E-02  0.1255779E+00
          1   -1    0    0  501    0  0.00000000000E+00  0.00000000000E+00  0.46121854309E+02  0.46121854309E+02  0.00000000000E+00 0. -1.
         -1   -1    0    0    0  501 -0.00000000000E+00 -0.00000000000E+00 -0.35411509981E+03  0.35411509981E+03  0.00000000000E+00 0.  1.
         25    2    1    2    0    0 -0.62149941007E+02  0.39570068681E+02 -0.18451131808E+03  0.23477491034E+03  0.12508567672E+03 0.  0.
          5    1    3    3  502    0  0.10203889684E+02  0.66815464309E+02 -0.88303964428E+02  0.11128112225E+03  0.41800000000E+01 0. -1.
         -5    1    3    3    0  502 -0.72353830691E+02 -0.27245395629E+02 -0.96207353656E+02  0.12349378809E+03  0.41800000000E+01 0. -1.
        -11    1    1    2    0    0  0.23092593353E+02  0.18660058053E+01 -0.10200698629E+03  0.10460485217E+03  0.00000000000E+00 0.  1.
         11    1    1    2    0    0  0.39057347654E+02 -0.41436074486E+02 -0.21474941129E+02  0.60857191614E+02  0.00000000000E+00 0. -1.
</event>
<event>
 7    1  0.3151015E-009  0.1113873E+03  0.7561462E-02  0.1258022E+00
         -2   -1    0    0    0  501 -0.00000000000E+00  0.00000000000E+00  0.50874808330E+02  0.50874808330E+02  0.00000000000E+00 0.  1.
          2   -1    0    0  501    0  0.00000000000E+00 -0.00000000000E+00 -0.26388826647E+03  0.26388826647E+03  0.00000000000E+00 0. -1.
         25    2    1    2    0    0  0.26445998471E+02  0.26967136984E+02 -0.14294750821E+03  0.19366999596E+03  0.12508980742E+03 0.  0.
          5    1    3    3  502    0  0.73671672282E+02  0.18988009204E+02 -0.11532627306E+03  0.13822330284E+03  0.41800000000E+01 0.  1.
         -5    1    3    3    0  502 -0.47225673811E+02  0.79791277797E+01 -0.27621235155E+02  0.55446693125E+02  0.41800000000E+01 0.  1.
        -11    1    1    2    0    0 -0.53745204665E+02  0.77904122176E+01 -0.42980693954E+02  0.69257328852E+02  0.00000000000E+00 0.  1.
         11    1    1    2    0    0  0.27299206193E+02 -0.34757549201E+02 -0.27085255976E+02  0.51835749985E+02  0.00000000000E+00 0. -1.
</event>
<event>
 7    1  0.3151015E-009  0.1589256E+03  0.7561462E-02  0.1189915E+00
         -2   -1    0    0    0  501 -0.00000000000E+00  0.00000000000E+00  0.70208077438E+02  0.70208077438E+02  0.00000000000E+00 0. -1.
          2   -1    0    0  501    0  0.00000000000E+00 -0.00000000000E+00 -0.43733887950E+03  0.43733887950E+03  0.00000000000E+00 0.  1.
         25    2    1    2    0    0  0.11611913833E+03 -0.71022196502E+02 -0.17682968419E+03  0.25581988249E+03  0.12508904182E+03 0.  0.
          5    1    3    3  502    0  0.14340009276E+02 -0.47233499629E+02  0.95018258920E+00  0.49548103901E+02  0.41800000000E+01 0. -1.
         -5    1    3    3    0  502  0.10177912905E+03 -0.23788696874E+02 -0.17777986678E+03  0.20627177859E+03  0.41800000000E+01 0. -1.
        -11    1    1    2    0    0 -0.30414855645E+02  0.71824016619E+02 -0.76408416640E+02  0.10918790657E+03  0.00000000000E+00 0. -1.
         11    1    1    2    0    0 -0.85704282686E+02 -0.80182011697E+00 -0.11389270123E+03  0.14253916788E+03  0.00000000000E+00 0.  1.
</event>
<event>
 7    1  0.3151015E-009  0.1062580E+03  0.7561462E-02  0.1267661E+00
         -1   -1    0    0    0  501 -0.00000000000E+00  0.00000000000E+00  0.10443235140E+03  0.10443235140E+03  0.00000000000E+00 0.  1.
          1   -1    0    0  501    0  0.00000000000E+00 -0.00000000000E+00 -0.15876351649E+03  0.15876351649E+03  0.00000000000E+00 0. -1.
         25    2    1    2    0    0 -0.17007822222E+02 -0.65025726777E+02 -0.22263207444E+02  0.14373662578E+03  0.12508779327E+03 0.  0.
          5    1    3    3  502    0  0.15981101041E+00  0.34876777644E+02 -0.23523517170E+02  0.42275801807E+02  0.41800000000E+01 0.  1.
         -5    1    3    3    0  502 -0.17167633232E+02 -0.99902504421E+02  0.12603097259E+01  0.10146082397E+03  0.41800000000E+01 0.  1.
        -11    1    1    2    0    0  0.58162232168E+00  0.58111261753E+02 -0.61776432452E+02  0.84815002408E+02  0.00000000000E+00 0. -1.
         11    1    1    2    0    0  0.16426199900E+02  0.69144650238E+01  0.29708474799E+02  0.34644239703E+02  0.00000000000E+00 0.  1.
</event>
<event>
 7    1  0.3151015E-009  0.1164347E+03  0.7561462E-02  0.1249097E+00
         -2   -1    0    0    0  501 -0.00000000000E+00  0.00000000000E+00  0.29093477584E+03  0.29093477584E+03  0.00000000000E+00 0.  1.
          2   -1    0    0  501    0  0.00000000000E+00 -0.00000000000E+00 -0.52408526938E+02  0.52408526938E+02  0.00000000000E+00 0. -1.
         25    2    1    2    0    0  0.38818136664E+02  0.45176306448E+02  0.13200123347E+03  0.19136262252E+03  0.12509029243E+03 0.  0.
          5    1    3    3  502    0  0.61463484257E+01  0.78218158335E+02  0.39905749156E+02  0.88123771526E+02  0.41800000000E+01 0.  1.
         -5    1    3    3    0  502  0.32671788238E+02 -0.33041851887E+02  0.92095484314E+02  0.10323885099E+03  0.41800000000E+01 0.  1.
        -11    1    1    2    0    0 -0.64868438370E+02 -0.49025795054E+02  0.87808635369E+02  0.11967372027E+03  0.00000000000E+00 0.  1.
         11    1    1    2    0    0  0.26050301706E+02  0.38494886056E+01  0.18716380069E+02  0.32306959999E+02  0.00000000000E+00 0. -1.
</event>
<event>
 7    1  0.3151015E-009  0.1011134E+03  0.7561462E-02  0.1277972E+00
         -3   -1    0    0    0  501 -0.00000000000E+00  0.00000000000E+00  0.65715493796E+02  0.65715493796E+02  0.00000000000E+00 0.  1.
          3   -1    0    0  501    0  0.00000000000E+00 -0.00000000000E+00 -0.30039610748E+03  0.30039610748E+03  0.00000000000E+00 0. -1.
         25    2    1    2    0    0 -0.72825809442E+02  0.14018692673E+02 -0.62950952501E+02  0.15845915653E+03  0.12508540922E+03 0.  0.
          5    1    3    3  502    0 -0.66116003667E+02 -0.30051010225E+02  0.94256749372E+01  0.73353288300E+02  0.41800000000E+01 0. -1.
         -5    1    3    3    0  502 -0.67098057754E+01  0.44069702898E+02 -0.72376627438E+02  0.85105868226E+02  0.41800000000E+01 0. -1.
        -11    1    1    2    0    0  0.85601971650E+01 -0.18399889120E+02  0.38269981250E+01  0.20651363388E+02  0.00000000000E+00 0.  1.
         11    1    1    2    0    0  0.64265612277E+02  0.43811964468E+01 -0.17555665931E+03  0.18700108137E+03  0.00000000000E+00 0. -1.
</event>
<event>
 7    1  0.3151015E-009  0.1250270E+03  0.7561462E-02  0.1235027E+00
          1   -1    0    0  501    0  0.00000000000E+00  0.00000000000E+00  0.64397815461E+03  0.64397815461E+03  0.00000000000E+00 0. -1.
         -1   -1    0    0    0  501 -0.00000000000E+00 -0.00000000000E+00 -0.28594180417E+02  0.28594180417E+02  0.00000000000E+00 0.  1.
         25    2    1    2    0    0  0.79135286066E+02  0.18531246382E+02  0.32267895554E+03  0.35549326069E+03  0.12509176413E+03 0.  0.
          5    1    3    3  502    0  0.61829051319E+02 -0.36922933324E+02  0.88471034096E+02  0.11415222672E+03  0.41800000000E+01 0.  1.
         -5    1    3    3    0  502  0.17306234747E+02  0.55454179706E+02  0.23420792144E+03  0.24134103396E+03  0.41800000000E+01 0.  1.
        -11    1    1    2    0    0 -0.88871703297E+02  0.10091071044E+02  0.24255785292E+03  0.25852334783E+03  0.00000000000E+00 0. -1.
         11    1    1    2    0    0  0.97364172308E+01 -0.28622317426E+02  0.50147165733E+02  0.58555726504E+02  0.00000000000E+00 0.  1.
</event>
<event>
 7    1  0.3151015E-009  0.1114531E+03  0.7561462E-02  0.1257902E+00
          2   -1    0    0  501    0  0.00000000000E+00  0.00000000000E+00  0.66949528785E+03  0.66949528785E+03  0.00000000000E+00 0. -1.
         -2   -1    0    0    0  501 -0.00000000000E+00 -0.00000000000E+00 -0.31705556392E+02  0.31705556392E+02  0.00000000000E+00 0.  1.
         25    2    1    2    0    0  0.67098911705E+02 -0.62522145158E+02  0.27041286518E+03  0.31173953952E+03  0.12508852968E+03 0.  0.
          5    1    3    3  502    0  0.50292901914E+02 -0.10289177852E+02  0.24635511656E+03  0.25168146340E+03  0.41800000000E+01 0. -1.
         -5    1    3    3    0  502  0.16806009791E+02 -0.52232967306E+02  0.24057748625E+02  0.60058076123E+02  0.41800000000E+01 0. -1.
        -11    1    1    2    0    0 -0.85665476358E+01  0.56933201358E+02  0.97298257727E+02  0.11305629621E+03  0.00000000000E+00 0.  1.
         11    1    1    2    0    0 -0.58532364069E+02  0.55889437996E+01  0.27007860854E+03  0.27640500851E+03  0.00000000000E+00 0. -1.
</event>
<event>
 7    1  0.3151015E-009  0.1398969E+03  0.7561462E-02  0.1213468E+00
         -2   -1    0    0    0  501 -0.00000000000E+00  0.00000000000E+00  0.54088267637E+02  0.54088267637E+02  0.00000000000E+00 0.  1.
          2   -1    0    0  501    0  0.00000000000E+00 -0.00000000000E+00 -0.47910419946E+03  0.47910419946E+03  0.00000000000E+00 0. -1.
         25    2    1    2    0    0 -0.76642954921E+02  0.21435152341E+02 -0.18971714816E+03  0.24077406461E+03  0.12508375429E+03 0.  0.
          5    1    3    3  502    0  0.55815279316E+01  0.22791885753E+02 -0.14524985911E+03  0.14719245049E+03  0.41800000000E+01 0. -1.
         -5    1    3    3    0  502 -0.82224482852E+02 -0.13567334125E+01 -0.44467289055E+02  0.93581614123E+02  0.41800000000E+01 0. -1.
        -11    1    1    2    0    0 -0.36595765267E+02 -0.44949417844E+02 -0.78381391779E+02  0.97485090025E+02  0.00000000000E+00 0. -1.
         11    1    1    2    0    0  0.11323872019E+03  0.23514265503E+02 -0.15691739188E+03  0.19493331246E+03  0.00000000000E+00 0.  1.
</event>
<event>
 7    1  0.3151015E-009  0.1165368E+03  0.7561462E-02  0.1248922E+00
         -2   -1    0    0    0  501 -0.00000000000E+00  0.00000000000E+00  0.21266221646E+02  0.21266221646E+02  0.00000000000E+00 0. -1.
          2   -1    0    0  501    0  0.00000000000E+00 -0.00000000000E+00 -0.91075487824E+03  0.91075487824E+03  0.00000000000E+00 0.  1.
         25    2    1    2    0    0 -0.66200743077E+02  0.55062057174E+02 -0.44904578830E+03  0.47403019612E+03  0.12509251904E+03 0.  0.
          5    1    3    3  502    0 -0.68807579536E+02  0.79225645246E+02 -0.22130675783E+03  0.24495987289E+03  0.41800000000E+01 0.  1.
         -5    1    3    3    0  502  0.26068364591E+01 -0.24163588072E+02 -0.22773903047E+03  0.22907032322E+03  0.41800000000E+01 0.  1.
        -11    1    1    2    0    0 -0.10062045039E+02 -0.12545061984E+02 -0.10349603725E+02  0.19124268034E+02  0.00000000000E+00 0. -1.
         11    1    1    2    0    0  0.76262788116E+02 -0.42516995190E+02 -0.43009326457E+03  0.43886663573E+03  0.00000000000E+00 0.  1.
</event>
<event>
 7    1  0.3151015E-009  0.1277790E+03  0.7561462E-02  0.1230789E+00
         -1   -1    0    0    0  501 -0.00000000000E+00  0.00000000000E+00  0.25093780649E+03  0.25093780649E+03  0.00000000000E+00 0.  1.
          1   -1    0    0  501    0  0.00000000000E+00 -0.00000000000E+00 -0.17836866804E+03  0.17836866804E+03  0.00000000000E+00 0. -1.
         25    2    1    2    0    0  0.92068495601E+02 -0.10391287281E+02  0.19563461853E+03  0.25000961566E+03  0.12508923702E+03 0.  0.
          5    1    3    3  502    0 -0.16426265165E+02 -0.13278885814E+02  0.10891571281E+03  0.11102367267E+03  0.41800000000E+01 0. -1.
         -5    1    3    3    0  502  0.10849476077E+03  0.28875985331E+01  0.86718905725E+02  0.13898594299E+03  0.41800000000E+01 0. -1.
        -11    1    1    2    0    0 -0.26873782836E+02  0.44385575830E+02 -0.75911148551E+02  0.91949888635E+02  0.00000000000E+00 0. -1.
         11    1    1    2    0    0 -0.65194712765E+02 -0.33994288549E+02 -0.47154331539E+02  0.87346970236E+02  0.00000000000E+00 0.  1.
</event>
<event>
 7    1  0.3151015E-009  0.2196818E+03  0.7561462E-02  0.1134120E+00
          1   -1    0    0  501    0  0.00000000000E+00  0.00000000000E+00  0.24166118913E+03  0.24166118913E+03  0.00000000000E+00 0. -1.
         -1   -1    0    0    0  501 -0.00000000000E+00 -0.00000000000E+00 -0.28507747865E+03  0.28507747865E+03  0.00000000000E+00 0.  1.
         25    2    1    2    0    0  0.11294014307E+03  0.18524106886E+03  0.77770696618E+02  0.26223044406E+03  0.12508714974E+03 0.  0.
          5    1    3    3  502    0  0.73409503349E+02  0.12549075858E+03 -0.13561411762E+02  0.14607624708E+03  0.41800000000E+01 0.  1.
         -5    1    3    3    0  502  0.39530639725E+02  0.59750310278E+02  0.91332108381E+02  0.11615419698E+03  0.41800000000E+01 0.  1.
        -11    1    1    2    0    0 -0.72225333041E+02 -0.15635950887E+03 -0.53397084021E+02  0.18032205448E+03  0.00000000000E+00 0. -1.
         11    1    1    2    0    0 -0.40714810033E+02 -0.28881559987E+02 -0.67789902117E+02  0.84186169246E+02  0.00000000000E+00 0.  1.
</event>
<event>
 6    1  0.3151015E-009  0.1359485E+03  0.7561462E-02  0.1218887E+00
         -1   -1    0    0    0  501 -0.00000000000E+00  0.00000000000E+00  0.74134771657E+02  0.74134771657E+02  0.00000000000E+00 0.  1.
          1   -1    0    0  501    0  0.00000000000E+00 -0.00000000000E+00 -0.34999572011E+03  0.34999572011E+03  0.00000000000E+00 0. -1.
          5    1    1    2  502    0  0.10985466974E+03  0.45281108415E+02 -0.22348791459E+03  0.25314570431E+03  0.41800000000E+01 0.  1.
         -5    1    1    2    0  502 -0.25508277980E+02  0.86761451215E+01 -0.80015814568E+01  0.28415584553E+02  0.41800000000E+01 0.  1.
        -11    1    1    2    0    0 -0.77390946907E+01 -0.48305282503E+02 -0.43932782393E+02  0.65752439294E+02  0.00000000000E+00 0. -1.
         11    1    1    2    0    0 -0.76607297067E+02 -0.56519710335E+01 -0.43867001517E+00  0.76816763612E+02  0.00000000000E+00 0.  1.
</event>
<event>
 7    1  0.3151015E-009  0.1671340E+03  0.7561462E-02  0.1180870E+00
         -1   -1    0    0    0  501 -0.00000000000E+00  0.00000000000E+00  0.10164943230E+04  0.10164943230E+04  0.00000000000E+00 0.  1.
          1   -1    0    0  501    0  0.00000000000E+00 -0.00000000000E+00 -0.34458855077E+02  0.34458855077E+02  0.00000000000E+00 0. -1.
         25    2    1    2    0    0  0.53790822693E+02 -0.13051992692E+03  0.66522148504E+03  0.69144517587E+03  0.12509157901E+03 0.  0.
          5    1    3    3  502    0  0.24757201521E+02  0.70542607028E+01  0.28233443238E+03  0.28353639225E+03  0.41800000000E+01 0. -1.
         -5    1    3    3    0  502  0.29033621172E+02 -0.13757418762E+03  0.38288705266E+03  0.40790878362E+03  0.41800000000E+01 0. -1.
        -11    1    1    2    0    0 -0.79123218260E+02  0.91097716106E+02  0.25337477563E+03  0.28063865463E+03  0.00000000000E+00 0.  1.
         11    1    1    2    0    0  0.25332395567E+02  0.39422210812E+02  0.63439207238E+02  0.78869347565E+02  0.00000000000E+00 0. -1.
</event>
<event>
 7    1  0.3151015E-009  0.1683171E+03  0.7561462E-02  0.1179614E+00
          3   -1    0    0  501    0  0.00000000000E+00  0.00000000000E+00  0.75866291354E+02  0.75866291354E+02  0.00000000000E+00 0. -1.
         -3   -1    0    0    0  501 -0.00000000000E+00 -0.00000000000E+00 -0.41674683254E+03  0.41674683254E+03  0.00000000000E+00 0.  1.
         25    2    1    2    0    0  0.50145254974E+02 -0.13129998775E+03 -0.18180023485E+03  0.26166429546E+03  0.12515048842E+03 0.  0.
          5    1    3    3  502    0  0.46024667955E+02 -0.81636465574E+00 -0.12588317324E+02  0.47904849908E+02  0.41800000000E+01 0. -1.
         -5    1    3    3    0  502  0.41205870192E+01 -0.13048362309E+03 -0.16921191753E+03  0.21375944556E+03  0.41800000000E+01 0. -1.
        -11    1    1    2    0    0  0.10691713521E+02  0.78554812621E+02 -0.44523744811E+02  0.90925987352E+02  0.00000000000E+00 0. -1.
         11    1    1    2    0    0 -0.60836968495E+02  0.52745175126E+02 -0.11455656153E+03  0.14002284108E+03  0.00000000000E+00 0.  1.
</event>
<event>
 7    1  0.3151015E-009  0.6803843E+02  0.7561462E-02  0.1366893E+00
         -2   -1    0    0    0  501 -0.00000000000E+00  0.00000000000E+00  0.10070286961E+03  0.10070286961E+03  0.00000000000E+00 0.  1.
          2   -1    0    0  501    0  0.00000000000E+00 -0.00000000000E+00 -0.13254022302E+03  0.13254022302E+03  0.00000000000E+00 0. -1.
         25    2    1    2    0    0  0.22492208231E+02  0.27540193291E+02 -0.67484989898E+01  0.13022110386E+03  0.12509049514E+03 0.  0.
          5    1    3    3  502    0  0.42371134852E+02 -0.70856326303E+01 -0.53407911740E+02  0.68668746128E+02  0.41800000000E+01 0. -1.
         -5    1    3    3    0  502 -0.19878926621E+02  0.34625825921E+02  0.46659412750E+02  0.61552357733E+02  0.41800000000E+01 0. -1.
        -11    1    1    2    0    0 -0.18896982566E+02 -0.37602914074E+02  0.26899679005E+02  0.49946649813E+02  0.00000000000E+00 0.  1.
         11    1    1    2    0    0 -0.35952256653E+01  0.10062720784E+02 -0.51988533426E+02  0.53075338952E+02  0.00000000000E+00 0. -1.
</event>
<event>
 7    1  0.3203544E-009  0.8596564E+02  0.7561462E-02  0.1312926E+00
         -2   -1    0    0    0  501 -0.00000000000E+00  0.00000000000E+00  0.38690324761E+02  0.38690324761E+02  0.00000000000E+00 0.  1.
          2   -1    0    0  501    0  0.00000000000E+00 -0.00000000000E+00 -0.34050742054E+03  0.34050742054E+03  0.00000000000E+00 0. -1.
         25    2    1    2    0    0 -0.22382878058E+02 -0.23829222668E+01 -0.12010400693E+03  0.17487006764E+03  0.12509155257E+03 0.  0.
          5    1    3    3  502    0  0.33551959605E+02  0.42828946325E+02 -0.44227209710E+02  0.70239384360E+02  0.41800000000E+01 0.  1.
         -5    1    3    3    0  502 -0.55934837662E+02 -0.45211868591E+02 -0.75876797224E+02  0.10463068328E+03  0.41800000000E+01 0.  1.
        -11    1    1    2    0    0 -0.11279194118E+02  0.29331047036E+01  0.63519877464E+01  0.13272945095E+02  0.00000000000E+00 0.  1.
         11    1    1    2    0    0  0.33662072176E+02 -0.55018243682E+00 -0.18806507659E+03  0.19105473257E+03  0.00000000000E+00 0. -1.
</event>
<event>
 7    1  0.3151015E-009  0.2111925E+03  0.7561462E-02  0.1140625E+00
         -2   -1    0    0    0  501 -0.00000000000E+00  0.00000000000E+00  0.12334155474E+03  0.12334155474E+03  0.00000000000E+00 0.  1.
          2   -1    0    0  501    0  0.00000000000E+00 -0.00000000000E+00 -0.46206586671E+03  0.46206586671E+03  0.00000000000E+00 0. -1.
         25    2    1    2    0    0 -0.19429483412E+03  0.17826818956E+02 -0.27719581657E+03  0.36132183520E+03  0.12509064645E+03 0.  0.
          5    1    3    3  502    0 -0.15937844145E+03  0.61622720531E+02 -0.23719987006E+03  0.29236979673E+03  0.41800000000E+01 0.  1.
         -5    1    3    3    0  502 -0.34916392665E+02 -0.43795901575E+02 -0.39995946513E+02  0.68952038469E+02  0.41800000000E+01 0.  1.
        -11    1    1    2    0    0  0.47569254676E+02 -0.79879472288E+01 -0.60049230939E+02  0.77023057767E+02  0.00000000000E+00 0. -1.
         11    1    1    2    0    0  0.14672557944E+03 -0.98388717272E+01 -0.14792644594E+01  0.14706252848E+03  0.00000000000E+00 0.  1.
</event>
<event>
 7    1  0.3151015E-009  0.1013900E+03  0.7561462E-02  0.1277400E+00
         -1   -1    0    0    0  501 -0.00000000000E+00  0.00000000000E+00  0.25286235244E+03  0.25286235244E+03  0.00000000000E+00 0.  1.
          1   -1    0    0  501    0  0.00000000000E+00 -0.00000000000E+00 -0.98563023615E+02  0.98563023615E+02  0.00000000000E+00 0. -1.
         25    2    1    2    0    0  0.31840896285E+02 -0.65922579136E+02  0.17846549846E+03  0.22991243486E+03  0.12510061728E+03 0.  0.
          5    1    3    3  502    0  0.41985160027E+02 -0.46841158676E+02  0.19333229872E+03  0.20335116901E+03  0.41800000000E+01 0. -1.
         -5    1    3    3    0  502 -0.10144263743E+02 -0.19081420460E+02 -0.14866800257E+02  0.26561265850E+02  0.41800000000E+01 0. -1.
        -11    1    1    2    0    0 -0.61526659197E+02  0.23311540823E+02 -0.43841994430E+01  0.65940722867E+02  0.00000000000E+00 0. -1.
         11    1    1    2    0    0  0.29685762912E+02  0.42611038313E+02 -0.19781970192E+02  0.55572218333E+02  0.00000000000E+00 0.  1.
</event>
<event>
 7    1  0.3151015E-009  0.2249270E+03  0.7561462E-02  0.1130262E+00
         -2   -1    0    0    0  501 -0.00000000000E+00  0.00000000000E+00  0.37623943473E+03  0.37623943473E+03  0.00000000000E+00 0.  1.
          2   -1    0    0  501    0  0.00000000000E+00 -0.00000000000E+00 -0.16602264864E+03  0.16602264864E+03  0.00000000000E+00 0. -1.
         25    2    1    2    0    0  0.22200539074E+03 -0.34703798377E+02  0.87634992768E+02  0.27169494425E+03  0.12508998215E+03 0.  0.
          5    1    3    3  502    0  0.77421428978E+02 -0.16834177564E+02  0.97398727512E+02  0.12562424814E+03  0.41800000000E+01 0. -1.
         -5    1    3    3    0  502  0.14458396177E+03 -0.17869620813E+02 -0.97637347437E+01  0.14607069612E+03  0.41800000000E+01 0. -1.
        -11    1    1    2    0    0 -0.30016554387E+02  0.27883468180E+01  0.58247525038E+02  0.65586146314E+02  0.00000000000E+00 0.  1.
         11    1    1    2    0    0 -0.19198883636E+03  0.31915451559E+02  0.64334268291E+02  0.20498099280E+03  0.00000000000E+00 0. -1.
</event>
<event>
 7    1  0.3151015E-009  0.1023596E+03  0.7561462E-02  0.1275411E+00
          3   -1    0    0  501    0  0.00000000000E+00  0.00000000000E+00  0.34817545737E+02  0.34817545737E+02  0.00000000000E+00 0. -1.
         -3   -1    0    0    0  501 -0.00000000000E+00 -0.00000000000E+00 -0.79558955676E+03  0.79558955676E+03  0.00000000000E+00 0.  1.
         25    2    1    2    0    0 -0.57482972238E+02  0.35557418869E+02 -0.67213681594E+03  0.68701208357E+03  0.12509628887E+03 0.  0.
          5    1    3    3  502    0  0.31056994769E+01 -0.37085433181E+02 -0.94214401686E+02  0.10138441995E+03  0.41800000000E+01 0.  1.
         -5    1    3    3    0  502 -0.60588671715E+02  0.72642852051E+02 -0.57792241426E+03  0.58562766362E+03  0.41800000000E+01 0.  1.
        -11    1    1    2    0    0  0.41917174030E+02 -0.38298291641E+02 -0.35882089565E+01  0.56891861147E+02  0.00000000000E+00 0. -1.
         11    1    1    2    0    0  0.15565798208E+02  0.27408727715E+01 -0.85046986123E+02  0.86503157780E+02  0.00000000000E+00 0.  1.
</event>
<event>
 7    1  0.3151015E-009  0.8946548E+02  0.7561462E-02  0.1304151E+00
          1   -1    0    0  501    0  0.00000000000E+00  0.00000000000E+00  0.77905722236E+03  0.77905722236E+03  0.00000000000E+00 0. -1.
         -1   -1    0    0    0  501 -0.00000000000E+00 -0.00000000000E+00 -0.18271649396E+02  0.18271649396E+02  0.00000000000E+00 0.  1.
         25    2    1    2    0    0 -0.48922970011E+02 -0.12118556644E+02  0.36504656358E+03  0.38915992377E+03  0.12508451655E+03 0.  0.
          5    1    3    3  502    0  0.10571975012E+02 -0.16023967144E+02  0.30068456896E+03  0.30132576490E+03  0.41800000000E+01 0. -1.
         -5    1    3    3    0  502 -0.59494945022E+02  0.39054105001E+01  0.64361994612E+02  0.87834158872E+02  0.41800000000E+01 0. -1.
        -11    1    1    2    0    0 -0.13298771232E+02  0.31624553910E+02  0.15533372594E+03  0.15907713896E+03  0.00000000000E+00 0.  1.
         11    1    1    2    0    0  0.62221741243E+02 -0.19505997266E+02  0.24040528345E+03  0.24909180903E+03  0.00000000000E+00 0. -1.
</event>
<event>
 7    1  0.3151015E-009  0.6672821E+02  0.7561462E-02  0.1371586E+00
          1   -1    0    0  501    0  0.00000000000E+00  0.00000000000E+00  0.13872907711E+03  0.13872907711E+03  0.00000000000E+00 0. -1.
         -1   -1    0    0    0  501 -0.00000000000E+00 -0.00000000000E+00 -0.16052473631E+03  0.16052473631E+03  0.00000000000E+00 0.  1.
         25    2    1    2    0    0  0.13726137318E+02 -0.25952446341E+02 -0.10955041315E+03  0.16885778099E+03  0.12509884438E+03 0.  0.
          5    1    3    3  502    0  0.10581689766E+02 -0.51756278814E+02 -0.12676862962E+03  0.13739884428E+03  0.41800000000E+01 0.  1.
         -5    1    3    3    0  502  0.31444475528E+01  0.25803832473E+02  0.17218216468E+02  0.31458936712E+02  0.41800000000E+01 0.  1.
        -11    1    1    2    0    0 -0.30257854311E+02  0.12174507861E+02  0.10031120326E+03  0.10548030095E+03  0.00000000000E+00 0.  1.
         11    1    1    2    0    0  0.16531716992E+02  0.13777938480E+02 -0.12556449306E+02  0.24915731469E+02  0.00000000000E+00 0. -1.
</event>
<event>
 7    1  0.3151015E-009  0.1047345E+03  0.7561462E-02  0.1270644E+00
         -2   -1    0    0    0  501 -0.00000000000E+00  0.00000000000E+00  0.43039519843E+02  0.43039519843E+02  0.00000000000E+00 0.  1.
          2   -1    0    0  501    0  0.00000000000E+00 -0.00000000000E+00 -0.46905131591E+03  0.46905131591E+03  0.00000000000E+00 0. -1.
         25    2    1    2    0    0  0.44954350793E+02  0.19640159929E+02 -0.93819969888E+02  0.16387823131E+03  0.12508900196E+03 0.  0.
          5    1    3    3  502    0  0.55500782966E+02  0.63996575286E+02 -0.41719061770E+02  0.94519051377E+02  0.41800000000E+01 0.  1.
         -5    1    3    3    0  502 -0.10546432173E+02 -0.44356415357E+02 -0.52100908118E+02  0.69359179938E+02  0.41800000000E+01 0.  1.
        -11    1    1    2    0    0 -0.60613652651E+02 -0.13851532560E+02 -0.32344151965E+03  0.32936347168E+03  0.00000000000E+00 0. -1.
         11    1    1    2    0    0  0.15659301858E+02 -0.57886273687E+01 -0.87503065315E+01  0.18849132763E+02  0.00000000000E+00 0.  1.
</event>
<event>
 7    1  0.3151015E-009  0.2358828E+03  0.7561462E-02  0.1122566E+00
         -1   -1    0    0    0  501 -0.00000000000E+00  0.00000000000E+00  0.56043961536E+02  0.56043961536E+02  0.00000000000E+00 0.  1.
          1   -1    0    0  501    0  0.00000000000E+00 -0.00000000000E+00 -0.12913106752E+04  0.12913106752E+04  0.00000000000E+00 0. -1.
         25    2    1    2    0    0  0.22215875586E+03 -0.62718243409E+02 -0.42091137819E+03  0.49608662681E+03  0.12508981634E+03 0.  0.
          5    1    3    3  502    0  0.51425215562E+02 -0.45733219403E+02 -0.43600175925E+02  0.81575289722E+02  0.41800000000E+01 0.  1.
         -5    1    3    3    0  502  0.17073354029E+03 -0.16985024006E+02 -0.37731120226E+03  0.41451133709E+03  0.41800000000E+01 0.  1.
        -11    1    1    2    0    0 -0.16756229279E+02  0.83226136922E+01 -0.14499677517E+02  0.23670187292E+02  0.00000000000E+00 0.  1.
         11    1    1    2    0    0 -0.20540252658E+03  0.54395629717E+02 -0.79985565791E+03  0.82759782258E+03  0.00000000000E+00 0. -1.
</event>
<event>
 7    1  0.3151015E-009  0.8587918E+02  0.7561462E-02  0.1313149E+00
         -1   -1    0    0    0  501 -0.00000000000E+00  0.00000000000E+00  0.71688159372E+02  0.71688159372E+02  0.00000000000E+00 0.  1.
          1   -1    0    0  501    0  0.00000000000E+00 -0.00000000000E+00 -0.24434553908E+03  0.24434553908E+03  0.00000000000E+00 0. -1.
         25    2    1    2    0    0  0.21231217555E+02  0.13226452431E+02 -0.72121142030E+01  0.12776815854E+03  0.12508790550E+03 0.  0.
          5    1    3    3  502    0 -0.17999401513E+02 -0.23121482457E+02  0.44377554956E+02  0.53342489534E+02  0.41800000000E+01 0. -1.
         -5    1    3    3    0  502  0.39230619067E+02  0.36347934888E+02 -0.51589669159E+02  0.74425669006E+02  0.41800000000E+01 0. -1.
        -11    1    1    2    0    0 -0.10227680034E+02 -0.49533423171E+02 -0.78230758845E+02  0.93156948637E+02  0.00000000000E+00 0. -1.
         11    1    1    2    0    0 -0.11003537520E+02  0.36306970740E+02 -0.87214506660E+02  0.95108591275E+02  0.00000000000E+00 0.  1.
</event>
<event>
 7    1  0.3151015E-009  0.1602000E+03  0.7561462E-02  0.1188471E+00
         -2   -1    0    0    0  501 -0.00000000000E+00  0.00000000000E+00  0.29904524205E+02  0.29904524205E+02  0.00000000000E+00 0.  1.
          2   -1    0    0  501    0  0.00000000000E+00 -0.00000000000E+00 -0.10862091291E+04  0.10862091291E+04  0.00000000000E+00 0. -1.
         25    2    1    2    0    0  0.14079422775E+03 -0.26696405273E+01 -0.50966427888E+03  0.54335570234E+03  0.12509036953E+03 0.  0.
          5    1    3    3  502    0  0.99971615707E+02  0.49337853225E+02 -0.22570770900E+03  0.25177368808E+03  0.41800000000E+01 0.  1.
         -5    1    3    3    0  502  0.40822612042E+02 -0.52007493752E+02 -0.28395656988E+03  0.29158201425E+03  0.41800000000E+01 0.  1.
        -11    1    1    2    0    0 -0.73639819281E+02  0.12587600200E+02 -0.44033420001E+03  0.44662677748E+03  0.00000000000E+00 0. -1.
         11    1    1    2    0    0 -0.67154408468E+02 -0.99179596731E+01 -0.10630612605E+03  0.12613117353E+03  0.00000000000E+00 0.  1.
</event>
<event>
 7    1  0.3151015E-009  0.9740258E+02  0.7561462E-02  0.1285855E+00
          2   -1    0    0  501    0  0.00000000000E+00  0.00000000000E+00  0.35820625013E+03  0.35820625013E+03  0.00000000000E+00 0. -1.
         -2   -1    0    0    0  501 -0.00000000000E+00 -0.00000000000E+00 -0.46052949526E+02  0.46052949526E+02  0.00000000000E+00 0.  1.
         25    2    1    2    0    0  0.27817913783E-01 -0.40664924946E+02  0.26077255590E+03  0.29208611390E+03  0.12513326946E+03 0.  0.
          5    1    3    3  502    0  0.61495683660E+02 -0.12451359191E+02  0.10826620238E+03  0.12520302885E+03  0.41800000000E+01 0.  1.
         -5    1    3    3    0  502 -0.61467865746E+02 -0.28213565755E+02  0.15250635352E+03  0.16688308505E+03  0.41800000000E+01 0.  1.
        -11    1    1    2    0    0  0.18087143361E+02  0.42266808414E+02 -0.10936024636E+02  0.47257004595E+02  0.00000000000E+00 0.  1.
         11    1    1    2    0    0 -0.18114961275E+02 -0.16018834679E+01  0.62316769339E+02  0.64916081162E+02  0.00000000000E+00 0. -1.
</event>
<event>
 7    1  0.3151015E-009  0.1147907E+03  0.7561462E-02  0.1251947E+00
         -1   -1    0    0    0  501 -0.00000000000E+00  0.00000000000E+00  0.17864652085E+03  0.17864652085E+03  0.00000000000E+00 0.  1.
          1   -1    0    0  501    0  0.00000000000E+00 -0.00000000000E+00 -0.10326592718E+03  0.10326592718E+03  0.00000000000E+00 0. -1.
         25    2    1    2    0    0 -0.47536282824E+02 -0.59120055440E+02  0.77380313880E+02  0.16549778523E+03  0.12508766846E+03 0.  0.
          5    1    3    3  502    0  0.23377239491E+02 -0.62630812530E+02  0.10371294042E+02  0.67780160405E+02  0.41800000000E+01 0.  1.
         -5    1    3    3    0  502 -0.70913522315E+02  0.35107570901E+01  0.67009019839E+02  0.97717624829E+02  0.41800000000E+01 0.  1.
        -11    1    1    2    0    0  0.56222892196E+02  0.35956727629E+02 -0.34851815573E+02  0.75289766353E+02  0.00000000000E+00 0. -1.
         11    1    1    2    0    0 -0.86866093723E+01  0.23163327811E+02  0.32852095364E+02  0.41124896443E+02  0.00000000000E+00 0.  1.
</event>
<event>
 7    1  0.3151015E-009  0.1069697E+03  0.7561462E-02  0.1266287E+00
         -2   -1    0    0    0  501 -0.00000000000E+00  0.00000000000E+00  0.28086856087E+03  0.28086856087E+03  0.00000000000E+00 0. -1.
          2   -1    0    0  501    0  0.00000000000E+00 -0.00000000000E+00 -0.82750351638E+02  0.82750351638E+02  0.00000000000E+00 0.  1.
         25    2    1    2    0    0 -0.84147225179E+02  0.64137452408E+02  0.12456261680E+03  0.20581170080E+03  0.12509293495E+03 0.  0.
          5    1    3    3  502    0 -0.54846370401E+02  0.48482150991E+02 -0.35381997871E+01  0.73407319585E+02  0.41800000000E+01 0.  1.
         -5    1    3    3    0  502 -0.29300854778E+02  0.15655301417E+02  0.12810081659E+03  0.13240438121E+03  0.41800000000E+01 0.  1.
        -11    1    1    2    0    0  0.55874513870E+02 -0.32232553753E+02 -0.87707252984E+01  0.65098574823E+02  0.00000000000E+00 0.  1.
         11    1    1    2    0    0  0.28272711309E+02 -0.31904898654E+02  0.82326317723E+02  0.92708636883E+02  0.00000000000E+00 0. -1.
</event>
<event>
 7    1  0.3151015E-009  0.1347782E+03  0.7561462E-02  0.1220533E+00
         -1   -1    0    0    0  501 -0.00000000000E+00  0.00000000000E+00  0.31729498761E+02  0.31729498761E+02  0.00000000000E+00 0.  1.
          1   -1    0    0  501    0  0.00000000000E+00 -0.00000000000E+00 -0.88280042449E+03  0.88280042449E+03  0.00000000000E+00 0. -1.
         25    2    1    2    0    0 -0.10238863130E+03  0.26503336567E+02 -0.64096079622E+03  0.66156334433E+03  0.12509779214E+03 0.  0.
          5    1    3    3  502    0  0.82852583400E-01 -0.39092165588E+02 -0.10969432567E+03  0.11652691432E+03  0.41800000000E+01 0. -1.
         -5    1    3    3    0  502 -0.10247148389E+03  0.65595502155E+02 -0.53126647055E+03  0.54503643001E+03  0.41800000000E+01 0. -1.
        -11    1    1    2    0    0  0.85569166212E+02 -0.12224059291E+02 -0.21378596128E+03  0.23059910467E+03  0.00000000000E+00 0. -1.
         11    1    1    2    0    0  0.16819465093E+02 -0.14279277276E+02  0.36758317713E+01  0.22367474259E+02  0.00000000000E+00 0.  1.
</event>
<event>
 7    1  0.3151015E-009  0.1514652E+03  0.7561462E-02  0.1198684E+00
          2   -1    0    0  501    0  0.00000000000E+00  0.00000000000E+00  0.14706692722E+04  0.14706692722E+04  0.00000000000E+00 0. -1.
         -2   -1    0    0    0  501 -0.00000000000E+00 -0.00000000000E+00 -0.23251428608E+02  0.23251428608E+02  0.00000000000E+00 0.  1.
         25    2    1    2    0    0  0.31240388922E+02 -0.12464006910E+03  0.11224705921E+04  0.11367055647E+04  0.12509277300E+03 0.  0.
          5    1    3    3  502    0  0.24542370135E+02  0.15829621476E+02  0.90465681194E+02  0.95154698895E+02  0.41800000000E+01 0.  1.
         -5    1    3    3    0  502  0.66980187872E+01 -0.14046969058E+03  0.10320049109E+04  0.10415508658E+04  0.41800000000E+01 0.  1.
        -11    1    1    2    0    0  0.32924226136E+01  0.54074408297E+02  0.59875641346E+02  0.80746356611E+02  0.00000000000E+00 0.  1.
         11    1    1    2    0    0 -0.34532811535E+02  0.70565660803E+02  0.26507161011E+03  0.27646877951E+03  0.00000000000E+00 0. -1.
</event>
<event>
 7    1  0.3151015E-009  0.7933854E+02  0.7561462E-02  0.1330939E+00
          2   -1    0    0  501    0  0.00000000000E+00  0.00000000000E+00  0.44201860276E+03  0.44201860276E+03  0.00000000000E+00 0.  1.
         -2   -1    0    0    0  501 -0.00000000000E+00 -0.00000000000E+00 -0.30357243765E+02  0.30357243765E+02  0.00000000000E+00 0. -1.
         25    2    1    2    0    0  0.20878489101E+02  0.24104477518E+02  0.17376589920E+03  0.21646982168E+03  0.12509060249E+03 0.  0.
          5    1    3    3  502    0  0.45590285683E+02  0.27904152436E+02  0.18206607255E+03  0.18979631989E+03  0.41800000000E+01 0.  1.
         -5    1    3    3    0  502 -0.24711796581E+02 -0.37996749183E+01 -0.83001733536E+01  0.26673501785E+02  0.41800000000E+01 0.  1.
        -11    1    1    2    0    0  0.17854641300E+02  0.15987661790E+02  0.20692652632E+02  0.31663534522E+02  0.00000000000E+00 0. -1.
         11    1    1    2    0    0 -0.38733130401E+02 -0.40092139308E+02  0.21720280716E+03  0.22424249032E+03  0.00000000000E+00 0.  1.
</event>
<event>
 7    1  0.3151015E-009  0.2784917E+03  0.7561462E-02  0.1096516E+00
         -3   -1    0    0    0  501 -0.00000000000E+00  0.00000000000E+00  0.14278831469E+04  0.14278831469E+04  0.00000000000E+00 0.  1.
          3   -1    0    0  501    0  0.00000000000E+00 -0.00000000000E+00 -0.59929632232E+02  0.59929632232E+02  0.00000000000E+00 0. -1.
         25    2    1    2    0    0  0.26944441427E+03 -0.31333323531E+02  0.75366091774E+03  0.81069985243E+03  0.12508957690E+03 0.  0.
          5    1    3    3  502    0  0.90818691955E+02  0.72214425897E+01  0.11715831505E+03  0.14847130102E+03  0.41800000000E+01 0.  1.
         -5    1    3    3    0  502  0.17862572231E+03 -0.38554766121E+02  0.63650260269E+03  0.66222855141E+03  0.41800000000E+01 0.  1.
        -11    1    1    2    0    0 -0.25804204951E+03  0.93272242029E+01  0.53527690988E+03  0.59430132650E+03  0.00000000000E+00 0. -1.
         11    1    1    2    0    0 -0.11402364756E+02  0.22006099328E+02  0.79015687081E+02  0.82811600242E+02  0.00000000000E+00 0.  1.
</event>
<event>
 7    1  0.4148176E-009  0.1134202E+03  0.7561462E-02  0.1254364E+00
         -3   -1    0    0    0  501 -0.00000000000E+00  0.00000000000E+00  0.34401630156E+02  0.34401630156E+02  0.00000000000E+00 0.  1.
          3   -1    0    0  501    0  0.00000000000E+00 -0.00000000000E+00 -0.63237444761E+03  0.63237444761E+03  0.00000000000E+00 0. -1.
         25    2    1    2    0    0 -0.91576687785E+02 -0.18915211874E+02 -0.40133190765E+03  0.43064903650E+03  0.12508883867E+03 0.  0.
          5    1    3    3  502    0 -0.40375815759E+02 -0.54707816903E+02 -0.88867482645E+02  0.11197345043E+03  0.41800000000E+01 0. -1.
         -5    1    3    3    0  502 -0.51200872026E+02  0.35792605029E+02 -0.31246442500E+03  0.31867558608E+03  0.41800000000E+01 0. -1.
        -11    1    1    2    0    0  0.27137419057E+02  0.16212477615E+02 -0.26808613586E+01  0.31724926495E+02  0.00000000000E+00 0.  1.
         11    1    1    2    0    0  0.64439268728E+02  0.27027342593E+01 -0.19396004845E+03  0.20440211476E+03  0.00000000000E+00 0. -1.
</event>
<event>
 7    1  0.3151015E-009  0.1017919E+03  0.7561462E-02  0.1276572E+00
         -2   -1    0    0    0  501 -0.00000000000E+00  0.00000000000E+00  0.64236359026E+03  0.64236359026E+03  0.00000000000E+00 0.  1.
          2   -1    0    0  501    0  0.00000000000E+00 -0.00000000000E+00 -0.24601986926E+02  0.24601986926E+02  0.00000000000E+00 0. -1.
         25    2    1    2    0    0 -0.52063318088E+02  0.21674996508E+02  0.27965520601E+03  0.31150388030E+03  0.12508892289E+03 0.  0.
          5    1    3    3  502    0 -0.32382700845E+02 -0.27813377831E+02  0.21687827169E+02  0.48063058035E+02  0.41800000000E+01 0. -1.
         -5    1    3    3    0  502 -0.19680617242E+02  0.49488374339E+02  0.25796737884E+03  0.26344082226E+03  0.41800000000E+01 0. -1.
        -11    1    1    2    0    0  0.88272160334E+01 -0.53094650515E+02  0.20692125615E+03  0.21380684718E+03  0.00000000000E+00 0.  1.
         11    1    1    2    0    0  0.43236102054E+02  0.31419654007E+02  0.13118514118E+03  0.14165484971E+03  0.00000000000E+00 0. -1.
</event>
<event>
 7    1  0.3151015E-009  0.7784352E+02  0.7561462E-02  0.1335285E+00
         -1   -1    0    0    0  501 -0.00000000000E+00  0.00000000000E+00  0.21574415158E+02  0.21574415158E+02  0.00000000000E+00 0.  1.
          1   -1    0    0  501    0  0.00000000000E+00 -0.00000000000E+00 -0.74597122564E+03  0.74597122564E+03  0.00000000000E+00 0. -1.
         25    2    1    2    0    0  0.50778724092E+02  0.39156722592E+02 -0.45223931242E+03  0.47358232567E+03  0.12509234884E+03 0.  0.
          5    1    3    3  502    0  0.54872298452E+02  0.30452622560E+02 -0.82725636479E+02  0.10391984743E+03  0.41800000000E+01 0.  1.
         -5    1    3    3    0  502 -0.40935743605E+01  0.87041000321E+01 -0.36951367594E+03  0.36966247824E+03  0.41800000000E+01 0.  1.
        -11    1    1    2    0    0 -0.42911737796E+02 -0.56155903923E+00 -0.40591251245E+02  0.59070993448E+02  0.00000000000E+00 0.  1.
         11    1    1    2    0    0 -0.78669862954E+01 -0.38595163553E+02 -0.23156624681E+03  0.23489232169E+03  0.00000000000E+00 0. -1.
</event>
<event>
 7    1  0.3151015E-009  0.1201604E+03  0.7561462E-02  0.1242833E+00
         -1   -1    0    0    0  501 -0.00000000000E+00  0.00000000000E+00  0.33918605459E+03  0.33918605459E+03  0.00000000000E+00 0.  1.
          1   -1    0    0  501    0  0.00000000000E+00 -0.00000000000E+00 -0.70426609329E+02  0.70426609329E+02  0.00000000000E+00 0. -1.
         25    2    1    2    0    0  0.14074736000E+01 -0.10947070231E+03  0.12660783388E+03  0.20895978175E+03  0.12509528825E+03 0.  0.
          5    1    3    3  502    0 -0.15992798295E+02 -0.76445589035E+02  0.13848811379E+01  0.78224599558E+02  0.41800000000E+01 0. -1.
         -5    1    3    3    0  502  0.17400271895E+02 -0.33025113272E+02  0.12522295274E+03  0.13073518219E+03  0.41800000000E+01 0. -1.
        -11    1    1    2    0    0  0.23779819935E+02  0.88902760355E+02  0.14067249705E+03  0.16810095794E+03  0.00000000000E+00 0.  1.
         11    1    1    2    0    0 -0.25187293535E+02  0.20567941952E+02  0.14791143312E+01  0.32551924229E+02  0.00000000000E+00 0. -1.
</event>
<event>
 7    1  0.5346666E-009  0.3081397E+03  0.7561462E-02  0.1081241E+00
         -2   -1    0    0    0  501 -0.00000000000E+00  0.00000000000E+00  0.64407827020E+02  0.64407827020E+02  0.00000000000E+00 0.  1.
          2   -1    0    0  501    0  0.00000000000E+00 -0.00000000000E+00 -0.17083628209E+04  0.17083628209E+04  0.00000000000E+00 0. -1.
         25    2    1    2    0    0 -0.24586362316E+03 -0.16217797545E+03 -0.55151776428E+03  0.63762722834E+03  0.12508405613E+03 0.  0.
          5    1    3    3  502    0 -0.23419533938E+03 -0.18047832946E+03 -0.52924544277E+03  0.60624920246E+03  0.41800000000E+01 0.  1.
         -5    1    3    3    0  502 -0.11668283783E+02  0.18300354005E+02 -0.22272321505E+02  0.31378025884E+02  0.41800000000E+01 0.  1.
        -11    1    1    2    0    0  0.82480086892E+02  0.82661105374E+02 -0.57476786735E+03  0.58650995253E+03  0.00000000000E+00 0. -1.
         11    1    1    2    0    0  0.16338353627E+03  0.79516870080E+02 -0.51766936226E+03  0.54863346706E+03  0.00000000000E+00 0.  1.
</event>
<event>
 7    1  0.4292972E-009  0.1396160E+03  0.7561462E-02  0.1213847E+00
         -2   -1    0    0    0  501 -0.00000000000E+00  0.00000000000E+00  0.23146291896E+02  0.23146291896E+02  0.00000000000E+00 0.  1.
          2   -1    0    0  501    0  0.00000000000E+00 -0.00000000000E+00 -0.10052069292E+04  0.10052069292E+04  0.00000000000E+00 0. -1.
         25    2    1    2    0    0 -0.92520935276E+02  0.43508462772E+02 -0.63655012621E+03  0.65673088189E+03  0.12508508407E+03 0.  0.
          5    1    3    3  502    0 -0.37918139152E+01  0.67690107635E+02 -0.22606315609E+03  0.23604735005E+03  0.41800000000E+01 0. -1.
         -5    1    3    3    0  502 -0.88729121361E+02 -0.24181644863E+02 -0.41048697012E+03  0.42068353184E+03  0.41800000000E+01 0. -1.
        -11    1    1    2    0    0  0.42129482918E+02 -0.53272640053E+02 -0.28148017154E+03  0.28955820568E+03  0.00000000000E+00 0. -1.
         11    1    1    2    0    0  0.50391452358E+02  0.97641772810E+01 -0.64030339608E+02  0.82064133573E+02  0.00000000000E+00 0.  1.
</event>
<event>
 7    1  0.3151015E-009  0.9143377E+02  0.7561462E-02  0.1299416E+00
         -2   -1    0    0    0  501 -0.00000000000E+00  0.00000000000E+00  0.15506898204E+02  0.15506898204E+02  0.00000000000E+00 0.  1.
          2   -1    0    0  501    0  0.00000000000E+00 -0.00000000000E+00 -0.10097334281E+04  0.10097334281E+04  0.00000000000E+00 0. -1.
         25    2    1    2    0    0  0.29872543882E+01 -0.12175954738E+02 -0.81136543857E+03  0.82104733808E+03  0.12509068275E+03 0.  0.
          5    1    3    3  502    0  0.54337363116E+02 -0.31733963982E+02 -0.29001100738E+03  0.29678856161E+03  0.41800000000E+01 0.  1.
         -5    1    3    3    0  502 -0.51350108728E+02  0.19558009243E+02 -0.52135443119E+03  0.52425877647E+03  0.41800000000E+01 0.  1.
        -11    1    1    2    0    0 -0.29778392190E+02 -0.83716269862E+01 -0.16105819348E+03  0.16400176361E+03  0.00000000000E+00 0. -1.
         11    1    1    2    0    0  0.26791137802E+02  0.20547581725E+02 -0.21802897801E+02  0.40191224564E+02  0.00000000000E+00 0.  1.
</event>
<event>
 7    1  0.3151015E-009  0.1181409E+03  0.7561462E-02  0.1246196E+00
          2   -1    0    0  501    0  0.00000000000E+00  0.00000000000E+00  0.28826654252E+03  0.28826654252E+03  0.00000000000E+00 0. -1.
         -2   -1    0    0    0  501 -0.00000000000E+00 -0.00000000000E+00 -0.60828156471E+02  0.60828156471E+02  0.00000000000E+00 0.  1.
         25    2    1    2    0    0 -0.22798163741E+02 -0.48695512665E+02  0.55200905010E+02  0.14692184184E+03  0.12509148041E+03 0.  0.
          5    1    3    3  502    0  0.48724358330E+02 -0.27530112353E+02  0.38143386970E+01  0.56249371202E+02  0.41800000000E+01 0.  1.
         -5    1    3    3    0  502 -0.71522522071E+02 -0.21165400311E+02  0.51386566313E+02  0.90672470636E+02  0.41800000000E+01 0.  1.
        -11    1    1    2    0    0  0.46325947703E+02  0.62789873266E+02  0.13494868634E+03  0.15588396184E+03  0.00000000000E+00 0. -1.
         11    1    1    2    0    0 -0.23527783961E+02 -0.14094360601E+02  0.37288794696E+02  0.46288895307E+02  0.00000000000E+00 0.  1.
</event>
<event>
 6    1  0.3311661E-009  0.1125277E+03  0.7561462E-02  0.1255959E+00
          1   -1    0    0  501    0  0.00000000000E+00  0.00000000000E+00  0.10270397283E+04  0.10270397283E+04  0.00000000000E+00 0. -1.
         -1   -1    0    0    0  501 -0.00000000000E+00 -0.00000000000E+00 -0.12797395823E+02  0.12797395823E+02  0.00000000000E+00 0.  1.
          5    1    1    2  502    0  0.52743662099E+02  0.41626781899E+01  0.18968012424E+03  0.19696508247E+03  0.41800000000E+01 0. -1.
         -5    1    1    2    0  502 -0.63140542932E+02 -0.39744310728E+02  0.41176416492E+03  0.41848959164E+03  0.41800000000E+01 0. -1.
        -11    1    1    2    0    0  0.29745294425E+02 -0.21685237526E+02  0.12512885526E+03  0.13043106411E+03  0.00000000000E+00 0. -1.
         11    1    1    2    0    0 -0.19348413592E+02  0.57266870064E+02  0.28766918803E+03  0.29395138588E+03  0.00000000000E+00 0.  1.
</event>
<event>
 7    1  0.3151015E-009  0.9040530E+02  0.7561462E-02  0.1301873E+00
         -2   -1    0    0    0  501 -0.00000000000E+00  0.00000000000E+00  0.22612503464E+02  0.22612503464E+02  0.00000000000E+00 0.  1.
          2   -1    0    0  501    0  0.00000000000E+00 -0.00000000000E+00 -0.55041896396E+03  0.55041896396E+03  0.00000000000E+00 0. -1.
         25    2    1    2    0    0 -0.28376682281E+02  0.11384468374E+02 -0.28244131743E+03  0.31041033079E+03  0.12508650387E+03 0.  0.
          5    1    3    3  502    0 -0.42262574484E+02 -0.26962542505E+02 -0.39298382955E+02  0.63835250475E+02  0.41800000000E+01 0.  1.
         -5    1    3    3    0  502  0.13885892203E+02  0.38347010879E+02 -0.24314293447E+03  0.24657508031E+03  0.41800000000E+01 0.  1.
        -11    1    1    2    0    0 -0.49430019464E+01 -0.43174285894E+02 -0.15792878968E+03  0.16379851904E+03  0.00000000000E+00 0. -1.
         11    1    1    2    0    0  0.33319684228E+02  0.31789817520E+02 -0.87436353394E+02  0.98822617603E+02  0.00000000000E+00 0.  1.
</event>
<event>
 7    1  0.3151015E-009  0.1074280E+03  0.7561462E-02  0.1265408E+00
          1   -1    0    0  501    0  0.00000000000E+00  0.00000000000E+00  0.62656379719E+03  0.62656379719E+03  0.00000000000E+00 0. -1.
         -1   -1    0    0    0  501 -0.00000000000E+00 -0.00000000000E+00 -0.20768817917E+02  0.20768817917E+02  0.00000000000E+00 0.  1.
         25    2    1    2    0    0 -0.23197772986E+02 -0.26607447457E+02  0.30925194880E+03  0.33545531160E+03  0.12508958914E+03 0.  0.
          5    1    3    3  502    0 -0.45412707183E+02 -0.63834166426E+02  0.13788545193E+03  0.15864105720E+03  0.41800000000E+01 0.  1.
         -5    1    3    3    0  502  0.22214934197E+02  0.37226718969E+02  0.17136649688E+03  0.17681425440E+03  0.41800000000E+01 0.  1.
        -11    1    1    2    0    0 -0.29906513819E+02 -0.60468305105E+01  0.60741809858E+02  0.67974489279E+02  0.00000000000E+00 0. -1.
         11    1    1    2    0    0  0.53104286805E+02  0.32654277967E+02  0.23580122061E+03  0.24390281423E+03  0.00000000000E+00 0.  1.
</event>
<event>
 7    1  0.3151015E-009  0.1403730E+03  0.7561462E-02  0.1212828E+00
         -1   -1    0    0    0  501 -0.00000000000E+00  0.00000000000E+00  0.99994702960E+02  0.99994702960E+02  0.00000000000E+00 0. -1.
          1   -1    0    0  501    0  0.00000000000E+00 -0.00000000000E+00 -0.23670485324E+03  0.23670485324E+03  0.00000000000E+00 0.  1.
         25    2    1    2    0    0 -0.78518704570E+02  0.50677086397E+02 -0.12814596491E+03  0.20199523947E+03  0.12508930567E+03 0.  0.
          5    1    3    3  502    0 -0.68412418859E+02 -0.26821488768E+02 -0.85673553035E+02  0.11294725054E+03  0.41800000000E+01 0. -1.
         -5    1    3    3    0  502 -0.10106285711E+02  0.77498575165E+02 -0.42472411876E+02  0.89047988939E+02  0.41800000000E+01 0. -1.
        -11    1    1    2    0    0  0.36762123701E+02 -0.72849979486E+02  0.13193269590E+02  0.82659758121E+02  0.00000000000E+00 0.  1.
         11    1    1    2    0    0  0.41756580869E+02  0.22172893089E+02 -0.21757454955E+02  0.52044558601E+02  0.00000000000E+00 0. -1.
</event>
<event>
 7    1  0.3151015E-009  0.9239629E+02  0.7561462E-02  0.1297150E+00
          2   -1    0    0  501    0  0.00000000000E+00  0.00000000000E+00  0.99256075668E+03  0.99256075668E+03  0.00000000000E+00 0.  1.
         -2   -1    0    0    0  501 -0.00000000000E+00 -0.00000000000E+00 -0.12570138160E+02  0.12570138160E+02  0.00000000000E+00 0. -1.
         25    2    1    2    0    0 -0.12710816169E+02 -0.16937065597E+02  0.58470533809E+03  0.59830976914E+03  0.12508324595E+03 0.  0.
          5    1    3    3  502    0 -0.19630098667E+01  0.35485345281E+02  0.53286932381E+02  0.64187480867E+02  0.41800000000E+01 0. -1.
         -5    1    3    3    0  502 -0.10747806302E+02 -0.52422410878E+02  0.53141840571E+03  0.53412228827E+03  0.41800000000E+01 0. -1.
        -11    1    1    2    0    0 -0.40323244897E+02  0.11988800730E+02  0.14788484371E+03  0.15375182087E+03  0.00000000000E+00 0. -1.
         11    1    1    2    0    0  0.53034061066E+02  0.49482648671E+01  0.24740043672E+03  0.25306930483E+03  0.00000000000E+00 0.  1.
</event>
<event>
 7    1  0.3151015E-009  0.1141191E+03  0.7561462E-02  0.1253127E+00
         -2   -1    0    0    0  501 -0.00000000000E+00  0.00000000000E+00  0.22708254542E+02  0.22708254542E+02  0.00000000000E+00 0. -1.
          2   -1    0    0  501    0  0.00000000000E+00 -0.00000000000E+00 -0.14781447401E+04  0.14781447401E+04  0.00000000000E+00 0.  1.
         25    2    1    2    0    0  0.10017144448E+03 -0.20173556225E+02 -0.11981584741E+04  0.12089969415E+04  0.12509430345E+03 0.  0.
          5    1    3    3  502    0  0.72876582946E+02 -0.37839329627E+02 -0.11337410862E+04  0.11367185818E+04  0.41800000000E+01 0.  1.
         -5    1    3    3    0  502  0.27294861537E+02  0.17665773402E+02 -0.64417387904E+02  0.72278359697E+02  0.41800000000E+01 0.  1.
        -11    1    1    2    0    0 -0.61323455115E+02 -0.12370214870E+02 -0.22059718616E+03  0.22929611184E+03  0.00000000000E+00 0.  1.
         11    1    1    2    0    0 -0.38847989367E+02  0.32543771095E+02 -0.36680825287E+02  0.62559941326E+02  0.00000000000E+00 0. -1.
</event>
<event>
 7    1  0.3151015E-009  0.1156179E+03  0.7561462E-02  0.1250506E+00
         -1   -1    0    0    0  501 -0.00000000000E+00  0.00000000000E+00  0.13150731877E+03  0.13150731877E+03  0.00000000000E+00 0.  1.
          1   -1    0    0  501    0  0.00000000000E+00 -0.00000000000E+00 -0.11266650525E+03  0.11266650525E+03  0.00000000000E+00 0. -1.
         25    2    1    2    0    0 -0.34955360942E+02 -0.22980665410E+02 -0.23536301868E+02  0.13397481223E+03  0.12508119190E+03 0.  0.
          5    1    3    3  502    0 -0.19688656706E+02 -0.73985203067E+02 -0.29211006963E+01  0.76729777173E+02  0.41800000000E+01 0. -1.
         -5    1    3    3    0  502 -0.15266704235E+02  0.51004537657E+02 -0.20615201172E+02  0.57245035061E+02  0.41800000000E+01 0. -1.
        -11    1    1    2    0    0 -0.31409147749E+02  0.13224843504E+02  0.88554453605E+01  0.35211503242E+02  0.00000000000E+00 0.  1.
         11    1    1    2    0    0  0.66364508691E+02  0.97558219063E+01  0.33521670030E+02  0.74987508536E+02  0.00000000000E+00 0. -1.
</event>
<event>
 7    1  0.3151015E-009  0.1139233E+03  0.7561462E-02  0.1253472E+00
         -1   -1    0    0    0  501 -0.00000000000E+00  0.00000000000E+00  0.68148770575E+02  0.68148770575E+02  0.00000000000E+00 0.  1.
          1   -1    0    0  501    0  0.00000000000E+00 -0.00000000000E+00 -0.30579788970E+03  0.30579788970E+03  0.00000000000E+00 0. -1.
         25    2    1    2    0    0 -0.14785794431E+02 -0.84808701726E+02 -0.83842593124E+02  0.17346074387E+03  0.12509162097E+03 0.  0.
          5    1    3    3  502    0 -0.41408982570E+02 -0.96325630041E+02 -0.95534824403E+02  0.14190738499E+03  0.41800000000E+01 0. -1.
         -5    1    3    3    0  502  0.26623188139E+02  0.11516928315E+02  0.11692231279E+02  0.31553358883E+02  0.41800000000E+01 0. -1.
        -11    1    1    2    0    0  0.24946683746E+02  0.36301007632E+02 -0.58302694188E+01  0.44430757663E+02  0.00000000000E+00 0.  1.
         11    1    1    2    0    0 -0.10160889315E+02  0.48507694094E+02 -0.14797625659E+03  0.15605515875E+03  0.00000000000E+00 0. -1.
</event>
<event>
 7    1  0.3151015E-009  0.1076432E+03  0.7561462E-02  0.1264998E+00
          2   -1    0    0  501    0  0.00000000000E+00  0.00000000000E+00  0.14321345478E+03  0.14321345478E+03  0.00000000000E+00 0. -1.
         -2   -1    0    0    0  501 -0.00000000000E+00 -0.00000000000E+00 -0.94843639803E+02  0.94843639803E+02  0.00000000000E+00 0.  1.
         25    2    1    2    0    0 -0.22772427625E+02 -0.30651754640E+01  0.67083979952E+02  0.14378883180E+03  0.12508792517E+03 0.  0.
          5    1    3    3  502    0 -0.16595606059E+02  0.58761464323E+02  0.16045638341E+02  0.63271310558E+02  0.41800000000E+01 0. -1.
         -5    1    3    3    0  502 -0.61768215664E+01 -0.61826639787E+02  0.51038341611E+02  0.80517521239E+02  0.41800000000E+01 0. -1.
        -11    1    1    2    0    0  0.40301654944E+02 -0.32752075290E+02 -0.15813749384E+02  0.54286245924E+02  0.00000000000E+00 0.  1.
         11    1    1    2    0    0 -0.17529227318E+02  0.35817250754E+02 -0.29004155888E+01  0.39982016864E+02  0.00000000000E+00 0. -1.
</event>
<event>
 7    1  0.3151015E-009  0.1948264E+03  0.7561462E-02  0.1154179E+00
         -1   -1    0    0    0  501 -0.00000000000E+00  0.00000000000E+00  0.28235577329E+03  0.28235577329E+03  0.00000000000E+00 0.  1.
          1   -1    0    0  501    0  0.00000000000E+00 -0.00000000000E+00 -0.14247635972E+03  0.14247635972E+03  0.00000000000E+00 0. -1.
         25    2    1    2    0    0  0.70950552890E+02  0.14705344740E+03  0.11353416433E+03  0.23494060174E+03  0.12509349514E+03 0.  0.
          5    1    3    3  502    0  0.28419239226E+02  0.15792845120E+03  0.78869884875E+02  0.17884904248E+03  0.41800000000E+01 0. -1.
         -5    1    3    3    0  502  0.42531313664E+02 -0.10875003796E+02  0.34664279460E+02  0.56091559258E+02  0.41800000000E+01 0. -1.
        -11    1    1    2    0    0 -0.30354673161E+01 -0.10523249602E+03 -0.18595956542E+01  0.10529268909E+03  0.00000000000E+00 0.  1.
         11    1    1    2    0    0 -0.67915085574E+02 -0.41820951383E+02  0.28204844888E+02  0.84598842180E+02  0.00000000000E+00 0. -1.
</event>
<event>
 7    1  0.3151015E-009  0.1354316E+03  0.7561462E-02  0.1219612E+00
         -2   -1    0    0    0  501 -0.00000000000E+00  0.00000000000E+00  0.25282711698E+02  0.25282711698E+02  0.00000000000E+00 0.  1.
          2   -1    0    0  501    0  0.00000000000E+00 -0.00000000000E+00 -0.10744927649E+04  0.10744927649E+04  0.00000000000E+00 0. -1.
         25    2    1    2    0    0 -0.88604734126E+02  0.14954880591E+02 -0.84011910720E+03  0.85412348493E+03  0.12510941554E+03 0.  0.
          5    1    3    3  502    0 -0.28474860089E+02  0.60095938043E+02 -0.56390936371E+03  0.56783235405E+03  0.41800000000E+01 0. -1.
         -5    1    3    3    0  502 -0.60129874037E+02 -0.45141057452E+02 -0.27620974349E+03  0.28629113088E+03  0.41800000000E+01 0. -1.
        -11    1    1    2    0    0  0.10420716991E+03 -0.28749765644E+02 -0.17666569455E+03  0.20711458402E+03  0.00000000000E+00 0.  1.
         11    1    1    2    0    0 -0.15602435789E+02  0.13794885052E+02 -0.32425251460E+02  0.38537407650E+02  0.00000000000E+00 0. -1.
</event>
<event>
 7    1  0.3151015E-009  0.1190272E+03  0.7561462E-02  0.1244711E+00
          1   -1    0    0  501    0  0.00000000000E+00  0.00000000000E+00  0.36386502877E+03  0.36386502877E+03  0.00000000000E+00 0. -1.
         -1   -1    0    0    0  501 -0.00000000000E+00 -0.00000000000E+00 -0.99341156922E+02  0.99341156922E+02  0.00000000000E+00 0.  1.
         25    2    1    2    0    0 -0.53282203549E+02 -0.62138680031E+02  0.30066867975E+03  0.33578182197E+03  0.12509024027E+03 0.  0.
          5    1    3    3  502    0 -0.71597195357E+02 -0.67737922379E+02  0.12604152532E+03  0.16005787396E+03  0.41800000000E+01 0.  1.
         -5    1    3    3    0  502  0.18314991808E+02  0.55992423481E+01  0.17462715443E+03  0.17572394801E+03  0.41800000000E+01 0.  1.
        -11    1    1    2    0    0  0.14402924109E+02 -0.22468088105E+02 -0.18965176870E+02  0.32740451122E+02  0.00000000000E+00 0.  1.
         11    1    1    2    0    0  0.38879279441E+02  0.84606768136E+02 -0.17179631028E+02  0.94683912606E+02  0.00000000000E+00 0. -1.
</event>
<event>
 7    1  0.3151015E-009  0.1171424E+03  0.7561462E-02  0.1247887E+00
          1   -1    0    0  501    0  0.00000000000E+00  0.00000000000E+00  0.33154606786E+03  0.33154606786E+03  0.00000000000E+00 0. -1.
         -1   -1    0    0    0  501 -0.00000000000E+00 -0.00000000000E+00 -0.69842607037E+02  0.69842607037E+02  0.00000000000E+00 0.  1.
         25    2    1    2    0    0  0.70410676736E+01  0.63784510212E+02  0.28922143777E+02  0.14353613300E+03  0.12509232869E+03 0.  0.
          5    1    3    3  502    0  0.65275994810E+02  0.41446558137E+02  0.91635453220E+01  0.77975737526E+02  0.41800000000E+01 0.  1.
         -5    1    3    3    0  502 -0.58234927136E+02  0.22337952075E+02  0.19758598455E+02  0.65560395471E+02  0.41800000000E+01 0.  1.
        -11    1    1    2    0    0  0.99399934023E+01  0.12622235122E+02  0.47374246737E+01  0.16750148681E+02  0.00000000000E+00 0.  1.
         11    1    1    2    0    0 -0.16981061076E+02 -0.76406745334E+02  0.22804389237E+03  0.24110239322E+03  0.00000000000E+00 0. -1.
</event>
<event>
 7    1  0.3151015E-009  0.1193871E+03  0.7561462E-02  0.1244112E+00
         -1   -1    0    0    0  501 -0.00000000000E+00  0.00000000000E+00  0.21567251397E+03  0.21567251397E+03  0.00000000000E+00 0.  1.
          1   -1    0    0  501    0  0.00000000000E+00 -0.00000000000E+00 -0.10039956326E+03  0.10039956326E+03  0.00000000000E+00 0. -1.
         25    2    1    2    0    0 -0.23360371137E+02 -0.78206694879E+02  0.11956570076E+03  0.19132824521E+03  0.12509415077E+03 0.  0.
          5    1    3    3  502    0 -0.37099921333E+02  0.24463291143E+02  0.25862339142E+02  0.51586720794E+02  0.41800000000E+01 0. -1.
         -5    1    3    3    0  502  0.13739550196E+02 -0.10266998602E+03  0.93703361615E+02  0.13974152442E+03  0.41800000000E+01 0. -1.
        -11    1    1    2    0    0 -0.96436648463E+01  0.33749162218E+02 -0.44236812280E+02  0.56470361986E+02  0.00000000000E+00 0. -1.
         11    1    1    2    0    0  0.33004035983E+02  0.44457532661E+02  0.39944062239E+02  0.68273470028E+02  0.00000000000E+00 0.  1.
</event>
<event>
 7    1  0.3151015E-009  0.1018321E+03  0.7561462E-02  0.1276490E+00
         -1   -1    0    0    0  501 -0.00000000000E+00  0.00000000000E+00  0.22949228256E+03  0.22949228256E+03  0.00000000000E+00 0.  1.
          1   -1    0    0  501    0  0.00000000000E+00 -0.00000000000E+00 -0.75261566144E+02  0.75261566144E+02  0.00000000000E+00 0. -1.
         25    2    1    2    0    0  0.55543926902E+02  0.18809257030E+02  0.13786336858E+03  0.19517502176E+03  0.12509222501E+03 0.  0.
          5    1    3    3  502    0  0.90759915910E+02 -0.67281284680E+01  0.11207171147E+03  0.14443050564E+03  0.41800000000E+01 0. -1.
         -5    1    3    3    0  502 -0.35215989008E+02  0.25537385498E+02  0.25791657107E+02  0.50744516119E+02  0.41800000000E+01 0. -1.
        -11    1    1    2    0    0 -0.26558794095E+02  0.96303351646E+01  0.49616705605E+02  0.57095799970E+02  0.00000000000E+00 0.  1.
         11    1    1    2    0    0 -0.28985132808E+02 -0.28439592195E+02 -0.33249357767E+02  0.52483026970E+02  0.00000000000E+00 0. -1.
</event>
<event>
 7    1  0.3151015E-009  0.1023063E+03  0.7561462E-02  0.1275519E+00
          2   -1    0    0  501    0  0.00000000000E+00  0.00000000000E+00  0.46993698220E+03  0.46993698220E+03  0.00000000000E+00 0. -1.
         -2   -1    0    0    0  501 -0.00000000000E+00 -0.00000000000E+00 -0.33743582851E+02  0.33743582851E+02  0.00000000000E+00 0.  1.
         25    2    1    2    0    0 -0.29393868658E+02 -0.40402301385E+02  0.16289365243E+03  0.21137178066E+03  0.12508933681E+03 0.  0.
          5    1    3    3  502    0 -0.49452120700E+02  0.62127642497E+01  0.15101948237E+03  0.15908635120E+03  0.41800000000E+01 0.  1.
         -5    1    3    3    0  502  0.20058252042E+02 -0.46615065635E+02  0.11874170061E+02  0.52285429460E+02  0.41800000000E+01 0.  1.
        -11    1    1    2    0    0  0.13969064434E+00 -0.28667551005E+02  0.73537949878E+02  0.78928309664E+02  0.00000000000E+00 0. -1.
         11    1    1    2    0    0  0.29254178014E+02  0.69069852391E+02  0.19976179704E+03  0.21338047473E+03  0.00000000000E+00 0.  1.
</event>
<event>
 7    1  0.3151015E-009  0.1029122E+03  0.7561462E-02  0.1274288E+00
         -2   -1    0    0    0  501 -0.00000000000E+00  0.00000000000E+00  0.44025974016E+02  0.44025974016E+02  0.00000000000E+00 0.  1.
          2   -1    0    0  501    0  0.00000000000E+00 -0.00000000000E+00 -0.34696477568E+03  0.34696477568E+03  0.00000000000E+00 0. -1.
         25    2    1    2    0    0 -0.34534916667E+02 -0.65884074412E+02 -0.23654160817E+03  0.27772689631E+03  0.12508766849E+03 0.  0.
          5    1    3    3  502    0  0.29343026036E+02 -0.31892676140E+02 -0.18168357916E+03  0.18682759781E+03  0.41800000000E+01 0.  1.
         -5    1    3    3    0  502 -0.63877942703E+02 -0.33991398271E+02 -0.54858029012E+02  0.90899298498E+02  0.41800000000E+01 0.  1.
        -11    1    1    2    0    0 -0.93988545645E+01  0.34647723595E+02 -0.15421154297E+02  0.39071923644E+02  0.00000000000E+00 0.  1.
         11    1    1    2    0    0  0.43933771232E+02  0.31236350817E+02 -0.50976039204E+02  0.74191929749E+02  0.00000000000E+00 0. -1.
</event>
<event>
 7    1  0.3151015E-009  0.2002862E+03  0.7561462E-02  0.1149498E+00
         -2   -1    0    0    0  501 -0.00000000000E+00  0.00000000000E+00  0.50904854631E+03  0.50904854631E+03  0.00000000000E+00 0.  1.
          2   -1    0    0  501    0  0.00000000000E+00 -0.00000000000E+00 -0.10397609670E+03  0.10397609670E+03  0.00000000000E+00 0. -1.
         25    2    1    2    0    0  0.14387750688E+03 -0.10471512154E+03  0.33888528592E+03  0.40268691193E+03  0.12509004101E+03 0.  0.
          5    1    3    3  502    0  0.68257261197E+02  0.13400885764E+02  0.66689082042E+02  0.96454878098E+02  0.41800000000E+01 0.  1.
         -5    1    3    3    0  502  0.75620245688E+02 -0.11811600730E+03  0.27219620388E+03  0.30623203383E+03  0.41800000000E+01 0.  1.
        -11    1    1    2    0    0 -0.13508392299E+03  0.65019745206E+02  0.76620749132E+02  0.16836262268E+03  0.00000000000E+00 0.  1.
         11    1    1    2    0    0 -0.87935838903E+01  0.39695376331E+02 -0.10433585440E+02  0.41975108396E+02  0.00000000000E+00 0. -1.
</event>
<event>
 7    1  0.3151015E-009  0.8448326E+02  0.7561462E-02  0.1316789E+00
          2   -1    0    0  501    0  0.00000000000E+00  0.00000000000E+00  0.33125008296E+02  0.33125008296E+02  0.00000000000E+00 0. -1.
         -2   -1    0    0    0  501 -0.00000000000E+00 -0.00000000000E+00 -0.38548282695E+03  0.38548282695E+03  0.00000000000E+00 0.  1.
         25    2    1    2    0    0  0.11264347628E+00  0.12202035001E+02 -0.27110684291E+03  0.29882284819E+03  0.12508905619E+03 0.  0.
          5    1    3    3  502    0  0.17409095136E+02  0.49156716287E+02 -0.24426545510E+03  0.24980501257E+03  0.41800000000E+01 0. -1.
         -5    1    3    3    0  502 -0.17296451660E+02 -0.36954681286E+02 -0.26841387808E+02  0.49017835615E+02  0.41800000000E+01 0. -1.
        -11    1    1    2    0    0 -0.33136242144E+02  0.11402090774E+02 -0.78560449861E+01  0.35912889890E+02  0.00000000000E+00 0. -1.
         11    1    1    2    0    0  0.33023598668E+02 -0.23604125774E+02 -0.73394930753E+02  0.83872097165E+02  0.00000000000E+00 0.  1.
</event>
<event>
 7    1  0.3151015E-009  0.1036599E+03  0.7561462E-02  0.1272783E+00
         -2   -1    0    0    0  501 -0.00000000000E+00  0.00000000000E+00  0.93856555201E+02  0.93856555201E+02  0.00000000000E+00 0. -1.
          2   -1    0    0  501    0  0.00000000000E+00 -0.00000000000E+00 -0.14364601130E+03  0.14364601130E+03  0.00000000000E+00 0.  1.
         25    2    1    2    0    0 -0.44531362928E+02  0.45999768994E+01 -0.29100708506E+02  0.13600905133E+03  0.12508960283E+03 0.  0.
          5    1    3    3  502    0  0.32871515257E+02 -0.27860481783E+01  0.24649079882E+02  0.41392609471E+02  0.41800000000E+01 0.  1.
         -5    1    3    3    0  502 -0.77402878185E+02  0.73860250778E+01 -0.53749788388E+02  0.94616441857E+02  0.41800000000E+01 0.  1.
        -11    1    1    2    0    0  0.36085483488E+01 -0.41163996224E+02  0.36045527450E+01  0.41478777789E+02  0.00000000000E+00 0. -1.
         11    1    1    2    0    0  0.40922814579E+02  0.36564019325E+02 -0.24293300341E+02  0.60014737388E+02  0.00000000000E+00 0.  1.
</event>
<event>
 7    1  0.3151015E-009  0.9406403E+02  0.7561462E-02  0.1293298E+00
         -2   -1    0    0    0  501 -0.00000000000E+00  0.00000000000E+00  0.14154722523E+03  0.14154722523E+03  0.00000000000E+00 0.  1.
          2   -1    0    0  501    0  0.00000000000E+00 -0.00000000000E+00 -0.12190609313E+03  0.12190609313E+03  0.00000000000E+00 0. -1.
         25    2    1    2    0    0 -0.61538608535E+02 -0.23752956240E+02  0.28594879248E+02  0.14427986564E+03  0.12509120368E+03 0.  0.
          5    1    3    3  502    0 -0.53829468598E+02 -0.31940751081E+02  0.74176032292E+02  0.97146175610E+02  0.41800000000E+01 0.  1.
         -5    1    3    3    0  502 -0.77091399369E+01  0.81877948410E+01 -0.45581153044E+02  0.47133690029E+02  0.41800000000E+01 0.  1.
        -11    1    1    2    0    0  0.70622228968E+02 -0.16174516513E+02  0.11572303471E+02  0.73369151668E+02  0.00000000000E+00 0. -1.
         11    1    1    2    0    0 -0.90836204340E+01  0.39927472753E+02 -0.20526050621E+02  0.45804301051E+02  0.00000000000E+00 0.  1.
</event>
<event>
 7    1  0.4043766E-009  0.1220224E+03  0.7561462E-02  0.1239797E+00
         -1   -1    0    0    0  501 -0.00000000000E+00  0.00000000000E+00  0.16283009199E+02  0.16283009199E+02  0.00000000000E+00 0.  1.
          1   -1    0    0  501    0  0.00000000000E+00 -0.00000000000E+00 -0.15594529962E+04  0.15594529962E+04  0.00000000000E+00 0. -1.
         25    2    1    2    0    0  0.39644242323E+02  0.79862284620E+02 -0.11972806792E+04  0.12070947330E+04  0.12508804557E+03 0.  0.
          5    1    3    3  502    0 -0.25321785856E+02  0.83524076717E+02 -0.61541043624E+03  0.62158261049E+03  0.41800000000E+01 0.  1.
         -5    1    3    3    0  502  0.64966028179E+02 -0.36617920971E+01 -0.58187024299E+03  0.58551212252E+03  0.41800000000E+01 0.  1.
        -11    1    1    2    0    0 -0.16338371516E+02 -0.55044495480E+02 -0.32192999018E+03  0.32701033232E+03  0.00000000000E+00 0. -1.
         11    1    1    2    0    0 -0.23305870807E+02 -0.24817789139E+02 -0.23959317594E+02  0.41630940073E+02  0.00000000000E+00 0.  1.
</event>
<event>
 7    1  0.3151015E-009  0.1849979E+03  0.7561462E-02  0.1163052E+00
         -2   -1    0    0    0  501 -0.00000000000E+00  0.00000000000E+00  0.69298863096E+02  0.69298863096E+02  0.00000000000E+00 0.  1.
          2   -1    0    0  501    0  0.00000000000E+00 -0.00000000000E+00 -0.53834130706E+03  0.53834130706E+03  0.00000000000E+00 0. -1.
         25    2    1    2    0    0  0.10135987009E+03 -0.10998982026E+03 -0.16011252399E+03  0.25229807905E+03  0.12508683595E+03 0.  0.
          5    1    3    3  502    0 -0.29532389901E+02 -0.24131105424E+02 -0.33024266889E+02  0.50621605128E+02  0.41800000000E+01 0. -1.
         -5    1    3    3    0  502  0.13089226000E+03 -0.85858714837E+02 -0.12708825710E+03  0.20167647392E+03  0.41800000000E+01 0. -1.
        -11    1    1    2    0    0  0.19998719804E+01 -0.13699529492E+02 -0.32896513994E+02  0.35691136564E+02  0.00000000000E+00 0.  1.
         11    1    1    2    0    0 -0.10335974208E+03  0.12368934975E+03 -0.27603340597E+03  0.31965095454E+03  0.00000000000E+00 0. -1.
</event>
<event>
 7    1  0.3151015E-009  0.2890140E+03  0.7561462E-02  0.1090865E+00
         -2   -1    0    0    0  501 -0.00000000000E+00  0.00000000000E+00  0.46811683855E+02  0.46811683855E+02  0.00000000000E+00 0.  1.
          2   -1    0    0  501    0  0.00000000000E+00 -0.00000000000E+00 -0.18967899765E+04  0.18967899765E+04  0.00000000000E+00 0. -1.
         25    2    1    2    0    0  0.21952216121E+03  0.17060343628E+03 -0.87261788518E+03  0.92434026910E+03  0.12508975900E+03 0.  0.
          5    1    3    3  502    0  0.21414045189E+01  0.49073703746E+02 -0.84841830219E+02  0.98124525821E+02  0.41800000000E+01 0.  1.
         -5    1    3    3    0  502  0.21738075669E+03  0.12152973253E+03 -0.78777605496E+03  0.82621574328E+03  0.41800000000E+01 0.  1.
        -11    1    1    2    0    0 -0.11651776457E+03 -0.71474752513E+02 -0.34832470046E+03  0.37418595198E+03  0.00000000000E+00 0.  1.
         11    1    1    2    0    0 -0.10300439664E+03 -0.99128683766E+02 -0.62903570698E+03  0.64507543926E+03  0.00000000000E+00 0. -1.
</event>
<event>
 7    1  0.3151015E-009  0.1154713E+03  0.7561462E-02  0.1250761E+00
          1   -1    0    0  501    0  0.00000000000E+00  0.00000000000E+00  0.55407167510E+03  0.55407167510E+03  0.00000000000E+00 0. -1.
         -1   -1    0    0    0  501 -0.00000000000E+00 -0.00000000000E+00 -0.27063127740E+02  0.27063127740E+02  0.00000000000E+00 0.  1.
         25    2    1    2    0    0  0.53412450732E+02  0.21126131656E+01  0.32776952478E+03  0.35487727872E+03  0.12509064132E+03 0.  0.
          5    1    3    3  502    0  0.36789553965E+02 -0.57915470770E+02  0.12423370200E+03  0.14198295020E+03  0.41800000000E+01 0. -1.
         -5    1    3    3    0  502  0.16622896767E+02  0.60028083935E+02  0.20353582278E+03  0.21289432852E+03  0.41800000000E+01 0. -1.
        -11    1    1    2    0    0  0.15290583673E+02 -0.23309437666E+02  0.23790991317E+02  0.36648916781E+02  0.00000000000E+00 0.  1.
         11    1    1    2    0    0 -0.68703034404E+02  0.21196824501E+02  0.17544803126E+03  0.18960860734E+03  0.00000000000E+00 0. -1.
</event>
<event>
 7    1  0.3151015E-009  0.3527607E+03  0.7561462E-02  0.1061488E+00
         -1   -1    0    0    0  501 -0.00000000000E+00  0.00000000000E+00  0.21039735075E+03  0.21039735075E+03  0.00000000000E+00 0.  1.
          1   -1    0    0  501    0  0.00000000000E+00 -0.00000000000E+00 -0.99544820441E+03  0.99544820441E+03  0.00000000000E+00 0. -1.
         25    2    1    2    0    0  0.15860928012E+03 -0.29896281535E+03 -0.16393763916E+02  0.36118296630E+03  0.12509480784E+03 0.  0.
          5    1    3    3  502    0  0.10705866047E+03 -0.28310449981E+03 -0.33251621311E+02  0.30452070096E+03  0.41800000000E+01 0.  1.
         -5    1    3    3    0  502  0.51550619650E+02 -0.15858315546E+02  0.16857857395E+02  0.56662265346E+02  0.41800000000E+01 0.  1.
        -11    1    1    2    0    0 -0.71988949836E+02  0.57306092380E+02 -0.23817145346E+03  0.25532731614E+03  0.00000000000E+00 0.  1.
         11    1    1    2    0    0 -0.86620330287E+02  0.24165672297E+03 -0.53048563628E+03  0.58933527273E+03  0.00000000000E+00 0. -1.
</event>
<event>
 7    1  0.3151015E-009  0.3921807E+03  0.7561462E-02  0.1046521E+00
         -1   -1    0    0    0  501 -0.00000000000E+00  0.00000000000E+00  0.93441912407E+02  0.93441912407E+02  0.00000000000E+00 0.  1.
          1   -1    0    0  501    0  0.00000000000E+00 -0.00000000000E+00 -0.16681702351E+04  0.16681702351E+04  0.00000000000E+00 0. -1.
         25    2    1    2    0    0  0.30377020103E+03  0.22660975894E+03 -0.77016211538E+03  0.86742536948E+03  0.12509504293E+03 0.  0.
          5    1    3    3  502    0  0.64715272941E+02  0.41983805180E-03 -0.18323948208E+03  0.19437655914E+03  0.41800000000E+01 0.  1.
         -5    1    3    3    0  502  0.23905492809E+03  0.22660933910E+03 -0.58692263331E+03  0.67304881034E+03  0.41800000000E+01 0.  1.
        -11    1    1    2    0    0 -0.25141785971E+03 -0.22549872331E+03 -0.68984969180E+03  0.76808411757E+03  0.00000000000E+00 0.  1.
         11    1    1    2    0    0 -0.52352341318E+02 -0.11110356301E+01 -0.11471651549E+03  0.12610266043E+03  0.00000000000E+00 0. -1.
</event>
<event>
 7    1  0.3151015E-009  0.1837135E+03  0.7561462E-02  0.1164257E+00
          1   -1    0    0  501    0  0.00000000000E+00  0.00000000000E+00  0.12037527285E+04  0.12037527285E+04  0.00000000000E+00 0. -1.
         -1   -1    0    0    0  501 -0.00000000000E+00 -0.00000000000E+00 -0.43693590093E+02  0.43693590093E+02  0.00000000000E+00 0.  1.
         25    2    1    2    0    0 -0.14354947358E+03 -0.95295005176E+02  0.31493735928E+03  0.38015852840E+03  0.12508947625E+03 0.  0.
          5    1    3    3  502    0 -0.30852856706E+02 -0.21002905953E+02  0.19796887229E+03  0.20149979559E+03  0.41800000000E+01 0. -1.
         -5    1    3    3    0  502 -0.11269661687E+03 -0.74292099223E+02  0.11696848699E+03  0.17865873281E+03  0.41800000000E+01 0. -1.
        -11    1    1    2    0    0  0.66509149614E+02 -0.68757409586E+01  0.29164956775E+03  0.29921599751E+03  0.00000000000E+00 0.  1.
         11    1    1    2    0    0  0.77040323962E+02  0.10217074613E+03  0.55347221137E+03  0.56807179268E+03  0.00000000000E+00 0. -1.
</event>
<event>
 7    1  0.3151015E-009  0.2453601E+03  0.7561462E-02  0.1116273E+00
         -1   -1    0    0    0  501 -0.00000000000E+00  0.00000000000E+00  0.40950948047E+02  0.40950948047E+02  0.00000000000E+00 0.  1.
          1   -1    0    0  501    0  0.00000000000E+00 -0.00000000000E+00 -0.16335683227E+04  0.16335683227E+04  0.00000000000E+00 0. -1.
         25    2    1    2    0    0  0.12973745922E+03  0.19429856715E+03 -0.86886596359E+03  0.90838329162E+03  0.12509356611E+03 0.  0.
          5    1    3    3  502    0  0.86273546288E+01  0.78245679540E+02 -0.45533389890E+03  0.46210740040E+03  0.41800000000E+01 0. -1.
         -5    1    3    3    0  502  0.12111010459E+03  0.11605288761E+03 -0.41353206469E+03  0.44627589122E+03  0.41800000000E+01 0. -1.
        -11    1    1    2    0    0 -0.87340909665E+02 -0.17874031065E+03 -0.50501263096E+03  0.54278383412E+03  0.00000000000E+00 0.  1.
         11    1    1    2    0    0 -0.42396549559E+02 -0.15558256506E+02 -0.21873878011E+03  0.22335214502E+03  0.00000000000E+00 0. -1.
</event>
<event>
 7    1  0.3151015E-009  0.1304954E+03  0.7561462E-02  0.1226723E+00
         -1   -1    0    0    0  501 -0.00000000000E+00  0.00000000000E+00  0.46947353264E+02  0.46947353264E+02  0.00000000000E+00 0.  1.
          1   -1    0    0  501    0  0.00000000000E+00 -0.00000000000E+00 -0.54291288193E+03  0.54291288193E+03  0.00000000000E+00 0. -1.
         25    2    1    2    0    0  0.74053090667E+02 -0.51496215162E+02 -0.40173701675E+03  0.43032015707E+03  0.12508831496E+03 0.  0.
          5    1    3    3  502    0  0.19585872589E+02  0.31020996355E+02 -0.36521358609E+02  0.51934484252E+02  0.41800000000E+01 0.  1.
         -5    1    3    3    0  502  0.54467218078E+02 -0.82517211517E+02 -0.36521565814E+03  0.37838567282E+03  0.41800000000E+01 0.  1.
        -11    1    1    2    0    0 -0.25869057683E+02 -0.24168093093E+02 -0.44866492228E+02  0.57151614098E+02  0.00000000000E+00 0. -1.
         11    1    1    2    0    0 -0.48184032983E+02  0.75664308254E+02 -0.49362019688E+02  0.10238846403E+03  0.00000000000E+00 0.  1.
</event>
<event>
 7    1  0.3151015E-009  0.1189742E+03  0.7561462E-02  0.1244799E+00
          2   -1    0    0  501    0  0.00000000000E+00  0.00000000000E+00  0.32548160063E+02  0.32548160063E+02  0.00000000000E+00 0. -1.
         -2   -1    0    0    0  501 -0.00000000000E+00 -0.00000000000E+00 -0.58577973776E+03  0.58577973776E+03  0.00000000000E+00 0.  1.
         25    2    1    2    0    0 -0.50242403572E+02 -0.60756382767E+01 -0.45511721822E+03  0.47469701061E+03  0.12507740427E+03 0.  0.
          5    1    3    3  502    0  0.34933865551E+02  0.24971617823E+02 -0.12049879097E+03  0.12798979524E+03  0.41800000000E+01 0.  1.
         -5    1    3    3    0  502 -0.85176269124E+02 -0.31047256100E+02 -0.33461842725E+03  0.34670721537E+03  0.41800000000E+01 0.  1.
        -11    1    1    2    0    0  0.10453261982E+02 -0.41057458552E+02 -0.49052126270E+02  0.64815867505E+02  0.00000000000E+00 0.  1.
         11    1    1    2    0    0  0.39789141590E+02  0.47133096829E+02 -0.49062233205E+02  0.78815019712E+02  0.00000000000E+00 0. -1.
</event>
<event>
 7    1  0.3151015E-009  0.9739084E+02  0.7561462E-02  0.1285880E+00
          2   -1    0    0  501    0  0.00000000000E+00  0.00000000000E+00  0.92787443726E+02  0.92787443726E+02  0.00000000000E+00 0. -1.
         -2   -1    0    0    0  501 -0.00000000000E+00 -0.00000000000E+00 -0.20510276608E+03  0.20510276608E+03  0.00000000000E+00 0.  1.
         25    2    1    2    0    0 -0.59853754462E+02 -0.33800644866E+01  0.32122925368E+01  0.13874763437E+03  0.12508673176E+03 0.  0.
          5    1    3    3  502    0 -0.68065573805E+02  0.10746973692E+02 -0.48490273547E+02  0.84363492161E+02  0.41800000000E+01 0. -1.
         -5    1    3    3    0  502  0.82118193425E+01 -0.14127038179E+02  0.51702566084E+02  0.54384142214E+02  0.41800000000E+01 0. -1.
        -11    1    1    2    0    0  0.48308076713E+02  0.44797968049E+02 -0.61832327253E+02  0.90353555052E+02  0.00000000000E+00 0.  1.
         11    1    1    2    0    0  0.11545677749E+02 -0.41417903563E+02 -0.53695287639E+02  0.68789020380E+02  0.00000000000E+00 0. -1.
</event>
<event>
 7    1  0.3151015E-009  0.8725126E+02  0.7561462E-02  0.1309648E+00
         -1   -1    0    0    0  501 -0.00000000000E+00  0.00000000000E+00  0.14827226444E+03  0.14827226444E+03  0.00000000000E+00 0.  1.
          1   -1    0    0  501    0  0.00000000000E+00 -0.00000000000E+00 -0.86866987160E+02  0.86866987160E+02  0.00000000000E+00 0. -1.
         25    2    1    2    0    0  0.22770680992E+02 -0.42600518480E+01  0.78745827132E+01  0.12746217799E+03  0.12509174956E+03 0.  0.
          5    1    3    3  502    0  0.65739453568E+02  0.26101109953E+02  0.19351734965E+02  0.73450022072E+02  0.41800000000E+01 0. -1.
         -5    1    3    3    0  502 -0.42968772576E+02 -0.30361161801E+02 -0.11477152251E+02  0.54012155913E+02  0.41800000000E+01 0. -1.
        -11    1    1    2    0    0 -0.16768113631E+02  0.24538651445E+02  0.73070620267E+02  0.78883652272E+02  0.00000000000E+00 0.  1.
         11    1    1    2    0    0 -0.60025673616E+01 -0.20278599597E+02 -0.19539925697E+02  0.28793421346E+02  0.00000000000E+00 0. -1.
</event>
<event>
 7    1  0.3151015E-009  0.2014888E+03  0.7561462E-02  0.1148489E+00
          1   -1    0    0  501    0  0.00000000000E+00  0.00000000000E+00  0.61542601235E+02  0.61542601235E+02  0.00000000000E+00 0. -1.
         -1   -1    0    0    0  501 -0.00000000000E+00 -0.00000000000E+00 -0.71898198913E+03  0.71898198913E+03  0.00000000000E+00 0.  1.
         25    2    1    2    0    0 -0.17661286355E+03  0.34985137902E+02 -0.35372986622E+03  0.41615697972E+03  0.12508297274E+03 0.  0.
          5    1    3    3  502    0 -0.73995592435E+02 -0.42840846732E+02 -0.18503252700E+03  0.20387543819E+03  0.41800000000E+01 0. -1.
         -5    1    3    3    0  502 -0.10261727111E+03  0.77825984634E+02 -0.16869733922E+03  0.21228154153E+03  0.41800000000E+01 0. -1.
        -11    1    1    2    0    0  0.49464659138E+02  0.15309657722E+02 -0.14978145906E+03  0.15847909515E+03  0.00000000000E+00 0.  1.
         11    1    1    2    0    0  0.12714820441E+03 -0.50294795623E+02 -0.15392806261E+03  0.20588851549E+03  0.00000000000E+00 0. -1.
</event>
<event>
 7    1  0.3151015E-009  0.9218032E+02  0.7561462E-02  0.1297656E+00
         -4   -1    0    0    0  501 -0.00000000000E+00  0.00000000000E+00  0.21521806422E+02  0.21521806422E+02  0.00000000000E+00 0. -1.
          4   -1    0    0  501    0  0.00000000000E+00 -0.00000000000E+00 -0.64042972394E+03  0.64042972394E+03  0.00000000000E+00 0.  1.
         25    2    1    2    0    0  0.13504237237E+02  0.24647939926E+02 -0.44365906482E+03  0.46181294426E+03  0.12509174366E+03 0.  0.
          5    1    3    3  502    0 -0.28471721224E+02  0.34335384274E+02 -0.39141034188E+03  0.39396584326E+03  0.41800000000E+01 0.  1.
         -5    1    3    3    0  502  0.41975958461E+02 -0.96874443477E+01 -0.52248722933E+02  0.67847101005E+02  0.41800000000E+01 0.  1.
        -11    1    1    2    0    0  0.20005610077E+02 -0.50264589036E+02 -0.10720248282E+03  0.12007966384E+03  0.00000000000E+00 0.  1.
         11    1    1    2    0    0 -0.33509847315E+02  0.25616649110E+02 -0.68046369882E+02  0.80058922256E+02  0.00000000000E+00 0. -1.
</event>
<event>
 7    1  0.3151015E-009  0.7425033E+02  0.7561462E-02  0.1346208E+00
         -1   -1    0    0    0  501 -0.00000000000E+00  0.00000000000E+00  0.88041878173E+02  0.88041878173E+02  0.00000000000E+00 0.  1.
          1   -1    0    0  501    0  0.00000000000E+00 -0.00000000000E+00 -0.16397146563E+03  0.16397146563E+03  0.00000000000E+00 0. -1.
         25    2    1    2    0    0  0.10412385983E+02 -0.50604556806E+02 -0.45684686345E+02  0.14284885483E+03  0.12509782495E+03 0.  0.
          5    1    3    3  502    0  0.10882842388E+02 -0.42327712228E+02  0.38354958080E+02  0.58297913258E+02  0.41800000000E+01 0. -1.
         -5    1    3    3    0  502 -0.47045640521E+00 -0.82768445778E+01 -0.84039644425E+02  0.84550941570E+02  0.41800000000E+01 0. -1.
        -11    1    1    2    0    0  0.30802818844E+02  0.43788671687E+02  0.59804903691E+01  0.53870471336E+02  0.00000000000E+00 0.  1.
         11    1    1    2    0    0 -0.41215204827E+02  0.68158851188E+01 -0.36225391485E+02  0.55294017643E+02  0.00000000000E+00 0. -1.
</event>
<event>
 6    1  0.3151015E-009  0.1145078E+03  0.7561462E-02  0.1252443E+00
         -2   -1    0    0    0  501 -0.00000000000E+00  0.00000000000E+00  0.17405988720E+03  0.17405988720E+03  0.00000000000E+00 0.  1.
          2   -1    0    0  501    0  0.00000000000E+00 -0.00000000000E+00 -0.18456737283E+03  0.18456737283E+03  0.00000000000E+00 0. -1.
          5    1    1    2  502    0  0.64282170535E+02  0.47512934702E+02 -0.11804934187E+03  0.14262817369E+03  0.41800000000E+01 0.  1.
         -5    1    1    2    0  502 -0.46747207231E+02  0.43037110255E+01 -0.18847857541E+02  0.50759604474E+02  0.41800000000E+01 0.  1.
        -11    1    1    2    0    0  0.18954668749E+02 -0.61279244097E+02  0.10149243993E+03  0.12006306921E+03  0.00000000000E+00 0.  1.
         11    1    1    2    0    0 -0.36489632053E+02  0.94625983691E+01  0.24897273853E+02  0.45176412657E+02  0.00000000000E+00 0. -1.
</event>
<event>
 7    1  0.3151015E-009  0.1636869E+03  0.7561462E-02  0.1184596E+00
          2   -1    0    0  501    0  0.00000000000E+00  0.00000000000E+00  0.91673342033E+02  0.91673342033E+02  0.00000000000E+00 0. -1.
         -2   -1    0    0    0  501 -0.00000000000E+00 -0.00000000000E+00 -0.32257474423E+03  0.32257474423E+03  0.00000000000E+00 0.  1.
         25    2    1    2    0    0 -0.12428777443E+03  0.11769846225E+02 -0.17495122235E+03  0.24867962864E+03  0.12509055657E+03 0.  0.
          5    1    3    3  502    0 -0.11200342059E+03  0.59722234350E+02 -0.12848446513E+03  0.18065780271E+03  0.41800000000E+01 0. -1.
         -5    1    3    3    0  502 -0.12284353842E+02 -0.47952388125E+02 -0.46466757216E+02  0.68021825927E+02  0.41800000000E+01 0. -1.
        -11    1    1    2    0    0  0.35168783445E+02  0.35369778569E+02 -0.39043419166E+02  0.63342348750E+02  0.00000000000E+00 0.  1.
         11    1    1    2    0    0  0.89118990982E+02 -0.47139624794E+02 -0.16906760679E+02  0.10222610888E+03  0.00000000000E+00 0. -1.
</event>
<event>
 7    1  0.3151015E-009  0.8364587E+02  0.7561462E-02  0.1319012E+00
          2   -1    0    0  501    0  0.00000000000E+00  0.00000000000E+00  0.55601890127E+03  0.55601890127E+03  0.00000000000E+00 0. -1.
         -2   -1    0    0    0  501 -0.00000000000E+00 -0.00000000000E+00 -0.41057323636E+02  0.41057323636E+02  0.00000000000E+00 0.  1.
         25    2    1    2    0    0 -0.70503686588E+02  0.25483918309E+02  0.41387651438E+03  0.43882458684E+03  0.12511214546E+03 0.  0.
          5    1    3    3  502    0 -0.24589643115E+02 -0.29398056202E+01  0.36502077358E+03  0.36588376645E+03  0.41800000000E+01 0.  1.
         -5    1    3    3    0  502 -0.45914043472E+02  0.28423723929E+02  0.48855740807E+02  0.72940820394E+02  0.41800000000E+01 0.  1.
        -11    1    1    2    0    0  0.36439873302E+02  0.11036263888E+02  0.10139723087E+03  0.10831002684E+03  0.00000000000E+00 0. -1.
         11    1    1    2    0    0  0.34063813285E+02 -0.36520182198E+02 -0.31216761480E+00  0.49941611226E+02  0.00000000000E+00 0.  1.
</event>
<event>
 7    1  0.3151015E-009  0.1215838E+03  0.7561462E-02  0.1240507E+00
         -2   -1    0    0    0  501 -0.00000000000E+00  0.00000000000E+00  0.50659408769E+02  0.50659408769E+02  0.00000000000E+00 0.  1.
          2   -1    0    0  501    0  0.00000000000E+00 -0.00000000000E+00 -0.63033895244E+03  0.63033895244E+03  0.00000000000E+00 0. -1.
         25    2    1    2    0    0 -0.49687343271E+02  0.89198377722E+02 -0.11935991199E+03  0.20082747994E+03  0.12513874476E+03 0.  0.
          5    1    3    3  502    0 -0.56952633149E+02  0.71347482263E+02 -0.12588026262E+02  0.92249642021E+02  0.41800000000E+01 0. -1.
         -5    1    3    3    0  502  0.72652898779E+01  0.17850895458E+02 -0.10677188573E+03  0.10857783792E+03  0.41800000000E+01 0. -1.
        -11    1    1    2    0    0 -0.89345512326E+01 -0.69714930104E+02 -0.18250871557E+03  0.19557461221E+03  0.00000000000E+00 0.  1.
         11    1    1    2    0    0  0.58621894504E+02 -0.19483447618E+02 -0.27781091611E+03  0.28459626905E+03  0.00000000000E+00 0. -1.
</event>
<event>
 7    1  0.3151015E-009  0.2751726E+03  0.7561462E-02  0.1098355E+00
          2   -1    0    0  501    0  0.00000000000E+00  0.00000000000E+00  0.65250222735E+03  0.65250222735E+03  0.00000000000E+00 0. -1.
         -2   -1    0    0    0  501 -0.00000000000E+00 -0.00000000000E+00 -0.13767773090E+03  0.13767773090E+03  0.00000000000E+00 0.  1.
         25    2    1    2    0    0  0.22441837269E+03  0.14785941631E+03  0.36242330981E+03  0.46821303444E+03  0.12508707818E+03 0.  0.
          5    1    3    3  502    0  0.17182162882E+03  0.97616130876E+02  0.33766574526E+03  0.39126360559E+03  0.41800000000E+01 0.  1.
         -5    1    3    3    0  502  0.52596743868E+02  0.50243285436E+02  0.24757564552E+02  0.76949428844E+02  0.41800000000E+01 0.  1.
        -11    1    1    2    0    0 -0.11641347155E+03 -0.30517015046E+02  0.39863876785E+02  0.12677741612E+03  0.00000000000E+00 0. -1.
         11    1    1    2    0    0 -0.10800490113E+03 -0.11734240127E+03  0.11253730986E+03  0.19518950769E+03  0.00000000000E+00 0.  1.
</event>
<event>
 7    1  0.3151015E-009  0.1043986E+03  0.7561462E-02  0.1271309E+00
         -3   -1    0    0    0  501 -0.00000000000E+00  0.00000000000E+00  0.59559052544E+02  0.59559052544E+02  0.00000000000E+00 0.  1.
          3   -1    0    0  501    0  0.00000000000E+00 -0.00000000000E+00 -0.29272595974E+03  0.29272595974E+03  0.00000000000E+00 0. -1.
         25    2    1    2    0    0  0.73527287119E+02  0.12370476687E+02 -0.11046993248E+03  0.18278124824E+03  0.12508432389E+03 0.  0.
          5    1    3    3  502    0  0.43903152368E+02  0.48908921873E+02 -0.36140499117E+01  0.65955312018E+02  0.41800000000E+01 0.  1.
         -5    1    3    3    0  502  0.29624134751E+02 -0.36538445186E+02 -0.10685588257E+03  0.11682593623E+03  0.41800000000E+01 0.  1.
        -11    1    1    2    0    0 -0.18246279753E+02 -0.32180690549E+02 -0.99867204670E+02  0.10649874242E+03  0.00000000000E+00 0. -1.
         11    1    1    2    0    0 -0.55281007366E+02  0.19810213863E+02 -0.22829770053E+02  0.63005021620E+02  0.00000000000E+00 0.  1.
</event>
<event>
 7    1  0.3151015E-009  0.8153968E+02  0.7561462E-02  0.1324738E+00
          1   -1    0    0  501    0  0.00000000000E+00  0.00000000000E+00  0.29644896024E+02  0.29644896024E+02  0.00000000000E+00 0. -1.
         -1   -1    0    0    0  501 -0.00000000000E+00 -0.00000000000E+00 -0.43162740572E+03  0.43162740572E+03  0.00000000000E+00 0.  1.
         25    2    1    2    0    0  0.24968590614E-01 -0.17818271104E+02 -0.27324854610E+03  0.30104845142E+03  0.12509160941E+03 0.  0.
          5    1    3    3  502    0  0.30640141821E+02 -0.20085641069E+02 -0.13207716209E+02  0.39168449490E+02  0.41800000000E+01 0.  1.
         -5    1    3    3    0  502 -0.30615173231E+02  0.22673699651E+01 -0.26004082989E+03  0.26188000193E+03  0.41800000000E+01 0.  1.
        -11    1    1    2    0    0 -0.34415765728E+02  0.41164652603E+02 -0.67805486448E+02  0.86467089387E+02  0.00000000000E+00 0. -1.
         11    1    1    2    0    0  0.34390797138E+02 -0.23346381499E+02 -0.60928477147E+02  0.73756760940E+02  0.00000000000E+00 0.  1.
</event>
<event>
 7    1  0.3151015E-009  0.1668710E+03  0.7561462E-02  0.1181151E+00
         -1   -1    0    0    0  501 -0.00000000000E+00  0.00000000000E+00  0.40488220338E+02  0.40488220338E+02  0.00000000000E+00 0.  1.
          1   -1    0    0  501    0  0.00000000000E+00 -0.00000000000E+00 -0.11525739788E+04  0.11525739788E+04  0.00000000000E+00 0. -1.
         25    2    1    2    0    0 -0.76238943405E+02 -0.12187869737E+03 -0.24627594457E+03  0.31139430980E+03  0.12509109457E+03 0.  0.
          5    1    3    3  502    0  0.52143099569E+01 -0.72239194278E+02 -0.18298917996E+03  0.19684563139E+03  0.41800000000E+01 0.  1.
         -5    1    3    3    0  502 -0.81453253362E+02 -0.49639503094E+02 -0.63286764611E+02  0.11454867841E+03  0.41800000000E+01 0.  1.
        -11    1    1    2    0    0  0.57646005072E+02  0.18299286155E+02 -0.35737055687E+03  0.36245225988E+03  0.00000000000E+00 0. -1.
         11    1    1    2    0    0  0.18592938333E+02  0.10357941122E+03 -0.50843925699E+03  0.51921562942E+03  0.00000000000E+00 0.  1.
</event>
<event>
 7    1  0.3151015E-009  0.1584540E+03  0.7561462E-02  0.1190453E+00
          2   -1    0    0  501    0  0.00000000000E+00  0.00000000000E+00  0.23744518223E+03  0.23744518223E+03  0.00000000000E+00 0.  1.
         -2   -1    0    0    0  501 -0.00000000000E+00 -0.00000000000E+00 -0.14531912210E+03  0.14531912210E+03  0.00000000000E+00 0. -1.
         25    2    1    2    0    0 -0.79477207256E+02  0.89774222567E+02 -0.44741880586E+02  0.17894167284E+03  0.12506897652E+03 0.  0.
          5    1    3    3  502    0 -0.10717202106E+03  0.86988414054E+02 -0.16514609010E+02  0.13907922558E+03  0.41800000000E+01 0.  1.
         -5    1    3    3    0  502  0.27694813802E+02  0.27858085137E+01 -0.28227271576E+02  0.39862447256E+02  0.41800000000E+01 0.  1.
        -11    1    1    2    0    0 -0.20426067894E+02 -0.95971817642E+01  0.25809888514E+02  0.34285280990E+02  0.00000000000E+00 0.  1.
         11    1    1    2    0    0  0.99903275150E+02 -0.80177040803E+02  0.11105805220E+03  0.16953735051E+03  0.00000000000E+00 0. -1.
</event>
<event>
 7    1  0.3151015E-009  0.2084136E+03  0.7561462E-02  0.1142828E+00
          1   -1    0    0  501    0  0.00000000000E+00  0.00000000000E+00  0.28567396475E+03  0.28567396475E+03  0.00000000000E+00 0. -1.
         -1   -1    0    0    0  501 -0.00000000000E+00 -0.00000000000E+00 -0.35066386860E+03  0.35066386860E+03  0.00000000000E+00 0.  1.
         25    2    1    2    0    0  0.17883916032E+03 -0.41858285510E+02 -0.26883193973E+03  0.34878899305E+03  0.12509032147E+03 0.  0.
          5    1    3    3  502    0  0.19097576252E+03 -0.15048191129E+02 -0.22129397167E+03  0.29272287957E+03  0.41800000000E+01 0. -1.
         -5    1    3    3    0  502 -0.12136602201E+02 -0.26810094382E+02 -0.47537968065E+02  0.56066113486E+02  0.41800000000E+01 0. -1.
        -11    1    1    2    0    0 -0.55519781674E+02 -0.18060875678E+02  0.99072153908E+02  0.11499536107E+03  0.00000000000E+00 0.  1.
         11    1    1    2    0    0 -0.12331937865E+03  0.59919161189E+02  0.10476988197E+03  0.17255347923E+03  0.00000000000E+00 0. -1.
</event>
<event>
 7    1  0.3151015E-009  0.1313631E+03  0.7561462E-02  0.1225447E+00
         -2   -1    0    0    0  501 -0.00000000000E+00  0.00000000000E+00  0.97301572727E+02  0.97301572727E+02  0.00000000000E+00 0.  1.
          2   -1    0    0  501    0  0.00000000000E+00 -0.00000000000E+00 -0.38542519259E+03  0.38542519259E+03  0.00000000000E+00 0. -1.
         25    2    1    2    0    0 -0.42920845739E+02 -0.80554781311E+02 -0.31257196046E+03  0.34882753514E+03  0.12509255380E+03 0.  0.
          5    1    3    3  502    0  0.16499573519E+02 -0.73073982254E+02 -0.84577505941E+02  0.11306135379E+03  0.41800000000E+01 0.  1.
         -5    1    3    3    0  502 -0.59420419258E+02 -0.74807990575E+01 -0.22799445452E+03  0.23576618135E+03  0.41800000000E+01 0.  1.
        -11    1    1    2    0    0  0.25888222511E+02  0.99132459466E+02  0.32421134911E+02  0.10746429441E+03  0.00000000000E+00 0.  1.
         11    1    1    2    0    0  0.17032623228E+02 -0.18577678155E+02 -0.79727943137E+01  0.26434935763E+02  0.00000000000E+00 0. -1.
</event>
<event>
 7    1  0.3316502E-009  0.1268775E+03  0.7561462E-02  0.1232164E+00
         -2   -1    0    0    0  501 -0.00000000000E+00  0.00000000000E+00  0.54454315411E+02  0.54454315411E+02  0.00000000000E+00 0.  1.
          2   -1    0    0  501    0  0.00000000000E+00 -0.00000000000E+00 -0.33244822188E+03  0.33244822188E+03  0.00000000000E+00 0. -1.
         25    2    1    2    0    0  0.51426965003E+02  0.60741088523E+02 -0.15135268829E+03  0.21187578843E+03  0.12509796524E+03 0.  0.
          5    1    3    3  502    0 -0.23849872663E+02 -0.23092838001E+02 -0.50642905607E+02  0.60698203279E+02  0.41800000000E+01 0. -1.
         -5    1    3    3    0  502  0.75276837665E+02  0.83833926524E+02 -0.10070978268E+03  0.15117758515E+03  0.41800000000E+01 0. -1.
        -11    1    1    2    0    0 -0.36490155670E+02  0.78693345497E+01 -0.86343897251E+02  0.94067669683E+02  0.00000000000E+00 0.  1.
         11    1    1    2    0    0 -0.14936809332E+02 -0.68610423073E+02 -0.40297320936E+02  0.80959079181E+02  0.00000000000E+00 0. -1.
</event>
<event>
 7    1  0.3151015E-009  0.9921837E+02  0.7561462E-02  0.1281948E+00
          2   -1    0    0  501    0  0.00000000000E+00  0.00000000000E+00  0.83555906124E+02  0.83555906124E+02  0.00000000000E+00 0. -1.
         -2   -1    0    0    0  501 -0.00000000000E+00 -0.00000000000E+00 -0.15492288691E+03  0.15492288691E+03  0.00000000000E+00 0.  1.
         25    2    1    2    0    0 -0.40348904491E+02  0.50248925414E+01 -0.31241238099E+02  0.13519183103E+03  0.12509009785E+03 0.  0.
          5    1    3    3  502    0  0.40339612528E+02  0.79012085034E+01 -0.35153971385E+02  0.54249309110E+02  0.41800000000E+01 0.  1.
         -5    1    3    3    0  502 -0.80688517020E+02 -0.28763159619E+01  0.39127332866E+01  0.80942521916E+02  0.41800000000E+01 0.  1.
        -11    1    1    2    0    0 -0.11393401196E+02  0.16647504112E+02  0.14611610565E+02  0.24908796584E+02  0.00000000000E+00 0. -1.
         11    1    1    2    0    0  0.51742305687E+02 -0.21672396653E+02 -0.54737353257E+02  0.78378165429E+02  0.00000000000E+00 0.  1.
</event>
<event>
 7    1  0.3151015E-009  0.1481591E+03  0.7561462E-02  0.1202753E+00
          2   -1    0    0  501    0  0.00000000000E+00  0.00000000000E+00  0.36927464058E+03  0.36927464058E+03  0.00000000000E+00 0. -1.
         -2   -1    0    0    0  501 -0.00000000000E+00 -0.00000000000E+00 -0.79898168280E+02  0.79898168280E+02  0.00000000000E+00 0.  1.
         25    2    1    2    0    0  0.81126594088E+02 -0.10499233472E+03  0.14805040870E+03  0.23488888729E+03  0.12509576827E+03 0.  0.
          5    1    3    3  502    0 -0.73738563837E+01 -0.12941975879E+02 -0.19051157042E+02  0.24541546044E+02  0.41800000000E+01 0.  1.
         -5    1    3    3    0  502  0.88500450471E+02 -0.92050358839E+02  0.16710156574E+03  0.21034734125E+03  0.41800000000E+01 0.  1.
        -11    1    1    2    0    0 -0.54406565970E+01  0.69111794089E+02  0.31458219857E+02  0.76129235008E+02  0.00000000000E+00 0.  1.
         11    1    1    2    0    0 -0.75685937491E+02  0.35880540630E+02  0.10986784374E+03  0.13815468656E+03  0.00000000000E+00 0. -1.
</event>
<event>
 7    1  0.3151015E-009  0.3055301E+03  0.7561462E-02  0.1082508E+00
         -2   -1    0    0    0  501 -0.00000000000E+00  0.00000000000E+00  0.17001091303E+03  0.17001091303E+03  0.00000000000E+00 0.  1.
          2   -1    0    0  501    0  0.00000000000E+00 -0.00000000000E+00 -0.61111805723E+03  0.61111805723E+03  0.00000000000E+00 0. -1.
         25    2    1    2    0    0  0.28417976608E+03  0.68759237340E+02 -0.12592568671E+03  0.34203859942E+03  0.12508857963E+03 0.  0.
          5    1    3    3  502    0  0.63128849512E+02 -0.32179914254E+02 -0.66098831142E+01  0.71287877489E+02  0.41800000000E+01 0. -1.
         -5    1    3    3    0  502  0.22105091657E+03  0.10093915159E+03 -0.11931580360E+03  0.27075072193E+03  0.41800000000E+01 0. -1.
        -11    1    1    2    0    0 -0.55165196989E+02 -0.35547882457E+02 -0.11819366335E+03  0.13519095000E+03  0.00000000000E+00 0.  1.
         11    1    1    2    0    0 -0.22901456909E+03 -0.33211354883E+02 -0.19698779414E+03  0.30389942084E+03  0.00000000000E+00 0. -1.
</event>
<event>
 7    1  0.3151015E-009  0.2435618E+03  0.7561462E-02  0.1117443E+00
         -1   -1    0    0    0  501 -0.00000000000E+00  0.00000000000E+00  0.80520539118E+03  0.80520539118E+03  0.00000000000E+00 0.  1.
          1   -1    0    0  501    0  0.00000000000E+00 -0.00000000000E+00 -0.81488752767E+02  0.81488752767E+02  0.00000000000E+00 0. -1.
         25    2    1    2    0    0  0.22949307544E+03  0.19962114961E+02  0.32346684698E+03  0.41634652186E+03  0.12509223583E+03 0.  0.
          5    1    3    3  502    0  0.59127194390E+02  0.49936591846E+02  0.16241656700E+03  0.17996194586E+03  0.41800000000E+01 0. -1.
         -5    1    3    3    0  502  0.17036588105E+03 -0.29974476886E+02  0.16105027998E+03  0.23638457601E+03  0.41800000000E+01 0. -1.
        -11    1    1    2    0    0 -0.13726072827E+03  0.14718155065E+02  0.16396682576E+03  0.21434143688E+03  0.00000000000E+00 0.  1.
         11    1    1    2    0    0 -0.92232347168E+02 -0.34680270026E+02  0.23628296568E+03  0.25600618521E+03  0.00000000000E+00 0. -1.
</event>
<event>
 7    1  0.3151015E-009  0.1348033E+03  0.7561462E-02  0.1220498E+00
         -2   -1    0    0    0  501 -0.00000000000E+00  0.00000000000E+00  0.20261540531E+02  0.20261540531E+02  0.00000000000E+00 0.  1.
          2   -1    0    0  501    0  0.00000000000E+00 -0.00000000000E+00 -0.23273465103E+04  0.23273465103E+04  0.00000000000E+00 0. -1.
         25    2    1    2    0    0  0.98818664381E+02  0.28293372013E+02 -0.20545279482E+04  0.20608974293E+04  0.12508988964E+03 0.  0.
          5    1    3    3  502    0 -0.27447734878E+02  0.21797994216E+02 -0.41852445193E+03  0.42001038079E+03  0.41800000000E+01 0.  1.
         -5    1    3    3    0  502  0.12626639926E+03  0.64953777967E+01 -0.16360034963E+04  0.16408870485E+04  0.41800000000E+01 0.  1.
        -11    1    1    2    0    0 -0.76796347886E+02 -0.69048882404E+01 -0.78749390413E+02  0.11021262641E+03  0.00000000000E+00 0.  1.
         11    1    1    2    0    0 -0.22022316496E+02 -0.21388483772E+02 -0.17380763112E+03  0.17649799516E+03  0.00000000000E+00 0. -1.
</event>
<event>
 7    1  0.3151015E-009  0.1348174E+03  0.7561462E-02  0.1220478E+00
          1   -1    0    0  501    0  0.00000000000E+00  0.00000000000E+00  0.68795200952E+03  0.68795200952E+03  0.00000000000E+00 0. -1.
         -1   -1    0    0    0  501 -0.00000000000E+00 -0.00000000000E+00 -0.38949984517E+02  0.38949984517E+02  0.00000000000E+00 0.  1.
         25    2    1    2    0    0  0.72425004019E+02  0.56674868468E+02  0.52540510690E+03  0.54786468494E+03  0.12509102578E+03 0.  0.
          5    1    3    3  502    0  0.51867224688E+02  0.90535374685E+02  0.27214677226E+03  0.29149305500E+03  0.41800000000E+01 0. -1.
         -5    1    3    3    0  502  0.20557779332E+02 -0.33860506217E+02  0.25325833464E+03  0.25637162994E+03  0.41800000000E+01 0. -1.
        -11    1    1    2    0    0 -0.60922564745E+02  0.64050795982E+01  0.37998656696E+02  0.72086627404E+02  0.00000000000E+00 0.  1.
         11    1    1    2    0    0 -0.11502439274E+02 -0.63079948067E+02  0.85598261407E+02  0.10695068169E+03  0.00000000000E+00 0. -1.
</event>
<event>
 6    1  0.3151015E-009  0.1094525E+03  0.7561462E-02  0.1261587E+00
          2   -1    0    0  501    0  0.00000000000E+00  0.00000000000E+00  0.13636671144E+03  0.13636671144E+03  0.00000000000E+00 0. -1.
         -2   -1    0    0    0  501 -0.00000000000E+00 -0.00000000000E+00 -0.11536644681E+03  0.11536644681E+03  0.00000000000E+00 0.  1.
          5    1    1    2  502    0  0.40471636502E+02  0.10495381493E+02  0.24864351438E+02  0.48824325558E+02  0.41800000000E+01 0.  1.
         -5    1    1    2    0  502 -0.92015254405E+02 -0.51654099400E+01  0.25663222485E+02  0.95757829400E+02  0.41800000000E+01 0.  1.
        -11    1    1    2    0    0  0.18262825094E+01 -0.29356116915E+02 -0.41288723349E+02  0.50693940308E+02  0.00000000000E+00 0.  1.
         11    1    1    2    0    0  0.49717335394E+02  0.24026145363E+02  0.11761414052E+02  0.56457062979E+02  0.00000000000E+00 0. -1.
</event>
<event>
 7    1  0.3151015E-009  0.1164254E+03  0.7561462E-02  0.1249113E+00
          2   -1    0    0  501    0  0.00000000000E+00  0.00000000000E+00  0.75068805172E+03  0.75068805172E+03  0.00000000000E+00 0.  1.
         -2   -1    0    0    0  501 -0.00000000000E+00 -0.00000000000E+00 -0.18733649009E+02  0.18733649009E+02  0.00000000000E+00 0. -1.
         25    2    1    2    0    0 -0.43008244680E+02  0.17104123337E+02  0.45068264860E+03  0.47000594926E+03  0.12509389452E+03 0.  0.
          5    1    3    3  502    0 -0.13967242509E+02  0.69195929484E+02  0.19499469152E+03  0.20742122032E+03  0.41800000000E+01 0.  1.
         -5    1    3    3    0  502 -0.29041002170E+02 -0.52091806147E+02  0.25568795709E+03  0.26258472894E+03  0.41800000000E+01 0.  1.
        -11    1    1    2    0    0 -0.14145354674E+02 -0.38736751590E+02  0.10234621222E+03  0.11034207782E+03  0.00000000000E+00 0.  1.
         11    1    1    2    0    0  0.57153599354E+02  0.21632628253E+02  0.17892554189E+03  0.18907367364E+03  0.00000000000E+00 0. -1.
</event>
<event>
 7    1  0.3151015E-009  0.8469584E+02  0.7561462E-02  0.1316230E+00
          3   -1    0    0  501    0  0.00000000000E+00  0.00000000000E+00  0.29777002256E+03  0.29777002256E+03  0.00000000000E+00 0. -1.
         -3   -1    0    0    0  501 -0.00000000000E+00 -0.00000000000E+00 -0.63200088409E+02  0.63200088409E+02  0.00000000000E+00 0.  1.
         25    2    1    2    0    0 -0.67591966691E+02  0.17241194086E+01  0.19324817913E+03  0.23992362851E+03  0.12508733842E+03 0.  0.
          5    1    3    3  502    0 -0.40544333196E+02 -0.36443811370E+01  0.20544654540E+03  0.20948240949E+03  0.41800000000E+01 0.  1.
         -5    1    3    3    0  502 -0.27047633496E+02  0.53685005456E+01 -0.12198366274E+02  0.30441219022E+02  0.41800000000E+01 0.  1.
        -11    1    1    2    0    0  0.25442281843E+02 -0.37484833194E+02 -0.91225071203E+01  0.46213012898E+02  0.00000000000E+00 0.  1.
         11    1    1    2    0    0  0.42149684848E+02  0.35760713785E+02  0.50444262148E+02  0.74833469563E+02  0.00000000000E+00 0. -1.
</event>
<event>
 7    1  0.3151015E-009  0.1008272E+03  0.7561462E-02  0.1278566E+00
         -1   -1    0    0    0  501 -0.00000000000E+00  0.00000000000E+00  0.37498348159E+02  0.37498348159E+02  0.00000000000E+00 0.  1.
          1   -1    0    0  501    0  0.00000000000E+00 -0.00000000000E+00 -0.40999699854E+03  0.40999699854E+03  0.00000000000E+00 0. -1.
         25    2    1    2    0    0  0.54361358373E+02 -0.28260757427E+02 -0.19793309335E+03  0.24202849628E+03  0.12508579406E+03 0.  0.
          5    1    3    3  502    0  0.61092403768E+02 -0.65709575227E+02 -0.17679303666E+03  0.19830098408E+03  0.41800000000E+01 0. -1.
         -5    1    3    3    0  502 -0.67310453952E+01  0.37448817800E+02 -0.21140056690E+02  0.43727512204E+02  0.41800000000E+01 0. -1.
        -11    1    1    2    0    0 -0.28828509836E+02 -0.73387772820E+01 -0.47913270196E+01  0.30131336611E+02  0.00000000000E+00 0.  1.
         11    1    1    2    0    0 -0.25532848536E+02  0.35599534709E+02 -0.16977423002E+03  0.17533551381E+03  0.00000000000E+00 0. -1.
</event>
<event>
 7    1  0.3151015E-009  0.8517923E+02  0.7561462E-02  0.1314964E+00
         -1   -1    0    0    0  501 -0.00000000000E+00  0.00000000000E+00  0.19718735539E+02  0.19718735539E+02  0.00000000000E+00 0.  1.
          1   -1    0    0  501    0  0.00000000000E+00 -0.00000000000E+00 -0.64908902016E+03  0.64908902016E+03  0.00000000000E+00 0. -1.
         25    2    1    2    0    0  0.28916882909E+02  0.97641651232E+01 -0.36189886725E+03  0.38412185065E+03  0.12508909224E+03 0.  0.
          5    1    3    3  502    0  0.29051029433E+01 -0.27922807719E+02 -0.11347151185E+02  0.30567189175E+02  0.41800000000E+01 0. -1.
         -5    1    3    3    0  502  0.26011779966E+02  0.37686972842E+02 -0.35055171606E+03  0.35355466148E+03  0.41800000000E+01 0. -1.
        -11    1    1    2    0    0 -0.54513239800E+02  0.18775918907E+02 -0.13543889718E+03  0.14720028300E+03  0.00000000000E+00 0.  1.
         11    1    1    2    0    0  0.25596356891E+02 -0.28540084030E+02 -0.13203252019E+03  0.13748562205E+03  0.00000000000E+00 0. -1.
</event>
<event>
 7    1  0.3151015E-009  0.1836407E+03  0.7561462E-02  0.1164325E+00
          1   -1    0    0  501    0  0.00000000000E+00  0.00000000000E+00  0.14387050463E+03  0.14387050463E+03  0.00000000000E+00 0. -1.
         -1   -1    0    0    0  501 -0.00000000000E+00 -0.00000000000E+00 -0.26465191554E+03  0.26465191554E+03  0.00000000000E+00 0.  1.
         25    2    1    2    0    0 -0.11013123266E+03 -0.11329680506E+03 -0.99472315619E+02  0.22473682126E+03  0.12508734074E+03 0.  0.
          5    1    3    3  502    0  0.18785134029E+02 -0.13552284492E+02 -0.48489377534E+02  0.53900257969E+02  0.41800000000E+01 0. -1.
         -5    1    3    3    0  502 -0.12891636669E+03 -0.99744520567E+02 -0.50982938084E+02  0.17083656330E+03  0.41800000000E+01 0. -1.
        -11    1    1    2    0    0  0.10525597525E+03  0.48812459097E+02 -0.26157722331E+02  0.11893570922E+03  0.00000000000E+00 0. -1.
         11    1    1    2    0    0  0.48752574046E+01  0.64484345963E+02  0.48486270421E+01  0.64849889693E+02  0.00000000000E+00 0.  1.
</event>
<event>
 7    1  0.3151015E-009  0.1090717E+03  0.7561462E-02  0.1262299E+00
         -1   -1    0    0    0  501 -0.00000000000E+00  0.00000000000E+00  0.12403966047E+04  0.12403966047E+04  0.00000000000E+00 0.  1.
          1   -1    0    0  501    0  0.00000000000E+00 -0.00000000000E+00 -0.19587728763E+02  0.19587728763E+02  0.00000000000E+00 0. -1.
         25    2    1    2    0    0 -0.35852100883E+02 -0.64441057244E+02  0.10094888408E+04  0.10198790196E+04  0.12508985488E+03 0.  0.
          5    1    3    3  502    0  0.32618570746E+02 -0.15203871320E+01  0.92609818632E+02  0.98286996299E+02  0.41800000000E+01 0. -1.
         -5    1    3    3    0  502 -0.68470671629E+02 -0.62920670112E+02  0.91687902221E+03  0.92159202328E+03  0.41800000000E+01 0. -1.
        -11    1    1    2    0    0  0.33298232782E+02  0.62357169414E+01  0.15644185847E+03  0.16006783423E+03  0.00000000000E+00 0.  1.
         11    1    1    2    0    0  0.25538681007E+01  0.58205340303E+02  0.54878176656E+02  0.80037479690E+02  0.00000000000E+00 0. -1.
</event>
<event>
 7    1  0.3151015E-009  0.1163599E+03  0.7561462E-02  0.1249226E+00
          1   -1    0    0  501    0  0.00000000000E+00  0.00000000000E+00  0.18811912127E+03  0.18811912127E+03  0.00000000000E+00 0. -1.
         -1   -1    0    0    0  501 -0.00000000000E+00 -0.00000000000E+00 -0.72625123809E+02  0.72625123809E+02  0.00000000000E+00 0.  1.
         25    2    1    2    0    0  0.16353013023E+02 -0.42568342082E+02  0.67666505375E+02  0.14936179808E+03  0.12510278172E+03 0.  0.
          5    1    3    3  502    0  0.45986433675E+02  0.29656895753E+02  0.25134340395E+02  0.60361337087E+02  0.41800000000E+01 0. -1.
         -5    1    3    3    0  502 -0.29633420652E+02 -0.72225237835E+02  0.42532164981E+02  0.89000460998E+02  0.41800000000E+01 0. -1.
        -11    1    1    2    0    0  0.21713018530E+02  0.55389516961E+02  0.35882813935E+02  0.69476831381E+02  0.00000000000E+00 0. -1.
         11    1    1    2    0    0 -0.38066031553E+02 -0.12821174879E+02  0.11944678148E+02  0.41905615609E+02  0.00000000000E+00 0.  1.
</event>
<event>
 7    1  0.3151015E-009  0.1203033E+03  0.7561462E-02  0.1242598E+00
          2   -1    0    0  501    0  0.00000000000E+00  0.00000000000E+00  0.37821395982E+03  0.37821395982E+03  0.00000000000E+00 0.  1.
         -2   -1    0    0    0  501 -0.00000000000E+00 -0.00000000000E+00 -0.49314874804E+02  0.49314874804E+02  0.00000000000E+00 0. -1.
         25    2    1    2    0    0  0.83238125249E+02  0.34490333308E+02  0.19341271921E+03  0.24733446640E+03  0.12509072599E+03 0.  0.
          5    1    3    3  502    0  0.72776467156E+02  0.64295822431E+02  0.69760097861E+02  0.11964242812E+03  0.41800000000E+01 0.  1.
         -5    1    3    3    0  502  0.10461658093E+02 -0.29805489122E+02  0.12365262135E+03  0.12769203828E+03  0.41800000000E+01 0.  1.
        -11    1    1    2    0    0 -0.37057815285E+02 -0.50524959794E+02  0.44319466737E+02  0.76748083805E+02  0.00000000000E+00 0.  1.
         11    1    1    2    0    0 -0.46180309964E+02  0.16034626485E+02  0.91166899068E+02  0.10344628442E+03  0.00000000000E+00 0. -1.
</event>
<event>
 7    1  0.3151015E-009  0.1073380E+03  0.7561462E-02  0.1265580E+00
          1   -1    0    0  501    0  0.00000000000E+00  0.00000000000E+00  0.32928293009E+02  0.32928293009E+02  0.00000000000E+00 0. -1.
         -1   -1    0    0    0  501 -0.00000000000E+00 -0.00000000000E+00 -0.43821176305E+03  0.43821176305E+03  0.00000000000E+00 0.  1.
         25    2    1    2    0    0  0.63507046580E+02 -0.26614483861E+01 -0.26743896877E+03  0.30201208949E+03  0.12508985535E+03 0.  0.
          5    1    3    3  502    0  0.31361858754E+02 -0.61408950977E+02 -0.99167248380E+02  0.12085628240E+03  0.41800000000E+01 0. -1.
         -5    1    3    3    0  502  0.32145187826E+02  0.58747502591E+02 -0.16827172039E+03  0.18115580709E+03  0.41800000000E+01 0. -1.
        -11    1    1    2    0    0 -0.24553186535E+01 -0.14797043902E+02 -0.85585151773E+02  0.86889581089E+02  0.00000000000E+00 0.  1.
         11    1    1    2    0    0 -0.61051727926E+02  0.17458492288E+02 -0.52259349507E+02  0.82238385482E+02  0.00000000000E+00 0. -1.
</event>
<event>
 7    1  0.3151015E-009  0.1163574E+03  0.7561462E-02  0.1249230E+00
         -2   -1    0    0    0  501 -0.00000000000E+00  0.00000000000E+00  0.16961262553E+02  0.16961262553E+02  0.00000000000E+00 0.  1.
          2   -1    0    0  501    0  0.00000000000E+00 -0.00000000000E+00 -0.13790429270E+04  0.13790429270E+04  0.00000000000E+00 0. -1.
         25    2    1    2    0    0 -0.62575469880E+02  0.40808503220E+02 -0.10883536540E+04  0.10980628714E+04  0.12508944769E+03 0.  0.
          5    1    3    3  502    0 -0.80892347304E+02 -0.45978798828E+01 -0.89089717934E+03  0.89458368469E+03  0.41800000000E+01 0. -1.
         -5    1    3    3    0  502  0.18316877424E+02  0.45406383103E+02 -0.19745647466E+03  0.20347918668E+03  0.41800000000E+01 0. -1.
        -11    1    1    2    0    0  0.24600989023E+02 -0.56293388844E+02 -0.85408932195E+02  0.10520855472E+03  0.00000000000E+00 0. -1.
         11    1    1    2    0    0  0.37974480857E+02  0.15484885624E+02 -0.18831907821E+03  0.19273276342E+03  0.00000000000E+00 0.  1.
</event>
<event>
 7    1  0.3151015E-009  0.1070745E+03  0.7561462E-02  0.1266085E+00
         -1   -1    0    0    0  501 -0.00000000000E+00  0.00000000000E+00  0.69780092800E+03  0.69780092800E+03  0.00000000000E+00 0.  1.
          1   -1    0    0  501    0  0.00000000000E+00 -0.00000000000E+00 -0.22030855658E+02  0.22030855658E+02  0.00000000000E+00 0. -1.
         25    2    1    2    0    0 -0.46236343102E+02 -0.41991901374E+02  0.33415909118E+03  0.36223064294E+03  0.12509045234E+03 0.  0.
          5    1    3    3  502    0  0.18963976367E+02 -0.42437263633E+02  0.41774029677E+02  0.62634620616E+02  0.41800000000E+01 0.  1.
         -5    1    3    3    0  502 -0.65200319469E+02  0.44536225894E+00  0.29238506150E+03  0.29959602233E+03  0.41800000000E+01 0.  1.
        -11    1    1    2    0    0  0.45844068012E+02 -0.12605243962E+02  0.20591662290E+03  0.21133439458E+03  0.00000000000E+00 0.  1.
         11    1    1    2    0    0  0.39227508982E+00  0.54597145336E+02  0.13569435827E+03  0.14626674613E+03  0.00000000000E+00 0. -1.
</event>
<event>
 7    1  0.3151015E-009  0.8860949E+02  0.7561462E-02  0.1306254E+00
         -1   -1    0    0    0  501 -0.00000000000E+00  0.00000000000E+00  0.12607434315E+03  0.12607434315E+03  0.00000000000E+00 0.  1.
          1   -1    0    0  501    0  0.00000000000E+00 -0.00000000000E+00 -0.15552229317E+03  0.15552229317E+03  0.00000000000E+00 0. -1.
         25    2    1    2    0    0  0.89128955976E+01  0.24117824473E+02 -0.10052570423E+03  0.16252404279E+03  0.12509011995E+03 0.  0.
          5    1    3    3  502    0  0.39726979779E+02 -0.40098552833E+01 -0.11206141089E+03  0.11903589405E+03  0.41800000000E+01 0. -1.
         -5    1    3    3    0  502 -0.30814084182E+02  0.28127679756E+02  0.11535706661E+02  0.43488148737E+02  0.41800000000E+01 0. -1.
        -11    1    1    2    0    0 -0.21317225941E+02  0.31567731093E+02  0.33779513385E+02  0.50911700941E+02  0.00000000000E+00 0.  1.
         11    1    1    2    0    0  0.12404330344E+02 -0.55685555566E+02  0.37298240821E+02  0.68160892587E+02  0.00000000000E+00 0. -1.
</event>
<event>
 7    1  0.3151015E-009  0.1592886E+03  0.7561462E-02  0.1189502E+00
          1   -1    0    0  501    0  0.00000000000E+00  0.00000000000E+00  0.96077503452E+02  0.96077503452E+02  0.00000000000E+00 0.  1.
         -1   -1    0    0    0  501 -0.00000000000E+00 -0.00000000000E+00 -0.33608065616E+03  0.33608065616E+03  0.00000000000E+00 0. -1.
         25    2    1    2    0    0  0.77678742489E+02 -0.11099342051E+03 -0.15735851275E+03  0.24241237193E+03  0.12509408499E+03 0.  0.
          5    1    3    3  502    0  0.51875552840E+02 -0.22433488247E+02  0.36664848452E+01  0.56791283561E+02  0.41800000000E+01 0.  1.
         -5    1    3    3    0  502  0.25803189649E+02 -0.88559932259E+02 -0.16102499759E+03  0.18562108837E+03  0.41800000000E+01 0.  1.
        -11    1    1    2    0    0  0.22318880378E+02  0.43597440716E+02 -0.13785258704E+02  0.50881259967E+02  0.00000000000E+00 0.  1.
         11    1    1    2    0    0 -0.99997622866E+02  0.67395979791E+02 -0.68859381259E+02  0.13886452772E+03  0.00000000000E+00 0. -1.
</event>
<event>
 7    1  0.3151015E-009  0.1272857E+03  0.7561462E-02  0.1231540E+00
         -2   -1    0    0    0  501 -0.00000000000E+00  0.00000000000E+00  0.88439045186E+02  0.88439045186E+02  0.00000000000E+00 0.  1.
          2   -1    0    0  501    0  0.00000000000E+00 -0.00000000000E+00 -0.23294550246E+03  0.23294550246E+03  0.00000000000E+00 0. -1.
         25    2    1    2    0    0  0.93681761028E+02  0.59205983421E+01 -0.60672493117E+02  0.16775093826E+03  0.12509156659E+03 0.  0.
          5    1    3    3  502    0  0.88187868418E+02 -0.42671675193E+02 -0.66271124934E+02  0.11835246681E+03  0.41800000000E+01 0. -1.
         -5    1    3    3    0  502  0.54938926098E+01  0.48592273535E+02  0.55986318179E+01  0.49398471449E+02  0.41800000000E+01 0. -1.
        -11    1    1    2    0    0 -0.76500060847E+02  0.17412055051E+02 -0.16280660938E+02  0.80128015646E+02  0.00000000000E+00 0.  1.
         11    1    1    2    0    0 -0.17181700181E+02 -0.23332653393E+02 -0.67553303223E+02  0.73505593745E+02  0.00000000000E+00 0. -1.
</event>
<event>
 7    1  0.3151015E-009  0.7164240E+02  0.7561462E-02  0.1354595E+00
          4   -1    0    0  501    0  0.00000000000E+00  0.00000000000E+00  0.97479699808E+02  0.97479699808E+02  0.00000000000E+00 0.  1.
         -4   -1    0    0    0  501 -0.00000000000E+00 -0.00000000000E+00 -0.16398802065E+03  0.16398802065E+03  0.00000000000E+00 0. -1.
         25    2    1    2    0    0  0.11256670248E+02 -0.61900741755E+02 -0.49938524475E+02  0.14865965703E+03  0.12508965964E+03 0.  0.
          5    1    3    3  502    0 -0.17450780590E+01 -0.57854414709E+02 -0.89468991242E+02  0.10664122745E+03  0.41800000000E+01 0. -1.
         -5    1    3    3    0  502  0.13001748307E+02 -0.40463270461E+01  0.39530466767E+02  0.42018429581E+02  0.41800000000E+01 0. -1.
        -11    1    1    2    0    0 -0.22106941651E+02  0.29663561222E+02  0.35067749362E+02  0.50974412982E+02  0.00000000000E+00 0.  1.
         11    1    1    2    0    0  0.10850271403E+02  0.32237180533E+02 -0.51637545724E+02  0.61833650439E+02  0.00000000000E+00 0. -1.
</event>
<event>
 7    1  0.3151015E-009  0.1045829E+03  0.7561462E-02  0.1270944E+00
          2   -1    0    0  501    0  0.00000000000E+00  0.00000000000E+00  0.77887882971E+03  0.77887882971E+03  0.00000000000E+00 0. -1.
         -2   -1    0    0    0  501 -0.00000000000E+00 -0.00000000000E+00 -0.21616422370E+02  0.21616422370E+02  0.00000000000E+00 0.  1.
         25    2    1    2    0    0 -0.48304661757E+02 -0.99100834776E+01  0.57690716316E+03  0.59236852532E+03  0.12508814807E+03 0.  0.
          5    1    3    3  502    0  0.32434474736E+02  0.34910043937E+01  0.34198493783E+03  0.34356273425E+03  0.41800000000E+01 0.  1.
         -5    1    3    3    0  502 -0.80739136493E+02 -0.13401087871E+02  0.23492222532E+03  0.24880579107E+03  0.41800000000E+01 0.  1.
        -11    1    1    2    0    0 -0.22727931129E+02  0.36460081138E+01  0.90678759817E+02  0.93554741786E+02  0.00000000000E+00 0.  1.
         11    1    1    2    0    0  0.71032592887E+02  0.62640753638E+01  0.89676484367E+02  0.11457198497E+03  0.00000000000E+00 0. -1.
</event>
<event>
 7    1  0.3151015E-009  0.1220163E+03  0.7561462E-02  0.1239807E+00
          2   -1    0    0  501    0  0.00000000000E+00  0.00000000000E+00  0.35248550651E+03  0.35248550651E+03  0.00000000000E+00 0. -1.
         -2   -1    0    0    0  501 -0.00000000000E+00 -0.00000000000E+00 -0.44409540442E+02  0.44409540442E+02  0.00000000000E+00 0.  1.
         25    2    1    2    0    0 -0.33345586129E+02 -0.52696967671E+02  0.16967362045E+03  0.21983266148E+03  0.12509341734E+03 0.  0.
          5    1    3    3  502    0 -0.35667231170E+01  0.39280501159E+02  0.29191046745E+02  0.49247019150E+02  0.41800000000E+01 0. -1.
         -5    1    3    3    0  502 -0.29778863012E+02 -0.91977468829E+02  0.14048257370E+03  0.17058564233E+03  0.41800000000E+01 0. -1.
        -11    1    1    2    0    0  0.60194486693E+02  0.16280643184E+02  0.59963835886E+02  0.86510676710E+02  0.00000000000E+00 0.  1.
         11    1    1    2    0    0 -0.26848900564E+02  0.36416324487E+02  0.78438509730E+02  0.90551708760E+02  0.00000000000E+00 0. -1.
</event>
<event>
 7    1  0.3151015E-009  0.1025666E+03  0.7561462E-02  0.1274989E+00
          2   -1    0    0  501    0  0.00000000000E+00  0.00000000000E+00  0.14440916341E+03  0.14440916341E+03  0.00000000000E+00 0. -1.
         -2   -1    0    0    0  501 -0.00000000000E+00 -0.00000000000E+00 -0.15932540495E+03  0.15932540495E+03  0.00000000000E+00 0.  1.
         25    2    1    2    0    0  0.25568692625E+02  0.46543305704E+02 -0.10151999292E+03  0.16963209852E+03  0.12509477423E+03 0.  0.
          5    1    3    3  502    0 -0.28217214509E+02 -0.90352657720E+01  0.11972185879E+02  0.32228137659E+02  0.41800000000E+01 0.  1.
         -5    1    3    3    0  502  0.53785907135E+02  0.55578571476E+02 -0.11349217879E+03  0.13740396086E+03  0.41800000000E+01 0.  1.
        -11    1    1    2    0    0  0.24247398289E+02  0.63821496936E+01  0.64250478218E+01  0.25883380730E+02  0.00000000000E+00 0.  1.
         11    1    1    2    0    0 -0.49816090915E+02 -0.52925455397E+02  0.80178703550E+02  0.10821908910E+03  0.00000000000E+00 0. -1.
</event>
<event>
 7    1  0.3151015E-009  0.1552218E+03  0.7561462E-02  0.1194199E+00
         -2   -1    0    0    0  501 -0.00000000000E+00  0.00000000000E+00  0.11988295772E+04  0.11988295772E+04  0.00000000000E+00 0.  1.
          2   -1    0    0  501    0  0.00000000000E+00 -0.00000000000E+00 -0.25565781875E+02  0.25565781875E+02  0.00000000000E+00 0. -1.
         25    2    1    2    0    0  0.12363498207E+03  0.93050557328E+01  0.41827131394E+03  0.45383745830E+03  0.12508138807E+03 0.  0.
          5    1    3    3  502    0 -0.16807984584E+02 -0.73227638484E+00  0.14845624851E+03  0.14946496143E+03  0.41800000000E+01 0.  1.
         -5    1    3    3    0  502  0.14044296666E+03  0.10037332118E+02  0.26981506543E+03  0.30437249687E+03  0.41800000000E+01 0.  1.
        -11    1    1    2    0    0 -0.84547069075E+02 -0.48017506330E+02  0.42240115178E+03  0.43344736800E+03  0.00000000000E+00 0.  1.
         11    1    1    2    0    0 -0.39087912999E+02  0.38712450597E+02  0.33259132963E+03  0.33711053279E+03  0.00000000000E+00 0. -1.
</event>
<event>
 7    1  0.3395485E-009  0.1542399E+03  0.7561462E-02  0.1195358E+00
         -2   -1    0    0    0  501 -0.00000000000E+00  0.00000000000E+00  0.39634036697E+02  0.39634036697E+02  0.00000000000E+00 0.  1.
          2   -1    0    0  501    0  0.00000000000E+00 -0.00000000000E+00 -0.61964345902E+03  0.61964345902E+03  0.00000000000E+00 0. -1.
         25    2    1    2    0    0  0.10612554715E+03 -0.33458776297E+02 -0.34360836983E+03  0.38222630057E+03  0.12509241207E+03 0.  0.
          5    1    3    3  502    0  0.12062981385E+03 -0.61540633086E+02 -0.27422306315E+03  0.30586690287E+03  0.41800000000E+01 0. -1.
         -5    1    3    3    0  502 -0.14504266695E+02  0.28081856789E+02 -0.69385306688E+02  0.76359397701E+02  0.41800000000E+01 0. -1.
        -11    1    1    2    0    0 -0.79121459474E+02  0.62962927980E+02 -0.19395004288E+03  0.21872620964E+03  0.00000000000E+00 0. -1.
         11    1    1    2    0    0 -0.27004087677E+02 -0.29504151683E+02 -0.42451009603E+02  0.58324985505E+02  0.00000000000E+00 0.  1.
</event>
<event>
 7    1  0.3151015E-009  0.8994930E+02  0.7561462E-02  0.1302975E+00
         -3   -1    0    0    0  501 -0.00000000000E+00  0.00000000000E+00  0.22411463120E+03  0.22411463120E+03  0.00000000000E+00 0.  1.
          3   -1    0    0  501    0  0.00000000000E+00 -0.00000000000E+00 -0.62454624734E+02  0.62454624734E+02  0.00000000000E+00 0. -1.
         25    2    1    2    0    0 -0.29902940702E+02  0.12364085456E+02  0.13240000618E+03  0.18499913626E+03  0.12509141581E+03 0.  0.
          5    1    3    3  502    0 -0.61577286935E+02  0.16374335253E+02  0.18273842598E+02  0.66417519109E+02  0.41800000000E+01 0.  1.
         -5    1    3    3    0  502  0.31674346234E+02 -0.40102497973E+01  0.11412616358E+03  0.11858161716E+03  0.41800000000E+01 0.  1.
        -11    1    1    2    0    0 -0.12327734348E+02 -0.34163431453E+02 -0.12392293519E+02  0.38375539363E+02  0.00000000000E+00 0. -1.
         11    1    1    2    0    0  0.42230675049E+02  0.21799345997E+02  0.41652293800E+02  0.63194580304E+02  0.00000000000E+00 0.  1.
</event>
<event>
 7    1  0.3151015E-009  0.1089758E+03  0.7561462E-02  0.1262478E+00
          2   -1    0    0  501    0  0.00000000000E+00  0.00000000000E+00  0.65967494727E+02  0.65967494727E+02  0.00000000000E+00 0. -1.
         -2   -1    0    0    0  501 -0.00000000000E+00 -0.00000000000E+00 -0.22155311606E+03  0.22155311606E+03  0.00000000000E+00 0.  1.
         25    2    1    2    0    0  0.20820653150E+02  0.58738768207E+02 -0.94705391844E+02  0.16882193594E+03  0.12509193547E+03 0.  0.
          5    1    3    3  502    0  0.37213451337E+02 -0.16197347145E+02  0.69660917169E+01  0.41390745932E+02  0.41800000000E+01 0. -1.
         -5    1    3    3    0  502 -0.16392798187E+02  0.74936115352E+02 -0.10167148356E+03  0.12743119000E+03  0.41800000000E+01 0. -1.
        -11    1    1    2    0    0 -0.24672902037E+02  0.13407285679E+02 -0.26794111512E+02  0.38812779029E+02  0.00000000000E+00 0.  1.
         11    1    1    2    0    0  0.38522488864E+01 -0.72146053886E+02 -0.34086117980E+02  0.79885895825E+02  0.00000000000E+00 0. -1.
</event>
<event>
 7    1  0.3544198E-009  0.1036250E+03  0.7561462E-02  0.1272853E+00
         -1   -1    0    0    0  501 -0.00000000000E+00  0.00000000000E+00  0.15961742699E+03  0.15961742699E+03  0.00000000000E+00 0.  1.
          1   -1    0    0  501    0  0.00000000000E+00 -0.00000000000E+00 -0.10875341009E+03  0.10875341009E+03  0.00000000000E+00 0. -1.
         25    2    1    2    0    0  0.87083711551E+00  0.66108138487E+02  0.64179544254E+02  0.15536645818E+03  0.12509467653E+03 0.  0.
          5    1    3    3  502    0 -0.31958712691E+02 -0.25132158016E+02  0.35566806048E+02  0.54179837355E+02  0.41800000000E+01 0.  1.
         -5    1    3    3    0  502  0.32829549807E+02  0.91240296503E+02  0.28612738207E+02  0.10118662083E+03  0.41800000000E+01 0.  1.
        -11    1    1    2    0    0 -0.85889802492E+01 -0.12533147154E+02  0.36441158925E+02  0.39481747974E+02  0.00000000000E+00 0.  1.
         11    1    1    2    0    0  0.77181431337E+01 -0.53574991333E+02 -0.49756686275E+02  0.73522630930E+02  0.00000000000E+00 0. -1.
</event>
<event>
 7    1  0.3151015E-009  0.1765870E+03  0.7561462E-02  0.1171148E+00
          2   -1    0    0  501    0  0.00000000000E+00  0.00000000000E+00  0.84725811453E+03  0.84725811453E+03  0.00000000000E+00 0. -1.
         -2   -1    0    0    0  501 -0.00000000000E+00 -0.00000000000E+00 -0.51520436546E+02  0.51520436546E+02  0.00000000000E+00 0.  1.
         25    2    1    2    0    0  0.14499280452E+03 -0.34028841313E+02  0.60968795569E+03  0.63995933176E+03  0.12509063750E+03 0.  0.
          5    1    3    3  502    0  0.45357420978E+01 -0.52382167637E+02  0.15974339492E+03  0.16822570869E+03  0.41800000000E+01 0. -1.
         -5    1    3    3    0  502  0.14045706242E+03  0.18353326324E+02  0.44994456077E+03  0.47173362307E+03  0.41800000000E+01 0. -1.
        -11    1    1    2    0    0 -0.45035545314E+01 -0.10430338644E+02 -0.89084579713E+01  0.14437263974E+02  0.00000000000E+00 0.  1.
         11    1    1    2    0    0 -0.14048924999E+03  0.44459179957E+02  0.19495818027E+03  0.24438195534E+03  0.00000000000E+00 0. -1.
</event>
<event>
 7    1  0.3151015E-009  0.8778673E+02  0.7561462E-02  0.1308302E+00
         -2   -1    0    0    0  501 -0.00000000000E+00  0.00000000000E+00  0.42398262099E+02  0.42398262099E+02  0.00000000000E+00 0.  1.
          2   -1    0    0  501    0  0.00000000000E+00 -0.00000000000E+00 -0.44943631813E+03  0.44943631813E+03  0.00000000000E+00 0. -1.
         25    2    1    2    0    0  0.87670955979E+01  0.24956971685E+02 -0.36420858694E+03  0.38599931360E+03  0.12509141814E+03 0.  0.
          5    1    3    3  502    0 -0.29238418820E+02  0.27774244400E+02 -0.32173236867E+02  0.51757930384E+02  0.41800000000E+01 0.  1.
         -5    1    3    3    0  502  0.38005514418E+02 -0.28172727147E+01 -0.33203535008E+03  0.33424138321E+03  0.41800000000E+01 0.  1.
        -11    1    1    2    0    0 -0.19509340523E+01  0.35649661907E+02 -0.18029767846E+02  0.39997213232E+02  0.00000000000E+00 0.  1.
         11    1    1    2    0    0 -0.68161615456E+01 -0.60606633593E+02 -0.24799701239E+02  0.65838053398E+02  0.00000000000E+00 0. -1.
</event>
<event>
 7    1  0.3151015E-009  0.7438921E+02  0.7561462E-02  0.1345773E+00
          1   -1    0    0  501    0  0.00000000000E+00  0.00000000000E+00  0.28121116991E+02  0.28121116991E+02  0.00000000000E+00 0. -1.
         -1   -1    0    0    0  501 -0.00000000000E+00 -0.00000000000E+00 -0.57251967079E+03  0.57251967079E+03  0.00000000000E+00 0.  1.
         25    2    1    2    0    0 -0.26109596443E+02 -0.23793564845E+02 -0.45575019072E+03  0.47392263444E+03  0.12508629956E+03 0.  0.
          5    1    3    3  502    0  0.20456382318E+02 -0.52131382245E+02 -0.10630171735E+03  0.12022342577E+03  0.41800000000E+01 0. -1.
         -5    1    3    3    0  502 -0.46565978762E+02  0.28337817400E+02 -0.34944847336E+03  0.35369920866E+03  0.41800000000E+01 0. -1.
        -11    1    1    2    0    0  0.51343252752E+01  0.13784352946E+02  0.14695912456E+02  0.20792775791E+02  0.00000000000E+00 0. -1.
         11    1    1    2    0    0  0.20975271168E+02  0.10009211899E+02 -0.10334427554E+03  0.10592537756E+03  0.00000000000E+00 0.  1.
</event>
<event>
 7    1  0.3151015E-009  0.1426211E+03  0.7561462E-02  0.1209845E+00
          1   -1    0    0  501    0  0.00000000000E+00  0.00000000000E+00  0.42671887452E+03  0.42671887452E+03  0.00000000000E+00 0. -1.
         -1   -1    0    0    0  501 -0.00000000000E+00 -0.00000000000E+00 -0.60712492931E+02  0.60712492931E+02  0.00000000000E+00 0.  1.
         25    2    1    2    0    0 -0.78551477525E+02 -0.64507907103E+02  0.10346919186E+03  0.19152850705E+03  0.12508273522E+03 0.  0.
          5    1    3    3  502    0  0.13141215054E+02 -0.55709006618E+02  0.76156661178E+02  0.95359815400E+02  0.41800000000E+01 0. -1.
         -5    1    3    3    0  502 -0.91692692578E+02 -0.87989004853E+01  0.27312530681E+02  0.96168691653E+02  0.41800000000E+01 0. -1.
        -11    1    1    2    0    0  0.44960958328E+02 -0.16542616279E+02  0.10905602931E+03  0.11911491702E+03  0.00000000000E+00 0.  1.
         11    1    1    2    0    0  0.33590519196E+02  0.81050523382E+02  0.15348116042E+03  0.17678794338E+03  0.00000000000E+00 0. -1.
</event>
<event>
 7    1  0.3151015E-009  0.1121940E+03  0.7561462E-02  0.1256560E+00
         -1   -1    0    0    0  501 -0.00000000000E+00  0.00000000000E+00  0.19710568588E+03  0.19710568588E+03  0.00000000000E+00 0.  1.
          1   -1    0    0  501    0  0.00000000000E+00 -0.00000000000E+00 -0.10950857843E+03  0.10950857843E+03  0.00000000000E+00 0. -1.
         25    2    1    2    0    0 -0.21232469199E+00  0.83359830800E+02 -0.56667779305E+00  0.15032316745E+03  0.12509127498E+03 0.  0.
          5    1    3    3  502    0 -0.40360950069E+02  0.79140172560E+02  0.35758464991E+02  0.95855690608E+02  0.41800000000E+01 0. -1.
         -5    1    3    3    0  502  0.40148625377E+02  0.42196582401E+01 -0.36325142784E+02  0.54467476843E+02  0.41800000000E+01 0. -1.
        -11    1    1    2    0    0  0.14420790195E+02 -0.50523281920E+01  0.73867229749E+02  0.75431113215E+02  0.00000000000E+00 0.  1.
         11    1    1    2    0    0 -0.14208465503E+02 -0.78307502608E+02  0.14296555491E+02  0.80859983648E+02  0.00000000000E+00 0. -1.
</event>
<event>
 7    1  0.3151015E-009  0.1394634E+03  0.7561462E-02  0.1214053E+00
         -1   -1    0    0    0  501 -0.00000000000E+00  0.00000000000E+00  0.13515467204E+03  0.13515467204E+03  0.00000000000E+00 0.  1.
          1   -1    0    0  501    0  0.00000000000E+00 -0.00000000000E+00 -0.16323150131E+03  0.16323150131E+03  0.00000000000E+00 0. -1.
         25    2    1    2    0    0  0.53821658591E+02 -0.84983537582E+02 -0.11210016428E+01  0.16052371949E+03  0.12509050836E+03 0.  0.
          5    1    3    3  502    0  0.18041272422E+02  0.29423401845E+02 -0.18409743973E+02  0.39339740211E+02  0.41800000000E+01 0. -1.
         -5    1    3    3    0  502  0.35780386169E+02 -0.11440693943E+03  0.17288742330E+02  0.12118397928E+03  0.41800000000E+01 0. -1.
        -11    1    1    2    0    0 -0.24936013047E+02  0.91303215963E+02 -0.43295026924E+02  0.10407949533E+03  0.00000000000E+00 0. -1.
         11    1    1    2    0    0 -0.28885645544E+02 -0.63196783804E+01  0.16339199294E+02  0.33782958528E+02  0.00000000000E+00 0.  1.
</event>
<event>
 7    1  0.3151015E-009  0.7776367E+02  0.7561462E-02  0.1335520E+00
         -3   -1    0    0    0  501 -0.00000000000E+00  0.00000000000E+00  0.31172312971E+03  0.31172312971E+03  0.00000000000E+00 0.  1.
          3   -1    0    0  501    0  0.00000000000E+00 -0.00000000000E+00 -0.38248617454E+02  0.38248617454E+02  0.00000000000E+00 0. -1.
         25    2    1    2    0    0  0.37224441554E+00 -0.89661886001E+01  0.18361969252E+03  0.22236064301E+03  0.12509009944E+03 0.  0.
          5    1    3    3  502    0 -0.81311103518E+01 -0.44960979477E+02  0.17907968473E+03  0.18486376203E+03  0.41800000000E+01 0. -1.
         -5    1    3    3    0  502  0.85033547674E+01  0.35994790877E+02  0.45400077900E+01  0.37496880981E+02  0.41800000000E+01 0. -1.
        -11    1    1    2    0    0 -0.41031900443E+01  0.40481953142E+02  0.10318893794E+02  0.41977425694E+02  0.00000000000E+00 0. -1.
         11    1    1    2    0    0  0.37309456287E+01 -0.31515764542E+02  0.79535925949E+02  0.85633678459E+02  0.00000000000E+00 0.  1.
</event>
<event>
 7    1  0.3151015E-009  0.1007751E+03  0.7561462E-02  0.1278674E+00
          1   -1    0    0  501    0  0.00000000000E+00  0.00000000000E+00  0.49929730966E+02  0.49929730966E+02  0.00000000000E+00 0. -1.
         -1   -1    0    0    0  501 -0.00000000000E+00 -0.00000000000E+00 -0.24352584869E+03  0.24352584869E+03  0.00000000000E+00 0.  1.
         25    2    1    2    0    0 -0.48138087297E+02  0.36045433109E+02 -0.15663041690E+03  0.20927244056E+03  0.12508124632E+03 0.  0.
          5    1    3    3  502    0  0.41467506395E+02  0.11832879387E+02 -0.69491380265E+02  0.81890753156E+02  0.41800000000E+01 0.  1.
         -5    1    3    3    0  502 -0.89605593692E+02  0.24212553722E+02 -0.87139036639E+02  0.12738168740E+03  0.41800000000E+01 0.  1.
        -11    1    1    2    0    0  0.25946704493E+02 -0.34360793809E+02 -0.43279881980E+02  0.61049519322E+02  0.00000000000E+00 0.  1.
         11    1    1    2    0    0  0.22191382804E+02 -0.16846392998E+01  0.63141811600E+01  0.23133619779E+02  0.00000000000E+00 0. -1.
</event>
<event>
 7    1  0.3151015E-009  0.1263864E+03  0.7561462E-02  0.1232918E+00
          2   -1    0    0  501    0  0.00000000000E+00  0.00000000000E+00  0.14625664952E+04  0.14625664952E+04  0.00000000000E+00 0. -1.
         -2   -1    0    0    0  501 -0.00000000000E+00 -0.00000000000E+00 -0.22890221188E+02  0.22890221188E+02  0.00000000000E+00 0.  1.
         25    2    1    2    0    0 -0.59415109604E+02 -0.52213785851E+02  0.12738413368E+04  0.12824074290E+04  0.12506249677E+03 0.  0.
          5    1    3    3  502    0 -0.79074711600E+02  0.12411818334E+02  0.71889527837E+03  0.72334967817E+03  0.41800000000E+01 0.  1.
         -5    1    3    3    0  502  0.19659601996E+02 -0.64625604184E+02  0.55494605841E+03  0.55905775087E+03  0.41800000000E+01 0.  1.
        -11    1    1    2    0    0  0.40138621462E+02 -0.86828779623E+01  0.11274669089E+03  0.11999298983E+03  0.00000000000E+00 0. -1.
         11    1    1    2    0    0  0.19276488142E+02  0.60896663813E+02  0.53088246380E+02  0.83056297548E+02  0.00000000000E+00 0.  1.
</event>
<event>
 7    1  0.3151015E-009  0.1149317E+03  0.7561462E-02  0.1251700E+00
         -1   -1    0    0    0  501 -0.00000000000E+00  0.00000000000E+00  0.31098871334E+03  0.31098871334E+03  0.00000000000E+00 0.  1.
          1   -1    0    0  501    0  0.00000000000E+00 -0.00000000000E+00 -0.59272055218E+02  0.59272055218E+02  0.00000000000E+00 0. -1.
         25    2    1    2    0    0  0.43388201021E+02  0.42915062805E+02  0.63533590945E+02  0.15299696082E+03  0.12508922511E+03 0.  0.
          5    1    3    3  502    0  0.41306462064E+02 -0.39081380124E+02  0.24363107620E+02  0.62004931203E+02  0.41800000000E+01 0.  1.
         -5    1    3    3    0  502  0.20817389572E+01  0.81996442929E+02  0.39170483325E+02  0.90992029618E+02  0.41800000000E+01 0.  1.
        -11    1    1    2    0    0 -0.49939040934E+02 -0.56637825135E+02  0.18739614171E+03  0.20203728610E+03  0.00000000000E+00 0.  1.
         11    1    1    2    0    0  0.65508399122E+01  0.13722762329E+02  0.78692546513E+00  0.15226521638E+02  0.00000000000E+00 0. -1.
</event>
<event>
 7    1  0.3151015E-009  0.1291295E+03  0.7561462E-02  0.1228753E+00
         -1   -1    0    0    0  501 -0.00000000000E+00  0.00000000000E+00  0.32120583975E+02  0.32120583975E+02  0.00000000000E+00 0.  1.
          1   -1    0    0  501    0  0.00000000000E+00 -0.00000000000E+00 -0.79633642003E+03  0.79633642003E+03  0.00000000000E+00 0. -1.
         25    2    1    2    0    0  0.69125492512E+02 -0.23313628389E+02 -0.64141875612E+03  0.65756128112E+03  0.12508780416E+03 0.  0.
          5    1    3    3  502    0  0.90955686405E+02  0.18659375263E+02 -0.49441979333E+03  0.50308002704E+03  0.41800000000E+01 0. -1.
         -5    1    3    3    0  502 -0.21830193893E+02 -0.41973003653E+02 -0.14699896279E+03  0.15448125408E+03  0.41800000000E+01 0. -1.
        -11    1    1    2    0    0  0.13504810302E+02  0.32001506989E+02 -0.26365746622E+02  0.43607670722E+02  0.00000000000E+00 0. -1.
         11    1    1    2    0    0 -0.82630302814E+02 -0.86878785997E+01 -0.96431333313E+02  0.12728805216E+03  0.00000000000E+00 0.  1.
</event>
<event>
 7    1  0.3151015E-009  0.1055608E+03  0.7561462E-02  0.1269019E+00
          2   -1    0    0  501    0  0.00000000000E+00  0.00000000000E+00  0.61721965851E+02  0.61721965851E+02  0.00000000000E+00 0. -1.
         -2   -1    0    0    0  501 -0.00000000000E+00 -0.00000000000E+00 -0.22574601892E+03  0.22574601892E+03  0.00000000000E+00 0.  1.
         25    2    1    2    0    0  0.93600287550E+01  0.21405734236E+02 -0.14486377548E+03  0.19281610653E+03  0.12508685739E+03 0.  0.
          5    1    3    3  502    0  0.59898495683E+00  0.69683684660E+02 -0.11697424924E+03  0.13622269296E+03  0.41800000000E+01 0. -1.
         -5    1    3    3    0  502  0.87610437982E+01 -0.48277950424E+02 -0.27889526240E+02  0.56593413570E+02  0.41800000000E+01 0. -1.
        -11    1    1    2    0    0 -0.27531130449E+02  0.28094801745E+02 -0.27699239758E+01  0.39432898799E+02  0.00000000000E+00 0. -1.
         11    1    1    2    0    0  0.18171101694E+02 -0.49500535981E+02 -0.16390353606E+02  0.55218979441E+02  0.00000000000E+00 0.  1.
</event>
<event>
 7    1  0.3151015E-009  0.1318055E+03  0.7561462E-02  0.1224801E+00
         -2   -1    0    0    0  501 -0.00000000000E+00  0.00000000000E+00  0.15388693159E+03  0.15388693159E+03  0.00000000000E+00 0.  1.
          2   -1    0    0  501    0  0.00000000000E+00 -0.00000000000E+00 -0.20614891933E+03  0.20614891933E+03  0.00000000000E+00 0. -1.
         25    2    1    2    0    0  0.95685083654E+02 -0.74017744919E+02  0.45525600934E+02  0.17987326243E+03  0.12509016108E+03 0.  0.
          5    1    3    3  502    0  0.53323165670E+02 -0.26343253344E+02 -0.40958663885E+02  0.72335410008E+02  0.41800000000E+01 0.  1.
         -5    1    3    3    0  502  0.42361917984E+02 -0.47674491575E+02  0.86484264818E+02  0.10753785242E+03  0.41800000000E+01 0.  1.
        -11    1    1    2    0    0  0.10732723596E+02  0.52197501927E+00  0.77394341980E+01  0.13242456547E+02  0.00000000000E+00 0.  1.
         11    1    1    2    0    0 -0.10641780725E+03  0.73495769900E+02 -0.10552702286E+03  0.16692013194E+03  0.00000000000E+00 0. -1.
</event>
<event>
 7    1  0.3151015E-009  0.1309177E+03  0.7561462E-02  0.1226100E+00
         -1   -1    0    0    0  501 -0.00000000000E+00  0.00000000000E+00  0.22938131497E+02  0.22938131497E+02  0.00000000000E+00 0.  1.
          1   -1    0    0  501    0  0.00000000000E+00 -0.00000000000E+00 -0.12326567578E+04  0.12326567578E+04  0.00000000000E+00 0. -1.
         25    2    1    2    0    0  0.11185750107E+03  0.39425469862E+02 -0.82868517301E+03  0.84642289254E+03  0.12508448678E+03 0.  0.
          5    1    3    3  502    0 -0.95188635287E+00 -0.95095667473E+01 -0.40753217773E+03  0.40766565496E+03  0.41800000000E+01 0.  1.
         -5    1    3    3    0  502  0.11280938743E+03  0.48935036609E+02 -0.42115299528E+03  0.43875723759E+03  0.41800000000E+01 0.  1.
        -11    1    1    2    0    0 -0.36875182188E+02  0.10431855995E+02 -0.35989933491E+02  0.52572597364E+02  0.00000000000E+00 0.  1.
         11    1    1    2    0    0 -0.74982318887E+02 -0.49857325857E+02 -0.34504351977E+03  0.35659939935E+03  0.00000000000E+00 0. -1.
</event>
<event>
 7    1  0.3151015E-009  0.8973078E+02  0.7561462E-02  0.1303505E+00
          2   -1    0    0  501    0  0.00000000000E+00  0.00000000000E+00  0.68259511015E+02  0.68259511015E+02  0.00000000000E+00 0. -1.
         -2   -1    0    0    0  501 -0.00000000000E+00 -0.00000000000E+00 -0.25224338643E+03  0.25224338643E+03  0.00000000000E+00 0.  1.
         25    2    1    2    0    0  0.11669097204E+02  0.34063570844E+01 -0.19021311809E+03  0.22797356306E+03  0.12507255520E+03 0.  0.
          5    1    3    3  502    0  0.65967680975E+02  0.16841042021E+02 -0.12081708781E+03  0.13874291599E+03  0.41800000000E+01 0. -1.
         -5    1    3    3    0  502 -0.54298583772E+02 -0.13434684937E+02 -0.69396030283E+02  0.89230647079E+02  0.41800000000E+01 0. -1.
        -11    1    1    2    0    0  0.15512380007E+02  0.15592825866E+02 -0.33937272584E+02  0.40441422112E+02  0.00000000000E+00 0.  1.
         11    1    1    2    0    0 -0.27181477210E+02 -0.18999182950E+02  0.40166515263E+02  0.52087912268E+02  0.00000000000E+00 0. -1.
</event>
<event>
 7    1  0.3151015E-009  0.1102627E+03  0.7561462E-02  0.1260084E+00
          1   -1    0    0  501    0  0.00000000000E+00  0.00000000000E+00  0.17148754674E+03  0.17148754674E+03  0.00000000000E+00 0. -1.
         -1   -1    0    0    0  501 -0.00000000000E+00 -0.00000000000E+00 -0.10430947045E+03  0.10430947045E+03  0.00000000000E+00 0.  1.
         25    2    1    2    0    0 -0.36978737739E+01  0.77123932194E+02  0.33988255765E+02  0.15087858499E+03  0.12508945076E+03 0.  0.
          5    1    3    3  502    0  0.29948198481E+02  0.53078448068E+02 -0.34949993060E+02  0.70378907753E+02  0.41800000000E+01 0. -1.
         -5    1    3    3    0  502 -0.33646072254E+02  0.24045484125E+02  0.68938248825E+02  0.80499677242E+02  0.41800000000E+01 0. -1.
        -11    1    1    2    0    0  0.41549387857E+02 -0.13224773154E+02  0.24838559254E+02  0.50181672771E+02  0.00000000000E+00 0. -1.
         11    1    1    2    0    0 -0.37851514083E+02 -0.63899159040E+02  0.83512612700E+01  0.74736759424E+02  0.00000000000E+00 0.  1.
</event>
<event>
 7    1  0.3151015E-009  0.1632924E+03  0.7561462E-02  0.1185029E+00
          1   -1    0    0  501    0  0.00000000000E+00  0.00000000000E+00  0.25070413264E+03  0.25070413264E+03  0.00000000000E+00 0. -1.
         -1   -1    0    0    0  501 -0.00000000000E+00 -0.00000000000E+00 -0.13997545238E+03  0.13997545238E+03  0.00000000000E+00 0.  1.
         25    2    1    2    0    0 -0.97026563120E+02 -0.11566478241E+03  0.37268706752E+02  0.19957579439E+03  0.12509614448E+03 0.  0.
          5    1    3    3  502    0 -0.76645294705E+02 -0.93903038024E+02  0.81461670349E+02  0.14610187503E+03  0.41800000000E+01 0.  1.
         -5    1    3    3    0  502 -0.20381268415E+02 -0.21761744385E+02 -0.44192963597E+02  0.53473919366E+02  0.41800000000E+01 0.  1.
        -11    1    1    2    0    0 -0.83877345074E+01  0.50656237797E+02  0.11484571401E+02  0.52614673791E+02  0.00000000000E+00 0. -1.
         11    1    1    2    0    0  0.10541429763E+03  0.65008544612E+02  0.61975402098E+02  0.13848911684E+03  0.00000000000E+00 0.  1.
</event>
<event>
 7    1  0.3151015E-009  0.1058667E+03  0.7561462E-02  0.1268421E+00
         -2   -1    0    0    0  501 -0.00000000000E+00  0.00000000000E+00  0.13856814984E+02  0.13856814984E+02  0.00000000000E+00 0.  1.
          2   -1    0    0  501    0  0.00000000000E+00 -0.00000000000E+00 -0.14748214017E+04  0.14748214017E+04  0.00000000000E+00 0. -1.
         25    2    1    2    0    0 -0.12709075290E+02 -0.76813961594E+02 -0.10512501685E+04  0.10615269041E+04  0.12510214243E+03 0.  0.
          5    1    3    3  502    0 -0.17875498341E+02 -0.19492078498E+01 -0.77543514272E+03  0.77565486256E+03  0.41800000000E+01 0. -1.
         -5    1    3    3    0  502  0.51664230506E+01 -0.74864753744E+02 -0.27581502582E+03  0.28587204156E+03  0.41800000000E+01 0. -1.
        -11    1    1    2    0    0 -0.38249883984E+02  0.39252630087E+02 -0.14609203119E+03  0.15603430447E+03  0.00000000000E+00 0.  1.
         11    1    1    2    0    0  0.50958959274E+02  0.37561331506E+02 -0.26362238703E+03  0.27111700813E+03  0.00000000000E+00 0. -1.
</event>
<event>
 7    1  0.3151015E-009  0.1263579E+03  0.7561462E-02  0.1232962E+00
          2   -1    0    0  501    0  0.00000000000E+00  0.00000000000E+00  0.77480031710E+03  0.77480031710E+03  0.00000000000E+00 0. -1.
         -2   -1    0    0    0  501 -0.00000000000E+00 -0.00000000000E+00 -0.40288463931E+02  0.40288463931E+02  0.00000000000E+00 0.  1.
         25    2    1    2    0    0 -0.56699671661E+02 -0.82387432785E+02  0.60519873008E+03  0.62603559278E+03  0.12511002633E+03 0.  0.
          5    1    3    3  502    0 -0.88202500014E+02 -0.36258810302E+02  0.47169062364E+03  0.48125242770E+03  0.41800000000E+01 0.  1.
         -5    1    3    3    0  502  0.31502828353E+02 -0.46128622483E+02  0.13350810643E+03  0.14478316508E+03  0.41800000000E+01 0.  1.
        -11    1    1    2    0    0  0.33085461709E+02  0.34215411969E+02 -0.15491761109E+01  0.47620816239E+02  0.00000000000E+00 0.  1.
         11    1    1    2    0    0  0.23614209952E+02  0.48172020816E+02  0.13086229920E+03  0.14143237202E+03  0.00000000000E+00 0. -1.
</event>
<event>
 7    1  0.3151015E-009  0.1205487E+03  0.7561462E-02  0.1242195E+00
          1   -1    0    0  501    0  0.00000000000E+00  0.00000000000E+00  0.75225686145E+02  0.75225686145E+02  0.00000000000E+00 0. -1.
         -1   -1    0    0    0  501 -0.00000000000E+00 -0.00000000000E+00 -0.27068528389E+03  0.27068528389E+03  0.00000000000E+00 0.  1.
         25    2    1    2    0    0  0.75777864568E+02 -0.29521042054E+02 -0.54335181845E+02  0.15878832762E+03  0.12509054448E+03 0.  0.
          5    1    3    3  502    0  0.83736557338E+02  0.25830822275E+02 -0.53399207453E+02  0.10270340876E+03  0.41800000000E+01 0.  1.
         -5    1    3    3    0  502 -0.79586927703E+01 -0.55351864329E+02 -0.93597439196E+00  0.56084918858E+02  0.41800000000E+01 0.  1.
        -11    1    1    2    0    0 -0.16932289592E+02 -0.15688593314E+02  0.46503583617E+01  0.23546979083E+02  0.00000000000E+00 0. -1.
         11    1    1    2    0    0 -0.58845574975E+02  0.45209635368E+02 -0.14577477426E+03  0.16357566333E+03  0.00000000000E+00 0.  1.
</event>
<event>
 7    1  0.3151015E-009  0.1362914E+03  0.7561462E-02  0.1218408E+00
          2   -1    0    0  501    0  0.00000000000E+00  0.00000000000E+00  0.92482905613E+03  0.92482905613E+03  0.00000000000E+00 0. -1.
         -2   -1    0    0    0  501 -0.00000000000E+00 -0.00000000000E+00 -0.38070208144E+02  0.38070208144E+02  0.00000000000E+00 0.  1.
         25    2    1    2    0    0  0.94331315187E+02 -0.23120322331E+02  0.77656969726E+03  0.79255339571E+03  0.12508974387E+03 0.  0.
          5    1    3    3  502    0  0.46159415031E+02 -0.64373987249E+02  0.59320745960E+03  0.59848748054E+03  0.41800000000E+01 0.  1.
         -5    1    3    3    0  502  0.48171900157E+02  0.41253664918E+02  0.18336223765E+03  0.19406591517E+03  0.41800000000E+01 0.  1.
        -11    1    1    2    0    0 -0.10020685548E+03 -0.56205007970E+01  0.89206990339E+02  0.13427915341E+03  0.00000000000E+00 0.  1.
         11    1    1    2    0    0  0.58755402910E+01  0.28740823128E+02  0.20982160388E+02  0.36066715159E+02  0.00000000000E+00 0. -1.
</event>
<event>
 7    1  0.3151015E-009  0.9639194E+02  0.7561462E-02  0.1288072E+00
         -2   -1    0    0    0  501 -0.00000000000E+00  0.00000000000E+00  0.24350000346E+02  0.24350000346E+02  0.00000000000E+00 0. -1.
          2   -1    0    0  501    0  0.00000000000E+00 -0.00000000000E+00 -0.76606707574E+03  0.76606707574E+03  0.00000000000E+00 0.  1.
         25    2    1    2    0    0  0.81807226483E+01  0.42573631709E+02 -0.61037650850E+03  0.62456870374E+03  0.12508854954E+03 0.  0.
          5    1    3    3  502    0  0.34643669725E+02  0.79417399027E+02 -0.41089386769E+03  0.41995065189E+03  0.41800000000E+01 0.  1.
         -5    1    3    3    0  502 -0.26462947077E+02 -0.36843767318E+02 -0.19948264081E+03  0.20461805185E+03  0.41800000000E+01 0.  1.
        -11    1    1    2    0    0  0.56952439023E+01 -0.45869540839E+02 -0.14115870523E+03  0.14853360105E+03  0.00000000000E+00 0.  1.
         11    1    1    2    0    0 -0.13875966551E+02  0.32959091296E+01  0.98181383303E+01  0.17314771294E+02  0.00000000000E+00 0. -1.
</event>
<event>
 7    1  0.3151015E-009  0.1740752E+03  0.7561462E-02  0.1173663E+00
         -1   -1    0    0    0  501 -0.00000000000E+00  0.00000000000E+00  0.34992357258E+02  0.34992357258E+02  0.00000000000E+00 0.  1.
          1   -1    0    0  501    0  0.00000000000E+00 -0.00000000000E+00 -0.11344675692E+04  0.11344675692E+04  0.00000000000E+00 0. -1.
         25    2    1    2    0    0 -0.87154863896E+02  0.14202398624E+03 -0.58474290079E+03  0.62075628484E+03  0.12508925684E+03 0.  0.
          5    1    3    3  502    0 -0.19845852953E+02  0.97102251214E+02 -0.46957713479E+03  0.47994047859E+03  0.41800000000E+01 0.  1.
         -5    1    3    3    0  502 -0.67309010943E+02  0.44921735026E+02 -0.11516576600E+03  0.14081580625E+03  0.41800000000E+01 0.  1.
        -11    1    1    2    0    0  0.64973719519E+02 -0.86910485996E+02 -0.44027012120E+03  0.45344547238E+03  0.00000000000E+00 0. -1.
         11    1    1    2    0    0  0.22181144377E+02 -0.55113500244E+02 -0.74462189989E+02  0.95258169272E+02  0.00000000000E+00 0.  1.
</event>
<event>
 7    1  0.3151015E-009  0.2397347E+03  0.7561462E-02  0.1119970E+00
          2   -1    0    0  501    0  0.00000000000E+00  0.00000000000E+00  0.20007143741E+04  0.20007143741E+04  0.00000000000E+00 0.  1.
         -2   -1    0    0    0  501 -0.00000000000E+00 -0.00000000000E+00 -0.35434195309E+02  0.35434195309E+02  0.00000000000E+00 0. -1.
         25    2    1    2    0    0 -0.22374354428E+03  0.93152891766E+01  0.65105800193E+03  0.69976582551E+03  0.12509092877E+03 0.  0.
          5    1    3    3  502    0 -0.14847550289E+03 -0.31192103214E+02  0.27509166863E+03  0.31418278249E+03  0.41800000000E+01 0. -1.
         -5    1    3    3    0  502 -0.75268041381E+02  0.40507392391E+02  0.37596633330E+03  0.38558304303E+03  0.41800000000E+01 0. -1.
        -11    1    1    2    0    0  0.84708627795E+02 -0.48572361123E+02  0.55968504618E+03  0.56813922308E+03  0.00000000000E+00 0. -1.
         11    1    1    2    0    0  0.13903491648E+03  0.39257071947E+02  0.75453713072E+03  0.76824352085E+03  0.00000000000E+00 0.  1.
</event>
<event>
 7    1  0.3151015E-009  0.1181963E+03  0.7561462E-02  0.1246103E+00
          2   -1    0    0  501    0  0.00000000000E+00  0.00000000000E+00  0.11400069072E+04  0.11400069072E+04  0.00000000000E+00 0. -1.
         -2   -1    0    0    0  501 -0.00000000000E+00 -0.00000000000E+00 -0.14244267421E+02  0.14244267421E+02  0.00000000000E+00 0.  1.
         25    2    1    2    0    0 -0.62526970755E+01 -0.43893210118E+02  0.83249676188E+03  0.84301251369E+03  0.12511406624E+03 0.  0.
          5    1    3    3  502    0  0.20481292952E+02 -0.82769670954E+02  0.53804548426E+03  0.54477584135E+03  0.41800000000E+01 0.  1.
         -5    1    3    3    0  502 -0.26733990027E+02  0.38876460836E+02  0.29445127762E+03  0.29823667233E+03  0.41800000000E+01 0.  1.
        -11    1    1    2    0    0 -0.15124067390E+02 -0.26268886460E+02  0.10130211399E+03  0.10573982272E+03  0.00000000000E+00 0. -1.
         11    1    1    2    0    0  0.21376764465E+02  0.70162096578E+02  0.19196376395E+03  0.20549883826E+03  0.00000000000E+00 0.  1.
</event>
<event>
 7    1  0.3151015E-009  0.1153271E+03  0.7561462E-02  0.1251011E+00
         -3   -1    0    0    0  501 -0.00000000000E+00  0.00000000000E+00  0.57217505969E+02  0.57217505969E+02  0.00000000000E+00 0.  1.
          3   -1    0    0  501    0  0.00000000000E+00 -0.00000000000E+00 -0.32130566273E+03  0.32130566273E+03  0.00000000000E+00 0. -1.
         25    2    1    2    0    0  0.76307228215E+02  0.30077084512E+02 -0.15440898079E+03  0.21498296382E+03  0.12509243499E+03 0.  0.
          5    1    3    3  502    0  0.49557430433E+02 -0.41197108180E+02 -0.10767388237E+03  0.12555587592E+03  0.41800000000E+01 0.  1.
         -5    1    3    3    0  502  0.26749797782E+02  0.71274192693E+02 -0.46735098418E+02  0.89427087896E+02  0.41800000000E+01 0.  1.
        -11    1    1    2    0    0 -0.37604956505E+02 -0.34300546223E+02 -0.41603040437E+01  0.51068271507E+02  0.00000000000E+00 0.  1.
         11    1    1    2    0    0 -0.38702271710E+02  0.42234617104E+01 -0.10551887193E+03  0.11247193338E+03  0.00000000000E+00 0. -1.
</event>
<event>
 7    1  0.3151015E-009  0.1177130E+03  0.7561462E-02  0.1246918E+00
          2   -1    0    0  501    0  0.00000000000E+00  0.00000000000E+00  0.77858089865E+02  0.77858089865E+02  0.00000000000E+00 0. -1.
         -2   -1    0    0    0  501 -0.00000000000E+00 -0.00000000000E+00 -0.18729241894E+03  0.18729241894E+03  0.00000000000E+00 0.  1.
         25    2    1    2    0    0  0.27904640809E+02 -0.38285330838E+02 -0.86985549990E+02  0.15955915326E+03  0.12509277336E+03 0.  0.
          5    1    3    3  502    0 -0.17780180370E+02 -0.73551001700E+02 -0.52584114014E+02  0.92241238672E+02  0.41800000000E+01 0.  1.
         -5    1    3    3    0  502  0.45684821179E+02  0.35265670862E+02 -0.34401435976E+02  0.67317914589E+02  0.41800000000E+01 0.  1.
        -11    1    1    2    0    0 -0.32143223054E+02  0.66174336833E+02 -0.83056736677E+01  0.74035220393E+02  0.00000000000E+00 0. -1.
         11    1    1    2    0    0  0.42385822449E+01 -0.27889005995E+02 -0.14143105417E+02  0.31556135151E+02  0.00000000000E+00 0.  1.
</event>
<event>
 7    1  0.3151015E-009  0.1785702E+03  0.7561462E-02  0.1169194E+00
          1   -1    0    0  501    0  0.00000000000E+00  0.00000000000E+00  0.18355489492E+04  0.18355489492E+04  0.00000000000E+00 0. -1.
         -1   -1    0    0    0  501 -0.00000000000E+00 -0.00000000000E+00 -0.17683055014E+02  0.17683055014E+02  0.00000000000E+00 0.  1.
         25    2    1    2    0    0  0.14754797092E+02 -0.14398006927E+03  0.95483490052E+03  0.97380994921E+03  0.12509262783E+03 0.  0.
          5    1    3    3  502    0 -0.14727621805E+02 -0.15748390897E+03  0.76696713159E+03  0.78311821443E+03  0.41800000000E+01 0. -1.
         -5    1    3    3    0  502  0.29482418897E+02  0.13503839694E+02  0.18786776893E+03  0.19069173478E+03  0.41800000000E+01 0. -1.
        -11    1    1    2    0    0 -0.48841197891E+02  0.80231071702E+02  0.56464509080E+03  0.57240419814E+03  0.00000000000E+00 0.  1.
         11    1    1    2    0    0  0.34086400800E+02  0.63748997570E+02  0.29838590290E+03  0.30701785690E+03  0.00000000000E+00 0. -1.
</event>
<event>
 7    1  0.3151015E-009  0.1040972E+03  0.7561462E-02  0.1271909E+00
         -2   -1    0    0    0  501 -0.00000000000E+00  0.00000000000E+00  0.55334460477E+02  0.55334460477E+02  0.00000000000E+00 0.  1.
          2   -1    0    0  501    0  0.00000000000E+00 -0.00000000000E+00 -0.28856076691E+03  0.28856076691E+03  0.00000000000E+00 0. -1.
         25    2    1    2    0    0  0.43469961573E+02  0.21689810448E+02 -0.18630607413E+03  0.22961272119E+03  0.12510780567E+03 0.  0.
          5    1    3    3  502    0  0.36693704814E+02 -0.46220980373E+02 -0.51418092425E+02  0.78384307283E+02  0.41800000000E+01 0.  1.
         -5    1    3    3    0  502  0.67762567586E+01  0.67910790821E+02 -0.13488798170E+03  0.15122841391E+03  0.41800000000E+01 0.  1.
        -11    1    1    2    0    0 -0.50144262610E+02 -0.38075936837E+02  0.12407451970E+01  0.62974308153E+02  0.00000000000E+00 0. -1.
         11    1    1    2    0    0  0.66743010372E+01  0.16386126389E+02 -0.48160977507E+02  0.51308198047E+02  0.00000000000E+00 0.  1.
</event>
<event>
 7    1  0.3151015E-009  0.1190078E+03  0.7561462E-02  0.1244743E+00
         -1   -1    0    0    0  501 -0.00000000000E+00  0.00000000000E+00  0.20616937856E+02  0.20616937856E+02  0.00000000000E+00 0.  1.
          1   -1    0    0  501    0  0.00000000000E+00 -0.00000000000E+00 -0.72358757209E+03  0.72358757209E+03  0.00000000000E+00 0. -1.
         25    2    1    2    0    0  0.51834599929E+02 -0.69016339669E+01 -0.31788397871E+03  0.34558986217E+03  0.12509064959E+03 0.  0.
          5    1    3    3  502    0  0.93246901870E+02 -0.79945972024E+00 -0.21099217035E+03  0.23071799278E+03  0.41800000000E+01 0.  1.
         -5    1    3    3    0  502 -0.41412301942E+02 -0.61021742467E+01 -0.10689180836E+03  0.11487186939E+03  0.41800000000E+01 0.  1.
        -11    1    1    2    0    0 -0.18704753355E+00  0.40816231779E+02 -0.16980540921E+03  0.17464213913E+03  0.00000000000E+00 0.  1.
         11    1    1    2    0    0 -0.51647552395E+02 -0.33914597812E+02 -0.21528124631E+03  0.22397250864E+03  0.00000000000E+00 0. -1.
</event>
<event>
 7    1  0.3151015E-009  0.8969643E+02  0.7561462E-02  0.1303589E+00
         -1   -1    0    0    0  501 -0.00000000000E+00  0.00000000000E+00  0.17489173363E+03  0.17489173363E+03  0.00000000000E+00 0.  1.
          1   -1    0    0  501    0  0.00000000000E+00 -0.00000000000E+00 -0.85892332454E+02  0.85892332454E+02  0.00000000000E+00 0. -1.
         25    2    1    2    0    0 -0.18871069670E+02  0.42682461592E+02  0.10250413402E+03  0.16832754855E+03  0.12509658793E+03 0.  0.
          5    1    3    3  502    0 -0.97282692649E+01  0.69913521487E+02  0.11636175237E+03  0.13616192391E+03  0.41800000000E+01 0.  1.
         -5    1    3    3    0  502 -0.91428004053E+01 -0.27231059895E+02 -0.13857618347E+02  0.32165624640E+02  0.41800000000E+01 0.  1.
        -11    1    1    2    0    0 -0.12398972273E+02  0.11619577448E+02 -0.23502436308E+02  0.29001958656E+02  0.00000000000E+00 0. -1.
         11    1    1    2    0    0  0.31270041943E+02 -0.54302039040E+02  0.99977034609E+01  0.63454558871E+02  0.00000000000E+00 0.  1.
</event>
<event>
 7    1  0.3151015E-009  0.1088575E+03  0.7561462E-02  0.1262700E+00
         -2   -1    0    0    0  501 -0.00000000000E+00  0.00000000000E+00  0.23357835477E+03  0.23357835477E+03  0.00000000000E+00 0. -1.
          2   -1    0    0  501    0  0.00000000000E+00 -0.00000000000E+00 -0.91796581901E+02  0.91796581901E+02  0.00000000000E+00 0.  1.
         25    2    1    2    0    0  0.28117594977E+02 -0.77223971290E+02  0.85237431956E+01  0.14991472725E+03  0.12509048869E+03 0.  0.
          5    1    3    3  502    0 -0.32330196954E+02 -0.62328561307E+02  0.39049900361E+02  0.80451589841E+02  0.41800000000E+01 0. -1.
         -5    1    3    3    0  502  0.60447791932E+02 -0.14895409983E+02 -0.30526157166E+02  0.69463137413E+02  0.41800000000E+01 0. -1.
        -11    1    1    2    0    0 -0.10320279332E+02  0.57477496384E+02  0.13670408385E+03  0.14865455694E+03  0.00000000000E+00 0. -1.
         11    1    1    2    0    0 -0.17797315645E+02  0.19746474907E+02 -0.34460541799E+01  0.26805652479E+02  0.00000000000E+00 0.  1.
</event>
<event>
 7    1  0.3174912E-009  0.1502539E+03  0.7561462E-02  0.1200161E+00
         -2   -1    0    0    0  501 -0.00000000000E+00  0.00000000000E+00  0.26210696113E+02  0.26210696113E+02  0.00000000000E+00 0.  1.
          2   -1    0    0  501    0  0.00000000000E+00 -0.00000000000E+00 -0.88980806436E+03  0.88980806436E+03  0.00000000000E+00 0. -1.
         25    2    1    2    0    0 -0.10643590439E+03  0.79805959829E+01 -0.44526453253E+03  0.47465617516E+03  0.12508272878E+03 0.  0.
          5    1    3    3  502    0 -0.12623283752E+03 -0.20065401574E+02 -0.31734090382E+03  0.34214042621E+03  0.41800000000E+01 0. -1.
         -5    1    3    3    0  502  0.19796933126E+02  0.28045997557E+02 -0.12792362871E+03  0.13251574896E+03  0.41800000000E+01 0. -1.
        -11    1    1    2    0    0  0.10236370287E+03  0.24540288193E+02 -0.35154121074E+03  0.36696290856E+03  0.00000000000E+00 0. -1.
         11    1    1    2    0    0  0.40722015247E+01 -0.32520884176E+02 -0.66791624984E+02  0.74399676753E+02  0.00000000000E+00 0.  1.
</event>
<event>
 7    1  0.3151015E-009  0.1100633E+03  0.7561462E-02  0.1260453E+00
          2   -1    0    0  501    0  0.00000000000E+00  0.00000000000E+00  0.11456463717E+03  0.11456463717E+03  0.00000000000E+00 0. -1.
         -2   -1    0    0    0  501 -0.00000000000E+00 -0.00000000000E+00 -0.14983844562E+03  0.14983844562E+03  0.00000000000E+00 0.  1.
         25    2    1    2    0    0 -0.67881404203E+02  0.90903007211E+01  0.91827599302E+01  0.14290781026E+03  0.12509116895E+03 0.  0.
          5    1    3    3  502    0  0.35397268197E+02  0.24654619920E+00  0.15729753196E+02  0.38960555905E+02  0.41800000000E+01 0.  1.
         -5    1    3    3    0  502 -0.10327867240E+03  0.88437545219E+01 -0.65469932656E+01  0.10394725435E+03  0.41800000000E+01 0.  1.
        -11    1    1    2    0    0  0.44050996293E+01 -0.16274417290E+02  0.23047655695E+02  0.28556190116E+02  0.00000000000E+00 0.  1.
         11    1    1    2    0    0  0.63476304574E+02  0.71841165693E+01 -0.67504224068E+02  0.92939082416E+02  0.00000000000E+00 0. -1.
</event>
<event>
 7    1  0.3151015E-009  0.2456708E+03  0.7561462E-02  0.1116072E+00
         -1   -1    0    0    0  501 -0.00000000000E+00  0.00000000000E+00  0.35332225737E+03  0.35332225737E+03  0.00000000000E+00 0.  1.
          1   -1    0    0  501    0  0.00000000000E+00 -0.00000000000E+00 -0.20346997536E+03  0.20346997536E+03  0.00000000000E+00 0. -1.
         25    2    1    2    0    0 -0.12067473405E+03 -0.20689428856E+03  0.13045005736E+03  0.30005177181E+03  0.12508481212E+03 0.  0.
          5    1    3    3  502    0 -0.14531336319E+02 -0.51587673867E+02  0.94158976620E+02  0.10842431973E+03  0.41800000000E+01 0.  1.
         -5    1    3    3    0  502 -0.10614339773E+03 -0.15530661469E+03  0.36291080742E+02  0.19162745208E+03  0.41800000000E+01 0.  1.
        -11    1    1    2    0    0 -0.16532394452E+01  0.52111485377E+02 -0.19482234529E+02  0.55658760057E+02  0.00000000000E+00 0.  1.
         11    1    1    2    0    0  0.12232797350E+03  0.15478280318E+03  0.38884459174E+02  0.20108170087E+03  0.00000000000E+00 0. -1.
</event>
<event>
 7    1  0.3151015E-009  0.1003005E+03  0.7561462E-02  0.1279665E+00
         -3   -1    0    0    0  501 -0.00000000000E+00  0.00000000000E+00  0.65922858172E+02  0.65922858172E+02  0.00000000000E+00 0.  1.
          3   -1    0    0  501    0  0.00000000000E+00 -0.00000000000E+00 -0.19166327325E+03  0.19166327325E+03  0.00000000000E+00 0. -1.
         25    2    1    2    0    0  0.23805625554E+02 -0.11150138002E+02 -0.95876389161E+02  0.15978390398E+03  0.12509028973E+03 0.  0.
          5    1    3    3  502    0  0.62657475802E+02  0.20175181961E+02 -0.20099738382E+02  0.68952658572E+02  0.41800000000E+01 0. -1.
         -5    1    3    3    0  502 -0.38851850248E+02 -0.31325319963E+02 -0.75776650779E+02  0.90831245405E+02  0.41800000000E+01 0. -1.
        -11    1    1    2    0    0  0.28291077637E+02  0.15542388764E+02  0.79924436180E+01  0.33254023476E+02  0.00000000000E+00 0. -1.
         11    1    1    2    0    0 -0.52096703191E+02 -0.43922507617E+01 -0.37856469535E+02  0.64548203970E+02  0.00000000000E+00 0.  1.
</event>
<event>
 7    1  0.3151015E-009  0.2075957E+03  0.7561462E-02  0.1143484E+00
         -2   -1    0    0    0  501 -0.00000000000E+00  0.00000000000E+00  0.26230625219E+02  0.26230625219E+02  0.00000000000E+00 0.  1.
          2   -1    0    0  501    0  0.00000000000E+00 -0.00000000000E+00 -0.17001069870E+04  0.17001069870E+04  0.00000000000E+00 0. -1.
         25    2    1    2    0    0  0.62829464001E+02  0.16652189478E+03 -0.10030485502E+04  0.10263677506E+04  0.12508909789E+03 0.  0.
          5    1    3    3  502    0  0.70281081182E+02  0.18337715623E+03 -0.94886629399E+03  0.96898468929E+03  0.41800000000E+01 0. -1.
         -5    1    3    3    0  502 -0.74516171805E+01 -0.16855261449E+02 -0.54182256232E+02  0.57383061329E+02  0.41800000000E+01 0. -1.
        -11    1    1    2    0    0 -0.56267758115E+01 -0.13389421278E+03 -0.44785256933E+03  0.46747325558E+03  0.00000000000E+00 0.  1.
         11    1    1    2    0    0 -0.57202688190E+02 -0.32627682006E+02 -0.22297524224E+03  0.23249660604E+03  0.00000000000E+00 0. -1.
</event>
<event>
 7    1  0.3151015E-009  0.8950966E+02  0.7561462E-02  0.1304043E+00
          2   -1    0    0  501    0  0.00000000000E+00  0.00000000000E+00  0.53595418556E+03  0.53595418556E+03  0.00000000000E+00 0. -1.
         -2   -1    0    0    0  501 -0.00000000000E+00 -0.00000000000E+00 -0.22363076803E+02  0.22363076803E+02  0.00000000000E+00 0.  1.
         25    2    1    2    0    0  0.31490923732E+01  0.18372754706E+02  0.28035396829E+03  0.30755981714E+03  0.12508884318E+03 0.  0.
          5    1    3    3  502    0  0.41288460936E+02  0.31346242494E+02  0.45082192450E+02  0.68827323070E+02  0.41800000000E+01 0.  1.
         -5    1    3    3    0  502 -0.38139368563E+02 -0.12973487788E+02  0.23527177584E+03  0.23873249407E+03  0.41800000000E+01 0.  1.
        -11    1    1    2    0    0 -0.35990598469E+02 -0.34558864142E+02  0.89905907097E+02  0.10282368599E+03  0.00000000000E+00 0.  1.
         11    1    1    2    0    0  0.32841506096E+02  0.16186109436E+02  0.14333123337E+03  0.14793375923E+03  0.00000000000E+00 0. -1.
</event>
<event>
 7    1  0.3151015E-009  0.1162480E+03  0.7561462E-02  0.1249418E+00
          2   -1    0    0  501    0  0.00000000000E+00  0.00000000000E+00  0.75980778766E+03  0.75980778766E+03  0.00000000000E+00 0. -1.
         -2   -1    0    0    0  501 -0.00000000000E+00 -0.00000000000E+00 -0.24374029135E+02  0.24374029135E+02  0.00000000000E+00 0.  1.
         25    2    1    2    0    0  0.78423204965E+02  0.89118568976E+01  0.36521613496E+03  0.39402967305E+03  0.12508772016E+03 0.  0.
          5    1    3    3  502    0  0.58641760360E+02  0.45037882694E+02  0.33418259036E+03  0.34229043667E+03  0.41800000000E+01 0.  1.
         -5    1    3    3    0  502  0.19781444605E+02 -0.36126025796E+02  0.31033544603E+02  0.51739236380E+02  0.41800000000E+01 0.  1.
        -11    1    1    2    0    0 -0.99331501140E+01  0.34531527317E+02  0.64226231173E+02  0.73594175182E+02  0.00000000000E+00 0.  1.
         11    1    1    2    0    0 -0.68490054851E+02 -0.43443384215E+02  0.30599139239E+03  0.31655796857E+03  0.00000000000E+00 0. -1.
</event>
<event>
 7    1  0.3151015E-009  0.1716638E+03  0.7561462E-02  0.1176124E+00
          1   -1    0    0  501    0  0.00000000000E+00  0.00000000000E+00  0.21908150570E+03  0.21908150570E+03  0.00000000000E+00 0. -1.
         -1   -1    0    0    0  501 -0.00000000000E+00 -0.00000000000E+00 -0.25525678496E+03  0.25525678496E+03  0.00000000000E+00 0.  1.
         25    2    1    2    0    0 -0.15466447662E+03 -0.10808543705E+02  0.12327844839E+03  0.23427311323E+03  0.12509352820E+03 0.  0.
          5    1    3    3  502    0 -0.11383724323E+03 -0.31483818536E+02  0.18190176380E+02  0.11957635089E+03  0.41800000000E+01 0. -1.
         -5    1    3    3    0  502 -0.40827233391E+02  0.20675274831E+02  0.10508827201E+03  0.11469676234E+03  0.41800000000E+01 0. -1.
        -11    1    1    2    0    0  0.11771201706E+03 -0.32637629495E+02 -0.11475995301E+03  0.16760423811E+03  0.00000000000E+00 0.  1.
         11    1    1    2    0    0  0.36952459560E+02  0.43446173200E+02 -0.44693774657E+02  0.72460939314E+02  0.00000000000E+00 0. -1.
</event>
<event>
 7    1  0.3151015E-009  0.8982479E+02  0.7561462E-02  0.1303277E+00
         -1   -1    0    0    0  501 -0.00000000000E+00  0.00000000000E+00  0.32725221304E+03  0.32725221304E+03  0.00000000000E+00 0.  1.
          1   -1    0    0  501    0  0.00000000000E+00 -0.00000000000E+00 -0.21255464312E+03  0.21255464312E+03  0.00000000000E+00 0. -1.
         25    2    1    2    0    0  0.99170354467E+01 -0.11600228904E+02 -0.18597160271E+03  0.22464523698E+03  0.12508849899E+03 0.  0.
          5    1    3    3  502    0  0.31585204147E+02 -0.39302734493E+02 -0.18212184362E+03  0.18901896302E+03  0.41800000000E+01 0. -1.
         -5    1    3    3    0  502 -0.21668168700E+02  0.27702505589E+02 -0.38497590913E+01  0.35626273953E+02  0.41800000000E+01 0. -1.
        -11    1    1    2    0    0 -0.47494985102E+02  0.25085932652E+02  0.15141096644E+03  0.16065602505E+03  0.00000000000E+00 0.  1.
         11    1    1    2    0    0  0.37577949655E+02 -0.13485703748E+02  0.14925820619E+03  0.15450559414E+03  0.00000000000E+00 0. -1.
</event>
<event>
 7    1  0.3151015E-009  0.9628958E+02  0.7561462E-02  0.1288298E+00
          2   -1    0    0  501    0  0.00000000000E+00  0.00000000000E+00  0.74357573317E+03  0.74357573317E+03  0.00000000000E+00 0. -1.
         -2   -1    0    0    0  501 -0.00000000000E+00 -0.00000000000E+00 -0.16429911588E+02  0.16429911588E+02  0.00000000000E+00 0.  1.
         25    2    1    2    0    0 -0.13379054286E+02  0.96910988666E+01  0.39180194170E+03  0.41161769731E+03  0.12508977069E+03 0.  0.
          5    1    3    3  502    0  0.41264654729E+02  0.13269280856E+02  0.53954322440E+02  0.69335321837E+02  0.41800000000E+01 0.  1.
         -5    1    3    3    0  502 -0.54643709015E+02 -0.35781819893E+01  0.33784761926E+03  0.34228237547E+03  0.41800000000E+01 0.  1.
        -11    1    1    2    0    0  0.15381660190E+02 -0.50737162546E+02  0.20311665326E+03  0.20992196161E+03  0.00000000000E+00 0.  1.
         11    1    1    2    0    0 -0.20026059041E+01  0.41046063679E+02  0.13222722662E+03  0.13846598584E+03  0.00000000000E+00 0. -1.
</event>
<event>
 7    1  0.3151015E-009  0.1438178E+03  0.7561462E-02  0.1208282E+00
         -2   -1    0    0    0  501 -0.00000000000E+00  0.00000000000E+00  0.84705538733E+02  0.84705538733E+02  0.00000000000E+00 0.  1.
          2   -1    0    0  501    0  0.00000000000E+00 -0.00000000000E+00 -0.39119097581E+03  0.39119097581E+03  0.00000000000E+00 0. -1.
         25    2    1    2    0    0 -0.20472582895E+02 -0.13269029454E+03 -0.66877908974E+02  0.19531016623E+03  0.12509022908E+03 0.  0.
          5    1    3    3  502    0  0.18783704681E+02 -0.26154126243E+02  0.31338642242E+02  0.45127029358E+02  0.41800000000E+01 0. -1.
         -5    1    3    3    0  502 -0.39256287576E+02 -0.10653616830E+03 -0.98216551216E+02  0.15018313688E+03  0.41800000000E+01 0. -1.
        -11    1    1    2    0    0 -0.55361218612E+01  0.98179843058E+02 -0.19549680982E+03  0.21883540134E+03  0.00000000000E+00 0. -1.
         11    1    1    2    0    0  0.26008704756E+02  0.34510451481E+02 -0.44110718285E+02  0.61750946974E+02  0.00000000000E+00 0.  1.
</event>
<event>
 7    1  0.3151015E-009  0.1627742E+03  0.7561462E-02  0.1185600E+00
         -1   -1    0    0    0  501 -0.00000000000E+00  0.00000000000E+00  0.78230525377E+02  0.78230525377E+02  0.00000000000E+00 0.  1.
          1   -1    0    0  501    0  0.00000000000E+00 -0.00000000000E+00 -0.35976258202E+03  0.35976258202E+03  0.00000000000E+00 0. -1.
         25    2    1    2    0    0 -0.11618732308E+03  0.46482092315E+02 -0.18922906099E+03  0.25906668774E+03  0.12509129555E+03 0.  0.
          5    1    3    3  502    0 -0.13946970203E+02 -0.37698015853E+02 -0.23031233828E+02  0.46514175353E+02  0.41800000000E+01 0.  1.
         -5    1    3    3    0  502 -0.10224035287E+03  0.84180108168E+02 -0.16619782716E+03  0.21255251238E+03  0.41800000000E+01 0.  1.
        -11    1    1    2    0    0  0.53393946479E+01 -0.41322674531E+02 -0.32692003675E+02  0.52960737060E+02  0.00000000000E+00 0.  1.
         11    1    1    2    0    0  0.11084792843E+03 -0.51594177839E+01 -0.59610991977E+02  0.12596568260E+03  0.00000000000E+00 0. -1.
</event>
<event>
 7    1  0.3151015E-009  0.8395524E+02  0.7561462E-02  0.1318188E+00
         -1   -1    0    0    0  501 -0.00000000000E+00  0.00000000000E+00  0.14900392689E+03  0.14900392689E+03  0.00000000000E+00 0.  1.
          1   -1    0    0  501    0  0.00000000000E+00 -0.00000000000E+00 -0.12788402438E+03  0.12788402438E+03  0.00000000000E+00 0. -1.
         25    2    1    2    0    0  0.53548781990E+02  0.20849223720E+02  0.74344086193E+02  0.15644806616E+03  0.12508713791E+03 0.  0.
          5    1    3    3  502    0  0.97362946198E+01  0.23462259833E+02  0.10146861966E+03  0.10468345737E+03  0.41800000000E+01 0. -1.
         -5    1    3    3    0  502  0.43812487370E+02 -0.26130361126E+01 -0.27124533471E+02  0.51764608791E+02  0.41800000000E+01 0. -1.
        -11    1    1    2    0    0  0.96273924730E+01  0.20448155607E+02  0.72383275985E+01  0.23731985589E+02  0.00000000000E+00 0.  1.
         11    1    1    2    0    0 -0.63176174463E+02 -0.41297379327E+02 -0.60462511283E+02  0.96707899521E+02  0.00000000000E+00 0. -1.
</event>
<event>
 7    1  0.3151015E-009  0.1820721E+03  0.7561462E-02  0.1165813E+00
         -4   -1    0    0    0  501 -0.00000000000E+00  0.00000000000E+00  0.83379396731E+03  0.83379396731E+03  0.00000000000E+00 0.  1.
          4   -1    0    0  501    0  0.00000000000E+00 -0.00000000000E+00 -0.61827287378E+02  0.61827287378E+02  0.00000000000E+00 0. -1.
         25    2    1    2    0    0  0.11241538130E+03  0.12952079787E+03  0.60134467327E+03  0.63771147005E+03  0.12509055887E+03 0.  0.
          5    1    3    3  502    0  0.83926476835E+02  0.92419426579E+02  0.21600783794E+03  0.24952327021E+03  0.41800000000E+01 0.  1.
         -5    1    3    3    0  502  0.28488904463E+02  0.37101371294E+02  0.38533683533E+03  0.38818819984E+03  0.41800000000E+01 0.  1.
        -11    1    1    2    0    0 -0.33437759785E+02  0.73611309504E+01  0.20309066105E+02  0.39808644719E+02  0.00000000000E+00 0. -1.
         11    1    1    2    0    0 -0.78977621514E+02 -0.13688192882E+03  0.15031294056E+03  0.21810113993E+03  0.00000000000E+00 0.  1.
</event>
<event>
 7    1  0.3151015E-009  0.8071975E+02  0.7561462E-02  0.1327021E+00
          2   -1    0    0  501    0  0.00000000000E+00  0.00000000000E+00  0.15301181386E+04  0.15301181386E+04  0.00000000000E+00 0. -1.
         -2   -1    0    0    0  501 -0.00000000000E+00 -0.00000000000E+00 -0.69314919167E+01  0.69314919167E+01  0.00000000000E+00 0.  1.
         25    2    1    2    0    0  0.10437620598E+02 -0.84847112762E+01  0.13047838973E+04  0.13108349331E+04  0.12508504656E+03 0.  0.
          5    1    3    3  502    0  0.17234978540E+02  0.46713154169E+02  0.27233810815E+03  0.27688387604E+03  0.41800000000E+01 0.  1.
         -5    1    3    3    0  502 -0.67973579417E+01 -0.55197865445E+02  0.10324457892E+04  0.10339510571E+04  0.41800000000E+01 0.  1.
        -11    1    1    2    0    0 -0.28802249784E+02 -0.91702159030E+01  0.80694045488E+02  0.86169550478E+02  0.00000000000E+00 0.  1.
         11    1    1    2    0    0  0.18364629185E+02  0.17654927179E+02  0.13770870386E+03  0.14004514693E+03  0.00000000000E+00 0. -1.
</event>
<event>
 7    1  0.3151015E-009  0.1259008E+03  0.7561462E-02  0.1233668E+00
          4   -1    0    0  501    0  0.00000000000E+00  0.00000000000E+00  0.15356440003E+03  0.15356440003E+03  0.00000000000E+00 0. -1.
         -4   -1    0    0    0  501 -0.00000000000E+00 -0.00000000000E+00 -0.26087589026E+03  0.26087589026E+03  0.00000000000E+00 0.  1.
         25    2    1    2    0    0 -0.15648621752E+02 -0.86726539911E+02  0.90630244384E+02  0.17784109814E+03  0.12508893997E+03 0.  0.
          5    1    3    3  502    0 -0.58908982163E+02 -0.39564597227E+02  0.88711108227E+02  0.11367831216E+03  0.41800000000E+01 0.  1.
         -5    1    3    3    0  502  0.43260360411E+02 -0.47161942684E+02  0.19191361571E+01  0.64162785976E+02  0.41800000000E+01 0.  1.
        -11    1    1    2    0    0 -0.15802938511E+02  0.83481326929E+02 -0.18271880709E+03  0.20150689139E+03  0.00000000000E+00 0.  1.
         11    1    1    2    0    0  0.31451560263E+02  0.32452129822E+01 -0.15222927523E+02  0.35092300760E+02  0.00000000000E+00 0. -1.
</event>
<event>
 7    1  0.3151015E-009  0.1019207E+03  0.7561462E-02  0.1276308E+00
          1   -1    0    0  501    0  0.00000000000E+00  0.00000000000E+00  0.42988117756E+03  0.42988117756E+03  0.00000000000E+00 0. -1.
         -1   -1    0    0    0  501 -0.00000000000E+00 -0.00000000000E+00 -0.42506683354E+02  0.42506683354E+02  0.00000000000E+00 0.  1.
         25    2    1    2    0    0 -0.44413197916E+02  0.29517450834E+02  0.31168761863E+03  0.34005936036E+03  0.12508950759E+03 0.  0.
          5    1    3    3  502    0  0.22237546159E+02  0.14645216614E+02  0.70865088070E+01  0.27869012108E+02  0.41800000000E+01 0.  1.
         -5    1    3    3    0  502 -0.66650744075E+02  0.14872234220E+02  0.30460110983E+03  0.31219034825E+03  0.41800000000E+01 0.  1.
        -11    1    1    2    0    0 -0.12686174773E+02 -0.47057887686E+02  0.36471502743E+02  0.60873264544E+02  0.00000000000E+00 0.  1.
         11    1    1    2    0    0  0.57099372689E+02  0.17540436852E+02  0.39215372828E+02  0.71455236005E+02  0.00000000000E+00 0. -1.
</event>
<event>
 7    1  0.3151015E-009  0.2244025E+03  0.7561462E-02  0.1130643E+00
         -2   -1    0    0    0  501 -0.00000000000E+00  0.00000000000E+00  0.47378390106E+02  0.47378390106E+02  0.00000000000E+00 0.  1.
          2   -1    0    0  501    0  0.00000000000E+00 -0.00000000000E+00 -0.14165442122E+04  0.14165442122E+04  0.00000000000E+00 0. -1.
         25    2    1    2    0    0 -0.67220886314E+02  0.20922683299E+03 -0.45137008799E+03  0.51737407058E+03  0.12508580004E+03 0.  0.
          5    1    3    3  502    0 -0.26334948699E+02  0.50962794446E+02 -0.25707487742E+03  0.26343063782E+03  0.41800000000E+01 0. -1.
         -5    1    3    3    0  502 -0.40885937615E+02  0.15826403854E+03 -0.19429521058E+03  0.25394343276E+03  0.41800000000E+01 0. -1.
        -11    1    1    2    0    0  0.54465577504E+02 -0.73662154737E+02 -0.28874047409E+03  0.30292519464E+03  0.00000000000E+00 0.  1.
         11    1    1    2    0    0  0.12755308810E+02 -0.13556467825E+03 -0.62905526001E+03  0.64362333709E+03  0.00000000000E+00 0. -1.
</event>
<event>
 7    1  0.3151015E-009  0.9804111E+02  0.7561462E-02  0.1284470E+00
          2   -1    0    0  501    0  0.00000000000E+00  0.00000000000E+00  0.39409879553E+03  0.39409879553E+03  0.00000000000E+00 0.  1.
         -2   -1    0    0    0  501 -0.00000000000E+00 -0.00000000000E+00 -0.36077889234E+02  0.36077889234E+02  0.00000000000E+00 0. -1.
         25    2    1    2    0    0  0.28135498483E+02  0.27936858072E+02  0.15014752277E+03  0.19940525333E+03  0.12508438011E+03 0.  0.
          5    1    3    3  502    0 -0.39730617645E+02  0.13538321009E+02  0.11296137904E+03  0.12058007160E+03  0.41800000000E+01 0.  1.
         -5    1    3    3    0  502  0.67866116127E+02  0.14398537063E+02  0.37186143734E+02  0.78825181723E+02  0.41800000000E+01 0.  1.
        -11    1    1    2    0    0 -0.41583988534E+02  0.11157926499E+02  0.43215474854E+02  0.61002497433E+02  0.00000000000E+00 0. -1.
         11    1    1    2    0    0  0.13448490052E+02 -0.39094784571E+02  0.16465790867E+03  0.16976893400E+03  0.00000000000E+00 0.  1.
</event>
<event>
 7    1  0.3151015E-009  0.1064085E+03  0.7561462E-02  0.1267369E+00
          1   -1    0    0  501    0  0.00000000000E+00  0.00000000000E+00  0.23006333969E+03  0.23006333969E+03  0.00000000000E+00 0. -1.
         -1   -1    0    0    0  501 -0.00000000000E+00 -0.00000000000E+00 -0.70363782442E+02  0.70363782442E+02  0.00000000000E+00 0.  1.
         25    2    1    2    0    0  0.30941504880E+02  0.16898264139E+02  0.15229199312E+03  0.20020600435E+03  0.12508662980E+03 0.  0.
          5    1    3    3  502    0  0.32845813565E+02  0.69513486343E+02  0.85601716156E+02  0.11513513131E+03  0.41800000000E+01 0.  1.
         -5    1    3    3    0  502 -0.19043086844E+01 -0.52615222204E+02  0.66690276962E+02  0.85070873043E+02  0.41800000000E+01 0.  1.
        -11    1    1    2    0    0 -0.66088435151E+01 -0.45200517728E+02  0.31776241965E+02  0.55646142444E+02  0.00000000000E+00 0. -1.
         11    1    1    2    0    0 -0.24332661365E+02  0.28302253589E+02 -0.24368677831E+02  0.44574975340E+02  0.00000000000E+00 0.  1.
</event>
<event>
 7    1  0.3151015E-009  0.1830649E+03  0.7561462E-02  0.1164869E+00
         -2   -1    0    0    0  501 -0.00000000000E+00  0.00000000000E+00  0.82670239334E+02  0.82670239334E+02  0.00000000000E+00 0.  1.
          2   -1    0    0  501    0  0.00000000000E+00 -0.00000000000E+00 -0.41490376371E+03  0.41490376371E+03  0.00000000000E+00 0. -1.
         25    2    1    2    0    0  0.88525506827E+02  0.11305424397E+03 -0.13599949665E+03  0.23401095627E+03  0.12508891687E+03 0.  0.
          5    1    3    3  502    0  0.71538885753E+02  0.14057219205E+03 -0.11082008919E+03  0.19281316843E+03  0.41800000000E+01 0. -1.
         -5    1    3    3    0  502  0.16986621074E+02 -0.27517948083E+02 -0.25179407465E+02  0.41197787835E+02  0.41800000000E+01 0. -1.
        -11    1    1    2    0    0 -0.15349912389E+02 -0.10028958261E+03 -0.10689612188E+03  0.14737842808E+03  0.00000000000E+00 0.  1.
         11    1    1    2    0    0 -0.73175594438E+02 -0.12764661358E+02 -0.89337905839E+02  0.11618461869E+03  0.00000000000E+00 0. -1.
</event>
<event>
 7    1  0.3219102E-009  0.1057378E+03  0.7561462E-02  0.1268673E+00
         -1   -1    0    0    0  501 -0.00000000000E+00  0.00000000000E+00  0.15645462501E+03  0.15645462501E+03  0.00000000000E+00 0.  1.
          1   -1    0    0  501    0  0.00000000000E+00 -0.00000000000E+00 -0.91559200440E+02  0.91559200440E+02  0.00000000000E+00 0. -1.
         25    2    1    2    0    0 -0.47804336107E+02 -0.14412748229E+02  0.38615736872E+02  0.14011377424E+03  0.12509081794E+03 0.  0.
          5    1    3    3  502    0  0.25364314450E+02 -0.44411363498E+02 -0.15126936326E+01  0.51336909697E+02  0.41800000000E+01 0. -1.
         -5    1    3    3    0  502 -0.73168650557E+02  0.29998615269E+02  0.40128430505E+02  0.88776864538E+02  0.41800000000E+01 0. -1.
        -11    1    1    2    0    0 -0.13842395865E+02  0.13473849556E+02  0.40283588068E+02  0.44675765386E+02  0.00000000000E+00 0.  1.
         11    1    1    2    0    0  0.61646731973E+02  0.93889867260E+00 -0.14003900366E+02  0.63224285833E+02  0.00000000000E+00 0. -1.
</event>
<event>
 7    1  0.3151015E-009  0.9822006E+02  0.7561462E-02  0.1284084E+00
          2   -1    0    0  501    0  0.00000000000E+00  0.00000000000E+00  0.99666549996E+03  0.99666549996E+03  0.00000000000E+00 0. -1.
         -2   -1    0    0    0  501 -0.00000000000E+00 -0.00000000000E+00 -0.19337614850E+02  0.19337614850E+02  0.00000000000E+00 0.  1.
         25    2    1    2    0    0 -0.61534700632E+02  0.14701553375E+02  0.75554143444E+03  0.76843525560E+03  0.12508887972E+03 0.  0.
          5    1    3    3  502    0 -0.47508569005E+02 -0.19909855834E+02  0.69672355031E+03  0.69863770614E+03  0.41800000000E+01 0.  1.
         -5    1    3    3    0  502 -0.14026131627E+02  0.34611409208E+02  0.58817884136E+02  0.69797549456E+02  0.41800000000E+01 0.  1.
        -11    1    1    2    0    0 -0.89589576024E+01 -0.33128155287E+02  0.46940108869E+02  0.58147325086E+02  0.00000000000E+00 0.  1.
         11    1    1    2    0    0  0.70493658235E+02  0.18426601912E+02  0.17484634179E+03  0.18942053412E+03  0.00000000000E+00 0. -1.
</event>
<event>
 7    1  0.3151015E-009  0.1396272E+03  0.7561462E-02  0.1213831E+00
          1   -1    0    0  501    0  0.00000000000E+00  0.00000000000E+00  0.42332883098E+02  0.42332883098E+02  0.00000000000E+00 0. -1.
         -1   -1    0    0    0  501 -0.00000000000E+00 -0.00000000000E+00 -0.60528717368E+03  0.60528717368E+03  0.00000000000E+00 0.  1.
         25    2    1    2    0    0  0.34916599714E+02  0.10681925476E+03 -0.36981195297E+03  0.40624793964E+03  0.12508791221E+03 0.  0.
          5    1    3    3  502    0 -0.39269921801E+02  0.13470577583E+02 -0.51323076196E+02  0.66144642783E+02  0.41800000000E+01 0.  1.
         -5    1    3    3    0  502  0.74186521515E+02  0.93348677172E+02 -0.31848887678E+03  0.34010329686E+03  0.41800000000E+01 0.  1.
        -11    1    1    2    0    0 -0.38110589206E+02 -0.58662480197E+02 -0.17725830236E+03  0.19056287506E+03  0.00000000000E+00 0.  1.
         11    1    1    2    0    0  0.31939894917E+01 -0.48156774559E+02 -0.15884035241E+02  0.50809242076E+02  0.00000000000E+00 0. -1.
</event>
<event>
 7    1  0.3151015E-009  0.1236511E+03  0.7561462E-02  0.1237192E+00
          1   -1    0    0  501    0  0.00000000000E+00  0.00000000000E+00  0.15973328484E+03  0.15973328484E+03  0.00000000000E+00 0. -1.
         -1   -1    0    0    0  501 -0.00000000000E+00 -0.00000000000E+00 -0.15218328926E+03  0.15218328926E+03  0.00000000000E+00 0.  1.
         25    2    1    2    0    0 -0.26997749930E+02 -0.71616975819E+02  0.84456272132E+02  0.16922744396E+03  0.12508875313E+03 0.  0.
          5    1    3    3  502    0  0.46123338875E+02 -0.32700968147E+01  0.24887985723E+02  0.52677700743E+02  0.41800000000E+01 0. -1.
         -5    1    3    3    0  502 -0.73121088805E+02 -0.68346879004E+02  0.59568286409E+02  0.11654974321E+03  0.41800000000E+01 0. -1.
        -11    1    1    2    0    0 -0.15042606120E+02  0.52320656626E+02 -0.79506507717E+02  0.96358787238E+02  0.00000000000E+00 0.  1.
         11    1    1    2    0    0  0.42040356050E+02  0.19296319193E+02  0.26002311621E+01  0.46330342901E+02  0.00000000000E+00 0. -1.
</event>
<event>
 7    1  0.3151015E-009  0.1155735E+03  0.7561462E-02  0.1250583E+00
         -2   -1    0    0    0  501 -0.00000000000E+00  0.00000000000E+00  0.38468806897E+02  0.38468806897E+02  0.00000000000E+00 0.  1.
          2   -1    0    0  501    0  0.00000000000E+00 -0.00000000000E+00 -0.56745528590E+03  0.56745528590E+03  0.00000000000E+00 0. -1.
         25    2    1    2    0    0 -0.72273956758E+02 -0.13051354917E+02 -0.43339864368E+03  0.45703037872E+03  0.12509404478E+03 0.  0.
          5    1    3    3  502    0 -0.87459208459E+02 -0.35404530042E+02 -0.41091494725E+03  0.42162917376E+03  0.41800000000E+01 0.  1.
         -5    1    3    3    0  502  0.15185251701E+02  0.22353175125E+02 -0.22483696426E+02  0.35401204956E+02  0.41800000000E+01 0.  1.
        -11    1    1    2    0    0  0.65474129830E+02 -0.25459373178E+02 -0.80840140287E+02  0.10709887787E+03  0.00000000000E+00 0. -1.
         11    1    1    2    0    0  0.67998269280E+01  0.38510728095E+02 -0.14747695038E+02  0.41794836207E+02  0.00000000000E+00 0.  1.
</event>
<event>
 7    1  0.3151015E-009  0.1133517E+03  0.7561462E-02  0.1254486E+00
          2   -1    0    0  501    0  0.00000000000E+00  0.00000000000E+00  0.86432413835E+03  0.86432413835E+03  0.00000000000E+00 0. -1.
         -2   -1    0    0    0  501 -0.00000000000E+00 -0.00000000000E+00 -0.23244547889E+02  0.23244547889E+02  0.00000000000E+00 0.  1.
         25    2    1    2    0    0  0.16464974158E+02  0.62324385317E+02  0.65077127819E+03  0.66581174627E+03  0.12508637244E+03 0.  0.
          5    1    3    3  502    0 -0.31561695689E+02  0.74771628782E+02  0.27501218436E+03  0.28676839270E+03  0.41800000000E+01 0.  1.
         -5    1    3    3    0  502  0.48026669847E+02 -0.12447243466E+02  0.37575909383E+03  0.37904335356E+03  0.41800000000E+01 0.  1.
        -11    1    1    2    0    0  0.27524692013E+02 -0.32044590548E+02  0.27479722628E+02  0.50394440264E+02  0.00000000000E+00 0.  1.
         11    1    1    2    0    0 -0.43989666172E+02 -0.30279794769E+02  0.16282858965E+03  0.17136249971E+03  0.00000000000E+00 0. -1.
</event>
<event>
 7    1  0.3151015E-009  0.1246430E+03  0.7561462E-02  0.1235628E+00
          1   -1    0    0  501    0  0.00000000000E+00  0.00000000000E+00  0.22530941371E+03  0.22530941371E+03  0.00000000000E+00 0. -1.
         -1   -1    0    0    0  501 -0.00000000000E+00 -0.00000000000E+00 -0.10222971153E+03  0.10222971153E+03  0.00000000000E+00 0.  1.
         25    2    1    2    0    0  0.25156651738E+02 -0.94928643267E+02  0.26572698493E+02  0.16124915010E+03  0.12510345984E+03 0.  0.
          5    1    3    3  502    0  0.47051539144E+02 -0.23310097311E+01 -0.24407057778E+02  0.53220840012E+02  0.41800000000E+01 0.  1.
         -5    1    3    3    0  502 -0.21894887406E+02 -0.92597633536E+02  0.50979756271E+02  0.10802831009E+03  0.41800000000E+01 0.  1.
        -11    1    1    2    0    0 -0.36187787045E+02  0.59479185627E+02  0.77151823192E+01  0.70048936411E+02  0.00000000000E+00 0.  1.
         11    1    1    2    0    0  0.11031135307E+02  0.35449457640E+02  0.88791821368E+02  0.96241038726E+02  0.00000000000E+00 0. -1.
</event>
<event>
 7    1  0.3995958E-009  0.1033744E+03  0.7561462E-02  0.1273356E+00
         -2   -1    0    0    0  501 -0.00000000000E+00  0.00000000000E+00  0.95806769451E+01  0.95806769451E+01  0.00000000000E+00 0.  1.
          2   -1    0    0  501    0  0.00000000000E+00 -0.00000000000E+00 -0.15823659856E+04  0.15823659856E+04  0.00000000000E+00 0. -1.
         25    2    1    2    0    0  0.39026421600E+00  0.37858924642E+01 -0.12582147157E+04  0.12644234617E+04  0.12509170388E+03 0.  0.
          5    1    3    3  502    0 -0.57818326679E+02  0.24068380132E+02 -0.69585310168E+03  0.69867822160E+03  0.41800000000E+01 0.  1.
         -5    1    3    3    0  502  0.58208590895E+02 -0.20282487668E+02 -0.56236161398E+03  0.56574524005E+03  0.41800000000E+01 0.  1.
        -11    1    1    2    0    0  0.40454988482E+02 -0.76479502981E+01 -0.22843641438E+03  0.23211698053E+03  0.00000000000E+00 0. -1.
         11    1    1    2    0    0 -0.40845252698E+02  0.38620578339E+01 -0.86134178644E+02  0.95406220391E+02  0.00000000000E+00 0.  1.
</event>
<event>
 7    1  0.3151015E-009  0.1257728E+03  0.7561462E-02  0.1233866E+00
          1   -1    0    0  501    0  0.00000000000E+00  0.00000000000E+00  0.81518947549E+02  0.81518947549E+02  0.00000000000E+00 0. -1.
         -1   -1    0    0    0  501 -0.00000000000E+00 -0.00000000000E+00 -0.20952319383E+03  0.20952319383E+03  0.00000000000E+00 0.  1.
         25    2    1    2    0    0 -0.49650403710E+02  0.51678495951E+02 -0.92546205571E+02  0.17128854129E+03  0.12505652594E+03 0.  0.
          5    1    3    3  502    0  0.12924694962E+02  0.75721149645E+02 -0.51422662499E+02  0.92533793081E+02  0.41800000000E+01 0.  1.
         -5    1    3    3    0  502 -0.62575098673E+02 -0.24042653694E+02 -0.41123543073E+02  0.78754748209E+02  0.41800000000E+01 0.  1.
        -11    1    1    2    0    0  0.65763144334E+02 -0.15091469169E+02 -0.41659961658E+02  0.79297515722E+02  0.00000000000E+00 0. -1.
         11    1    1    2    0    0 -0.16112740624E+02 -0.36587026782E+02  0.62019209458E+01  0.40456084370E+02  0.00000000000E+00 0.  1.
</event>
<event>
 7    1  0.3151015E-009  0.9041420E+02  0.7561462E-02  0.1301852E+00
          2   -1    0    0  501    0  0.00000000000E+00  0.00000000000E+00  0.11934042809E+04  0.11934042809E+04  0.00000000000E+00 0.  1.
         -2   -1    0    0    0  501 -0.00000000000E+00 -0.00000000000E+00 -0.12839520696E+02  0.12839520696E+02  0.00000000000E+00 0. -1.
         25    2    1    2    0    0 -0.45030308761E+02 -0.11884215765E+02  0.86057987929E+03  0.87086921507E+03  0.12508596173E+03 0.  0.
          5    1    3    3  502    0 -0.62513112726E+02 -0.16682485609E+02  0.20463520012E+03  0.21466073725E+03  0.41800000000E+01 0. -1.
         -5    1    3    3    0  502  0.17482803965E+02  0.47982698434E+01  0.65594467917E+03  0.65620847782E+03  0.41800000000E+01 0. -1.
        -11    1    1    2    0    0  0.65939872033E+02 -0.10484280257E+02  0.25404090851E+03  0.26266855551E+03  0.00000000000E+00 0. -1.
         11    1    1    2    0    0 -0.20909563272E+02  0.22368496022E+02  0.65943972414E+02  0.72706031031E+02  0.00000000000E+00 0.  1.
</event>
<event>
 7    1  0.3151015E-009  0.2153430E+03  0.7561462E-02  0.1137403E+00
         -2   -1    0    0    0  501 -0.00000000000E+00  0.00000000000E+00  0.41192200021E+02  0.41192200021E+02  0.00000000000E+00 0.  1.
          2   -1    0    0  501    0  0.00000000000E+00 -0.00000000000E+00 -0.14228296200E+04  0.14228296200E+04  0.00000000000E+00 0. -1.
         25    2    1    2    0    0  0.20092700864E+00  0.20160870173E+03 -0.94745680438E+03  0.97671281237E+03  0.12508961871E+03 0.  0.
          5    1    3    3  502    0 -0.33180724397E+02  0.72922068187E+02 -0.17023364701E+03  0.18819021089E+03  0.41800000000E+01 0. -1.
         -5    1    3    3    0  502  0.33381651406E+02  0.12868663354E+03 -0.77722315737E+03  0.78852260148E+03  0.41800000000E+01 0. -1.
        -11    1    1    2    0    0  0.37744921049E+02 -0.60338319575E+02 -0.10230291644E+03  0.12462455050E+03  0.00000000000E+00 0. -1.
         11    1    1    2    0    0 -0.37945848058E+02 -0.14127038215E+03 -0.33187769915E+03  0.36268445714E+03  0.00000000000E+00 0.  1.
</event>
<event>
 7    1  0.3151015E-009  0.9956028E+02  0.7561462E-02  0.1281223E+00
         -2   -1    0    0    0  501 -0.00000000000E+00  0.00000000000E+00  0.51953153975E+02  0.51953153975E+02  0.00000000000E+00 0.  1.
          2   -1    0    0  501    0  0.00000000000E+00 -0.00000000000E+00 -0.30878102449E+03  0.30878102449E+03  0.00000000000E+00 0. -1.
         25    2    1    2    0    0  0.74711413159E+01 -0.64700518701E+02 -0.13605823828E+03  0.19596068740E+03  0.12508705660E+03 0.  0.
          5    1    3    3  502    0 -0.49930825373E+02 -0.16452371479E+02 -0.99096529872E+02  0.11225579042E+03  0.41800000000E+01 0. -1.
         -5    1    3    3    0  502  0.57401966689E+02 -0.48248147223E+02 -0.36961708406E+02  0.83704896980E+02  0.41800000000E+01 0. -1.
        -11    1    1    2    0    0  0.92920188422E+01  0.42265883708E+02 -0.26248543228E+01  0.43354773671E+02  0.00000000000E+00 0.  1.
         11    1    1    2    0    0 -0.16763160158E+02  0.22434634993E+02 -0.11814477791E+03  0.12141871739E+03  0.00000000000E+00 0. -1.
</event>
<event>
 7    1  0.3151015E-009  0.1026473E+03  0.7561462E-02  0.1274825E+00
         -1   -1    0    0    0  501 -0.00000000000E+00  0.00000000000E+00  0.12780492887E+03  0.12780492887E+03  0.00000000000E+00 0.  1.
          1   -1    0    0  501    0  0.00000000000E+00 -0.00000000000E+00 -0.12789589713E+03  0.12789589713E+03  0.00000000000E+00 0. -1.
         25    2    1    2    0    0 -0.51417845345E+02  0.28622690441E+02  0.34741086208E+02  0.14254204872E+03  0.12509292288E+03 0.  0.
          5    1    3    3  502    0  0.25702909714E+02 -0.21650030605E+02  0.37263964400E+02  0.50353141270E+02  0.41800000000E+01 0.  1.
         -5    1    3    3    0  502 -0.77120755059E+02  0.50272721046E+02 -0.25228781928E+01  0.92188907448E+02  0.41800000000E+01 0.  1.
        -11    1    1    2    0    0  0.50235195105E+02 -0.42223520744E+02 -0.57134180387E+02  0.87009856337E+02  0.00000000000E+00 0. -1.
         11    1    1    2    0    0  0.11826502398E+01  0.13600830303E+02  0.22302125916E+02  0.26148920951E+02  0.00000000000E+00 0.  1.
</event>
<event>
 7    1  0.3151015E-009  0.1012265E+03  0.7561462E-02  0.1277738E+00
         -2   -1    0    0    0  501 -0.00000000000E+00  0.00000000000E+00  0.30565025173E+02  0.30565025173E+02  0.00000000000E+00 0. -1.
          2   -1    0    0  501    0  0.00000000000E+00 -0.00000000000E+00 -0.53397778080E+03  0.53397778080E+03  0.00000000000E+00 0.  1.
         25    2    1    2    0    0  0.33219378609E+02 -0.51272679461E+02 -0.20322758012E+03  0.24633553546E+03  0.12508929584E+03 0.  0.
          5    1    3    3  502    0  0.30902428802E+02  0.18462038092E+02 -0.55472554236E+01  0.36661306566E+02  0.41800000000E+01 0. -1.
         -5    1    3    3    0  502  0.23169498062E+01 -0.69734717552E+02 -0.19768032470E+03  0.20967422889E+03  0.41800000000E+01 0. -1.
        -11    1    1    2    0    0  0.21516181740E+02  0.29568027429E+00 -0.24747823542E+02  0.32794637878E+02  0.00000000000E+00 0. -1.
         11    1    1    2    0    0 -0.54735560348E+02  0.50976999186E+02 -0.27543735196E+03  0.28541263264E+03  0.00000000000E+00 0.  1.
</event>
<event>
 7    1  0.3151015E-009  0.1108038E+03  0.7561462E-02  0.1259089E+00
          2   -1    0    0  501    0  0.00000000000E+00  0.00000000000E+00  0.62678760058E+03  0.62678760058E+03  0.00000000000E+00 0. -1.
         -2   -1    0    0    0  501 -0.00000000000E+00 -0.00000000000E+00 -0.23169847609E+02  0.23169847609E+02  0.00000000000E+00 0.  1.
         25    2    1    2    0    0 -0.12199112230E+02 -0.49468402729E+02  0.31668205492E+03  0.34428278927E+03  0.12508866405E+03 0.  0.
          5    1    3    3  502    0 -0.42078474294E+02  0.16995621959E+02  0.21086347350E+03  0.21573206999E+03  0.41800000000E+01 0. -1.
         -5    1    3    3    0  502  0.29879362063E+02 -0.66464024688E+02  0.10581858141E+03  0.12855071928E+03  0.41800000000E+01 0. -1.
        -11    1    1    2    0    0  0.63796582304E+01 -0.26294352913E+02  0.10667917542E+03  0.11005698298E+03  0.00000000000E+00 0. -1.
         11    1    1    2    0    0  0.58194539999E+01  0.75762755642E+02  0.18025652263E+03  0.19561767593E+03  0.00000000000E+00 0.  1.
</event>
<event>
 7    1  0.3151015E-009  0.1224243E+03  0.7561462E-02  0.1239151E+00
         -2   -1    0    0    0  501 -0.00000000000E+00  0.00000000000E+00  0.28029798285E+02  0.28029798285E+02  0.00000000000E+00 0. -1.
          2   -1    0    0  501    0  0.00000000000E+00 -0.00000000000E+00 -0.80796925545E+03  0.80796925545E+03  0.00000000000E+00 0.  1.
         25    2    1    2    0    0 -0.69751932936E+02  0.23132668738E+02 -0.25306840013E+03  0.29170524651E+03  0.12509149925E+03 0.  0.
          5    1    3    3  502    0 -0.75925429559E+02  0.43371169750E+02 -0.25542435091E+03  0.27000888996E+03  0.41800000000E+01 0. -1.
         -5    1    3    3    0  502  0.61734966232E+01 -0.20238501012E+02  0.23559507732E+01  0.21696356556E+02  0.41800000000E+01 0. -1.
        -11    1    1    2    0    0  0.84304546914E+02 -0.55033457063E+02 -0.36225235345E+03  0.37598232087E+03  0.00000000000E+00 0.  1.
         11    1    1    2    0    0 -0.14552613978E+02  0.31900788325E+02 -0.16461870357E+03  0.16831148635E+03  0.00000000000E+00 0. -1.
</event>
<event>
 7    1  0.3151015E-009  0.8015276E+02  0.7561462E-02  0.1328618E+00
          1   -1    0    0  501    0  0.00000000000E+00  0.00000000000E+00  0.10567979478E+03  0.10567979478E+03  0.00000000000E+00 0. -1.
         -1   -1    0    0    0  501 -0.00000000000E+00 -0.00000000000E+00 -0.15364228960E+03  0.15364228960E+03  0.00000000000E+00 0.  1.
         25    2    1    2    0    0  0.11531151170E+02  0.36877727965E+02  0.27716526610E+02  0.13382480044E+03  0.12509171475E+03 0.  0.
          5    1    3    3  502    0  0.34670866706E+02 -0.13678113850E+02 -0.34020787965E+02  0.50636411903E+02  0.41800000000E+01 0. -1.
         -5    1    3    3    0  502 -0.23139715536E+02  0.50555841815E+02  0.61737314575E+02  0.83188388538E+02  0.41800000000E+01 0. -1.
        -11    1    1    2    0    0 -0.29636760522E+01 -0.50697308955E+02 -0.28375279781E+01  0.50863071831E+02  0.00000000000E+00 0. -1.
         11    1    1    2    0    0 -0.85674751175E+01  0.13819580991E+02 -0.72841493453E+02  0.74634212109E+02  0.00000000000E+00 0.  1.
</event>
<event>
 7    1  0.3151015E-009  0.2225713E+03  0.7561462E-02  0.1131980E+00
         -1   -1    0    0    0  501 -0.00000000000E+00  0.00000000000E+00  0.41103652514E+03  0.41103652514E+03  0.00000000000E+00 0.  1.
          1   -1    0    0  501    0  0.00000000000E+00 -0.00000000000E+00 -0.14588180177E+03  0.14588180177E+03  0.00000000000E+00 0. -1.
         25    2    1    2    0    0 -0.17098749313E+03  0.13517743896E+03  0.13034968632E+03  0.28310029832E+03  0.12508027571E+03 0.  0.
          5    1    3    3  502    0 -0.55378528876E+01  0.12192097764E+02  0.65444485937E+02  0.66931070528E+02  0.41800000000E+01 0. -1.
         -5    1    3    3    0  502 -0.16544964024E+03  0.12298534120E+03  0.64905200386E+02  0.21616922779E+03  0.41800000000E+01 0. -1.
        -11    1    1    2    0    0  0.54476657242E+02 -0.12822743614E+02  0.77121715078E+02  0.95288445651E+02  0.00000000000E+00 0.  1.
         11    1    1    2    0    0  0.11651083589E+03 -0.12235469535E+03  0.57683321962E+02  0.17852958294E+03  0.00000000000E+00 0. -1.
</event>
<event>
 7    1  0.3151015E-009  0.4696212E+02  0.7561462E-02  0.1462452E+00
         -2   -1    0    0    0  501 -0.00000000000E+00  0.00000000000E+00  0.27601762624E+03  0.27601762624E+03  0.00000000000E+00 0.  1.
          2   -1    0    0  501    0  0.00000000000E+00 -0.00000000000E+00 -0.48448000061E+02  0.48448000061E+02  0.00000000000E+00 0. -1.
         25    2    1    2    0    0  0.15893098763E+02 -0.21947815499E+02  0.17326999172E+03  0.21541630966E+03  0.12508956488E+03 0.  0.
          5    1    3    3  502    0  0.10618470467E+02 -0.25980713363E+01 -0.18860488009E+02  0.22196673121E+02  0.41800000000E+01 0.  1.
         -5    1    3    3    0  502  0.52746282960E+01 -0.19349744163E+02  0.19213047973E+03  0.19321963654E+03  0.41800000000E+01 0.  1.
        -11    1    1    2    0    0 -0.78713991648E+01  0.40638887908E+02  0.71363427189E+02  0.82499799244E+02  0.00000000000E+00 0.  1.
         11    1    1    2    0    0 -0.80216995981E+01 -0.18691072409E+02 -0.17063792725E+02  0.26549517404E+02  0.00000000000E+00 0. -1.
</event>
<event>
 7    1  0.3151015E-009  0.1413714E+03  0.7561462E-02  0.1211495E+00
         -2   -1    0    0    0  501 -0.00000000000E+00  0.00000000000E+00  0.18235942478E+03  0.18235942478E+03  0.00000000000E+00 0.  1.
          2   -1    0    0  501    0  0.00000000000E+00 -0.00000000000E+00 -0.30136871858E+03  0.30136871858E+03  0.00000000000E+00 0. -1.
         25    2    1    2    0    0 -0.47096422115E+02  0.23963172845E+02 -0.24084828983E+03  0.27649273671E+03  0.12509207854E+03 0.  0.
          5    1    3    3  502    0  0.36024398533E+02  0.36407901457E+02 -0.83195594630E+02  0.97786869998E+02  0.41800000000E+01 0.  1.
         -5    1    3    3    0  502 -0.83120820648E+02 -0.12444728612E+02 -0.15765269520E+03  0.17870586672E+03  0.41800000000E+01 0.  1.
        -11    1    1    2    0    0 -0.21098633077E+02  0.45318766031E+02 -0.17185171829E+01  0.50018958142E+02  0.00000000000E+00 0. -1.
         11    1    1    2    0    0  0.68195055192E+02 -0.69281938876E+02  0.12355751321E+03  0.15721644850E+03  0.00000000000E+00 0.  1.
</event>
<event>
 7    1  0.3151015E-009  0.1426447E+03  0.7561462E-02  0.1209814E+00
          2   -1    0    0  501    0  0.00000000000E+00  0.00000000000E+00  0.30010230553E+04  0.30010230553E+04  0.00000000000E+00 0. -1.
         -2   -1    0    0    0  501 -0.00000000000E+00 -0.00000000000E+00 -0.13343066542E+02  0.13343066542E+02  0.00000000000E+00 0.  1.
         25    2    1    2    0    0  0.63825322703E+02  0.80761343666E+02  0.25702244094E+04  0.25753247924E+04  0.12509278730E+03 0.  0.
          5    1    3    3  502    0 -0.34217607372E+02  0.31827733544E+02  0.49939800786E+03  0.50159714107E+03  0.41800000000E+01 0.  1.
         -5    1    3    3    0  502  0.98042930075E+02  0.48933610121E+02  0.20708264015E+04  0.20737276514E+04  0.41800000000E+01 0.  1.
        -11    1    1    2    0    0 -0.22787134877E+02 -0.84489331991E+02  0.34253394578E+03  0.35353529491E+03  0.00000000000E+00 0.  1.
         11    1    1    2    0    0 -0.41038187826E+02  0.37279883252E+01  0.74921633617E+02  0.85506034529E+02  0.00000000000E+00 0. -1.
</event>
<event>
 7    1  0.3151015E-009  0.1184297E+03  0.7561462E-02  0.1245710E+00
          2   -1    0    0  501    0  0.00000000000E+00  0.00000000000E+00  0.95240091937E+03  0.95240091937E+03  0.00000000000E+00 0. -1.
         -2   -1    0    0    0  501 -0.00000000000E+00 -0.00000000000E+00 -0.17845911790E+02  0.17845911790E+02  0.00000000000E+00 0.  1.
         25    2    1    2    0    0  0.54210117896E+02 -0.23486285119E+01  0.70438776910E+03  0.71746398253E+03  0.12509270174E+03 0.  0.
          5    1    3    3  502    0  0.74582849576E+02 -0.43637715648E+02  0.53183267640E+03  0.53882308764E+03  0.41800000000E+01 0.  1.
         -5    1    3    3    0  502 -0.20372731681E+02  0.41289087136E+02  0.17255509270E+03  0.17864089490E+03  0.41800000000E+01 0.  1.
        -11    1    1    2    0    0 -0.74518532393E+02  0.20058148565E+02  0.16057897786E+03  0.17815989763E+03  0.00000000000E+00 0.  1.
         11    1    1    2    0    0  0.20308414497E+02 -0.17709520053E+02  0.69588260622E+02  0.74622951003E+02  0.00000000000E+00 0. -1.
</event>
<event>
 7    1  0.3151015E-009  0.1417590E+03  0.7561462E-02  0.1210982E+00
          1   -1    0    0  501    0  0.00000000000E+00  0.00000000000E+00  0.12664691545E+03  0.12664691545E+03  0.00000000000E+00 0. -1.
         -1   -1    0    0    0  501 -0.00000000000E+00 -0.00000000000E+00 -0.21676731323E+03  0.21676731323E+03  0.00000000000E+00 0.  1.
         25    2    1    2    0    0  0.11856137183E+03 -0.13472155040E+02 -0.87222784002E+02  0.19363179122E+03  0.12508860328E+03 0.  0.
          5    1    3    3  502    0 -0.12410758538E+02 -0.29297152707E+02  0.51866496491E+01  0.32507288703E+02  0.41800000000E+01 0. -1.
         -5    1    3    3    0  502  0.13097213037E+03  0.15824997667E+02 -0.92409433651E+02  0.16112450252E+03  0.41800000000E+01 0. -1.
        -11    1    1    2    0    0 -0.10566021873E+03  0.10373745396E+02  0.33269063282E+02  0.11125882880E+03  0.00000000000E+00 0. -1.
         11    1    1    2    0    0 -0.12901153105E+02  0.30984096437E+01 -0.36166677061E+02  0.38523608650E+02  0.00000000000E+00 0.  1.
</event>
<event>
 7    1  0.3151015E-009  0.1022154E+03  0.7561462E-02  0.1275705E+00
          1   -1    0    0  501    0  0.00000000000E+00  0.00000000000E+00  0.37168936386E+03  0.37168936386E+03  0.00000000000E+00 0. -1.
         -1   -1    0    0    0  501 -0.00000000000E+00 -0.00000000000E+00 -0.57991750468E+02  0.57991750468E+02  0.00000000000E+00 0.  1.
         25    2    1    2    0    0 -0.72501751839E+02 -0.40108998759E+02  0.25066914926E+03  0.29214315368E+03  0.12508942421E+03 0.  0.
          5    1    3    3  502    0 -0.41771766529E+02 -0.83659795366E+01  0.24344633566E+03  0.24718102847E+03  0.41800000000E+01 0.  1.
         -5    1    3    3    0  502 -0.30729985311E+02 -0.31743019222E+02  0.72228136012E+01  0.44962125204E+02  0.41800000000E+01 0.  1.
        -11    1    1    2    0    0  0.33169521890E+02 -0.24755343774E+02  0.41667220429E+02  0.58729902827E+02  0.00000000000E+00 0. -1.
         11    1    1    2    0    0  0.39332229949E+02  0.64864342533E+02  0.21361243704E+02  0.78808057821E+02  0.00000000000E+00 0.  1.
</event>
<event>
 7    1  0.3151015E-009  0.1501020E+03  0.7561462E-02  0.1200348E+00
          2   -1    0    0  501    0  0.00000000000E+00  0.00000000000E+00  0.26257315350E+02  0.26257315350E+02  0.00000000000E+00 0. -1.
         -2   -1    0    0    0  501 -0.00000000000E+00 -0.00000000000E+00 -0.94014962924E+03  0.94014962924E+03  0.00000000000E+00 0.  1.
         25    2    1    2    0    0  0.87912264535E+02  0.70156864697E+02 -0.56793691818E+03  0.59232848654E+03  0.12510052365E+03 0.  0.
          5    1    3    3  502    0  0.10822873044E+03  0.88804032678E+02 -0.46037620863E+03  0.48121028687E+03  0.41800000000E+01 0.  1.
         -5    1    3    3    0  502 -0.20316465903E+02 -0.18647167981E+02 -0.10756070955E+03  0.11111819968E+03  0.41800000000E+01 0.  1.
        -11    1    1    2    0    0 -0.47782997528E+02 -0.77894822502E+02 -0.29459059102E+03  0.30843870468E+03  0.00000000000E+00 0.  1.
         11    1    1    2    0    0 -0.40129267007E+02  0.77379578052E+01 -0.51364804682E+02  0.65639753363E+02  0.00000000000E+00 0. -1.
</event>
<event>
 7    1  0.3151015E-009  0.2119678E+03  0.7561462E-02  0.1140017E+00
          4   -1    0    0  501    0  0.00000000000E+00  0.00000000000E+00  0.46040358923E+03  0.46040358923E+03  0.00000000000E+00 0. -1.
         -4   -1    0    0    0  501 -0.00000000000E+00 -0.00000000000E+00 -0.11129683909E+03  0.11129683909E+03  0.00000000000E+00 0.  1.
         25    2    1    2    0    0 -0.53041030666E+02  0.18664832437E+03  0.22454363927E+03  0.32205359844E+03  0.12509087258E+03 0.  0.
          5    1    3    3  502    0  0.90269613578E+01 -0.65064448605E+01  0.58953604006E+02  0.60140000677E+02  0.41800000000E+01 0. -1.
         -5    1    3    3    0  502 -0.62067992024E+02  0.19315476923E+03  0.16559003527E+03  0.26191359776E+03  0.41800000000E+01 0. -1.
        -11    1    1    2    0    0  0.57216053890E+02 -0.61852583698E+02  0.19557981360E+02  0.86498170892E+02  0.00000000000E+00 0.  1.
         11    1    1    2    0    0 -0.41750232238E+01 -0.12479574068E+03  0.10500512951E+03  0.16314865900E+03  0.00000000000E+00 0. -1.
</event>
<event>
 7    1  0.8376830E-009  0.1237959E+03  0.7561462E-02  0.1236963E+00
          1   -1    0    0  501    0  0.00000000000E+00  0.00000000000E+00  0.13733324898E+04  0.13733324898E+04  0.00000000000E+00 0. -1.
         -1   -1    0    0    0  501 -0.00000000000E+00 -0.00000000000E+00 -0.15927920540E+02  0.15927920540E+02  0.00000000000E+00 0.  1.
         25    2    1    2    0    0 -0.67055184726E+02  0.38112170134E+02  0.10347573497E+04  0.10451413471E+04  0.12509487336E+03 0.  0.
          5    1    3    3  502    0 -0.26087042721E+02  0.82208964970E+02  0.57729484567E+03  0.58371710524E+03  0.41800000000E+01 0.  1.
         -5    1    3    3    0  502 -0.40968142005E+02 -0.44096794836E+02  0.45746250404E+03  0.46142424186E+03  0.41800000000E+01 0.  1.
        -11    1    1    2    0    0 -0.17730718113E+01 -0.31733399270E+02  0.31019433819E+02  0.44411233797E+02  0.00000000000E+00 0.  1.
         11    1    1    2    0    0  0.68828256537E+02 -0.63787708632E+01  0.29162778572E+03  0.29970782943E+03  0.00000000000E+00 0. -1.
</event>
<event>
 7    1  0.3151015E-009  0.1581676E+03  0.7561462E-02  0.1190781E+00
         -4   -1    0    0    0  501 -0.00000000000E+00  0.00000000000E+00  0.15675265765E+03  0.15675265765E+03  0.00000000000E+00 0.  1.
          4   -1    0    0  501    0  0.00000000000E+00 -0.00000000000E+00 -0.38913439383E+03  0.38913439383E+03  0.00000000000E+00 0. -1.
         25    2    1    2    0    0 -0.63600440710E+02 -0.11107447643E+03 -0.31984286376E+03  0.36651259490E+03  0.12509783912E+03 0.  0.
          5    1    3    3  502    0  0.83619687282E+00 -0.11176298828E+03 -0.17179634255E+03  0.20499541577E+03  0.41800000000E+01 0. -1.
         -5    1    3    3    0  502 -0.64436637583E+02  0.68851185217E+00 -0.14804652121E+03  0.16151717913E+03  0.41800000000E+01 0. -1.
        -11    1    1    2    0    0 -0.52605358922E+01  0.42182181135E+02  0.67768680412E+02  0.79997523011E+02  0.00000000000E+00 0.  1.
         11    1    1    2    0    0  0.68860976602E+02  0.68892295295E+02  0.19692447161E+02  0.99376933565E+02  0.00000000000E+00 0. -1.
</event>
<event>
 7    1  0.3151015E-009  0.9522800E+02  0.7561462E-02  0.1290663E+00
          2   -1    0    0  501    0  0.00000000000E+00  0.00000000000E+00  0.90113015619E+03  0.90113015619E+03  0.00000000000E+00 0. -1.
         -2   -1    0    0    0  501 -0.00000000000E+00 -0.00000000000E+00 -0.21210818565E+02  0.21210818565E+02  0.00000000000E+00 0.  1.
         25    2    1    2    0    0 -0.84064997153E+02 -0.77502185412E+00  0.46872601399E+03  0.49236109206E+03  0.12509134417E+03 0.  0.
          5    1    3    3  502    0 -0.38544608331E+02  0.92556027227E+01  0.42936091321E+03  0.43120716507E+03  0.41800000000E+01 0.  1.
         -5    1    3    3    0  502 -0.45520388822E+02 -0.10030624577E+02  0.39365100777E+02  0.61153926997E+02  0.41800000000E+01 0.  1.
        -11    1    1    2    0    0  0.21489713047E+02 -0.27690423549E+02  0.43251430048E+02  0.55670939676E+02  0.00000000000E+00 0.  1.
         11    1    1    2    0    0  0.62575284106E+02  0.28465445403E+02  0.36794189359E+03  0.37430894301E+03  0.00000000000E+00 0. -1.
</event>
<event>
 7    1  0.3151015E-009  0.1138637E+03  0.7561462E-02  0.1253578E+00
         -3   -1    0    0    0  501 -0.00000000000E+00  0.00000000000E+00  0.27362446478E+03  0.27362446478E+03  0.00000000000E+00 0.  1.
          3   -1    0    0  501    0  0.00000000000E+00 -0.00000000000E+00 -0.86701908494E+02  0.86701908494E+02  0.00000000000E+00 0. -1.
         25    2    1    2    0    0  0.98697661383E+02 -0.11663181227E+02  0.15255934034E+03  0.22090397621E+03  0.12508779405E+03 0.  0.
          5    1    3    3  502    0  0.95437034364E+02  0.51906947820E+01  0.34762253655E+02  0.10178927998E+03  0.41800000000E+01 0. -1.
         -5    1    3    3    0  502  0.32606270181E+01 -0.16853876009E+02  0.11779708668E+03  0.11911469622E+03  0.41800000000E+01 0. -1.
        -11    1    1    2    0    0 -0.81276053446E+02 -0.14893075018E+02  0.57033022853E+02  0.10040102710E+03  0.00000000000E+00 0.  1.
         11    1    1    2    0    0 -0.17421607937E+02  0.26556256245E+02 -0.22669806905E+02  0.39021369965E+02  0.00000000000E+00 0. -1.
</event>
<event>
 7    1  0.3151015E-009  0.1062619E+03  0.7561462E-02  0.1267653E+00
          1   -1    0    0  501    0  0.00000000000E+00  0.00000000000E+00  0.82615335742E+02  0.82615335742E+02  0.00000000000E+00 0. -1.
         -1   -1    0    0    0  501 -0.00000000000E+00 -0.00000000000E+00 -0.26701751333E+03  0.26701751333E+03  0.00000000000E+00 0.  1.
         25    2    1    2    0    0  0.90341184327E+02  0.19362708671E+02 -0.15207339540E+03  0.21750972117E+03  0.12509083557E+03 0.  0.
          5    1    3    3  502    0  0.31288616863E+02 -0.19145070733E+02  0.12051153773E+02  0.38835730788E+02  0.41800000000E+01 0.  1.
         -5    1    3    3    0  502  0.59052567463E+02  0.38507779405E+02 -0.16412454917E+03  0.17867399038E+03  0.41800000000E+01 0.  1.
        -11    1    1    2    0    0 -0.34026527674E+02  0.16910546289E+02 -0.50043978472E+02  0.62834472566E+02  0.00000000000E+00 0.  1.
         11    1    1    2    0    0 -0.56314656653E+02 -0.36273254960E+02  0.17715196279E+02  0.69288655338E+02  0.00000000000E+00 0. -1.
</event>
<event>
 7    1  0.3151015E-009  0.9820736E+02  0.7561462E-02  0.1284111E+00
         -2   -1    0    0    0  501 -0.00000000000E+00  0.00000000000E+00  0.15827824368E+03  0.15827824368E+03  0.00000000000E+00 0.  1.
          2   -1    0    0  501    0  0.00000000000E+00 -0.00000000000E+00 -0.16433327886E+03  0.16433327886E+03  0.00000000000E+00 0. -1.
         25    2    1    2    0    0  0.40967257013E+02 -0.39623277045E+02 -0.10744254937E+03  0.17446996698E+03  0.12509015841E+03 0.  0.
          5    1    3    3  502    0 -0.12366382370E+02  0.38517232673E+02 -0.46875983490E+02  0.62059123857E+02  0.41800000000E+01 0.  1.
         -5    1    3    3    0  502  0.53333639383E+02 -0.78140509718E+02 -0.60566565882E+02  0.11241084312E+03  0.41800000000E+01 0.  1.
        -11    1    1    2    0    0 -0.20191924409E+02  0.52177547616E+01  0.10568308721E+03  0.10772118501E+03  0.00000000000E+00 0.  1.
         11    1    1    2    0    0 -0.20775332604E+02  0.34405522284E+02 -0.42955730259E+01  0.40420370558E+02  0.00000000000E+00 0. -1.
</event>
<event>
 7    1  0.3151015E-009  0.2776939E+03  0.7561462E-02  0.1096955E+00
          1   -1    0    0  501    0  0.00000000000E+00  0.00000000000E+00  0.12360473434E+04  0.12360473434E+04  0.00000000000E+00 0. -1.
         -1   -1    0    0    0  501 -0.00000000000E+00 -0.00000000000E+00 -0.68337411282E+02  0.68337411282E+02  0.00000000000E+00 0.  1.
         25    2    1    2    0    0  0.80229845826E+02 -0.25529821883E+03  0.65213251317E+03  0.71591758409E+03  0.12508862372E+03 0.  0.
          5    1    3    3  502    0  0.51483623430E+01  0.49731261986E+01  0.10557966478E+03  0.10590455908E+03  0.41800000000E+01 0. -1.
         -5    1    3    3    0  502  0.75081483483E+02 -0.26027134503E+03  0.54655284839E+03  0.61001302502E+03  0.41800000000E+01 0. -1.
        -11    1    1    2    0    0  0.11690600528E+02  0.48255672611E+02  0.15383450548E+03  0.16164880191E+03  0.00000000000E+00 0.  1.
         11    1    1    2    0    0 -0.91920446354E+02  0.20704254622E+03  0.36174291347E+03  0.42681836869E+03  0.00000000000E+00 0. -1.
</event>
<event>
 7    1  0.3151015E-009  0.1345127E+03  0.7561462E-02  0.1220909E+00
         -2   -1    0    0    0  501 -0.00000000000E+00  0.00000000000E+00  0.31042589005E+02  0.31042589005E+02  0.00000000000E+00 0.  1.
          2   -1    0    0  501    0  0.00000000000E+00 -0.00000000000E+00 -0.81649146800E+03  0.81649146800E+03  0.00000000000E+00 0. -1.
         25    2    1    2    0    0 -0.10487563816E+03 -0.44507266613E+02 -0.36025086426E+03  0.39801005436E+03  0.12510604268E+03 0.  0.
          5    1    3    3  502    0 -0.78659295318E+02 -0.54521755780E+02 -0.35678877544E+03  0.36942605387E+03  0.41800000000E+01 0. -1.
         -5    1    3    3    0  502 -0.26216342843E+02  0.10014489167E+02 -0.34620888112E+01  0.28584000495E+02  0.41800000000E+01 0. -1.
        -11    1    1    2    0    0  0.97260032239E+02 -0.24415478872E+01 -0.25964578264E+03  0.27727496726E+03  0.00000000000E+00 0.  1.
         11    1    1    2    0    0  0.76156059226E+01  0.46948814500E+02 -0.16555223209E+03  0.17224903538E+03  0.00000000000E+00 0. -1.
</event>
<event>
 7    1  0.3151015E-009  0.1173573E+03  0.7561462E-02  0.1247521E+00
          2   -1    0    0  501    0  0.00000000000E+00  0.00000000000E+00  0.10174707777E+04  0.10174707777E+04  0.00000000000E+00 0. -1.
         -2   -1    0    0    0  501 -0.00000000000E+00 -0.00000000000E+00 -0.19522194828E+02  0.19522194828E+02  0.00000000000E+00 0.  1.
         25    2    1    2    0    0 -0.65767771991E+01 -0.81732189133E+02  0.66781431627E+03  0.68435898418E+03  0.12509138051E+03 0.  0.
          5    1    3    3  502    0  0.47303064125E+02 -0.28535618469E+01  0.13758636229E+03  0.14557885210E+03  0.41800000000E+01 0.  1.
         -5    1    3    3    0  502 -0.53879841324E+02 -0.78878627286E+02  0.53022795398E+03  0.53878013208E+03  0.41800000000E+01 0.  1.
        -11    1    1    2    0    0 -0.10436089439E+02  0.70203124386E+02  0.32326545733E+03  0.33096517421E+03  0.00000000000E+00 0. -1.
         11    1    1    2    0    0  0.17012866638E+02  0.11529064747E+02  0.68688092678E+01  0.21668814133E+02  0.00000000000E+00 0.  1.
</event>
<event>
 7    1  0.3151015E-009  0.9345213E+02  0.7561462E-02  0.1294701E+00
         -1   -1    0    0    0  501 -0.00000000000E+00  0.00000000000E+00  0.29179542378E+02  0.29179542378E+02  0.00000000000E+00 0.  1.
          1   -1    0    0  501    0  0.00000000000E+00 -0.00000000000E+00 -0.48162831752E+03  0.48162831752E+03  0.00000000000E+00 0. -1.
         25    2    1    2    0    0  0.47734633894E+02  0.37176001213E+01 -0.28175979697E+03  0.31197465886E+03  0.12508872356E+03 0.  0.
          5    1    3    3  502    0  0.42686046672E+02 -0.46653173137E+02 -0.70949664101E+02  0.95131195621E+02  0.41800000000E+01 0.  1.
         -5    1    3    3    0  502  0.50485872213E+01  0.50370773258E+02 -0.21081013287E+03  0.21684346324E+03  0.41800000000E+01 0.  1.
        -11    1    1    2    0    0 -0.46025541909E+02  0.19116929259E+02 -0.16863219590E+03  0.17584261425E+03  0.00000000000E+00 0. -1.
         11    1    1    2    0    0 -0.17090919845E+01 -0.22834529380E+02 -0.20567822758E+01  0.22990586786E+02  0.00000000000E+00 0.  1.
</event>
<event>
 7    1  0.3151015E-009  0.1264635E+03  0.7561462E-02  0.1232800E+00
          1   -1    0    0  501    0  0.00000000000E+00  0.00000000000E+00  0.87508941415E+03  0.87508941415E+03  0.00000000000E+00 0. -1.
         -1   -1    0    0    0  501 -0.00000000000E+00 -0.00000000000E+00 -0.28377471354E+02  0.28377471354E+02  0.00000000000E+00 0.  1.
         25    2    1    2    0    0  0.17686172957E+02 -0.98805278352E+02  0.60421951062E+03  0.62513895139E+03  0.12506881223E+03 0.  0.
          5    1    3    3  502    0  0.31369991783E+02 -0.22331496271E+02  0.45688943246E+03  0.45852829576E+03  0.41800000000E+01 0.  1.
         -5    1    3    3    0  502 -0.13683818825E+02 -0.76473782082E+02  0.14733007815E+03  0.16661065564E+03  0.41800000000E+01 0.  1.
        -11    1    1    2    0    0  0.23256332318E+02  0.91994025707E+02  0.16123994334E+03  0.18708842051E+03  0.00000000000E+00 0. -1.
         11    1    1    2    0    0 -0.40942505275E+02  0.68112526451E+01  0.81252488837E+02  0.91239513606E+02  0.00000000000E+00 0.  1.
</event>
<event>
 7    1  0.3151015E-009  0.1149510E+03  0.7561462E-02  0.1251667E+00
          2   -1    0    0  501    0  0.00000000000E+00  0.00000000000E+00  0.66825553535E+03  0.66825553535E+03  0.00000000000E+00 0. -1.
         -2   -1    0    0    0  501 -0.00000000000E+00 -0.00000000000E+00 -0.43959120773E+02  0.43959120773E+02  0.00000000000E+00 0.  1.
         25    2    1    2    0    0 -0.55454030791E+01 -0.82519849010E+02  0.53355922385E+03  0.55423199779E+03  0.12508950814E+03 0.  0.
          5    1    3    3  502    0 -0.41486890284E+02  0.10924164888E+02  0.94242492499E+02  0.10363213419E+03  0.41800000000E+01 0. -1.
         -5    1    3    3    0  502  0.35941487205E+02 -0.93444013898E+02  0.43931673135E+03  0.45059986360E+03  0.41800000000E+01 0. -1.
        -11    1    1    2    0    0 -0.68941764279E+01  0.63455700897E+02 -0.62001056299E+00  0.63832124028E+02  0.00000000000E+00 0.  1.
         11    1    1    2    0    0  0.12439579507E+02  0.19064148114E+02  0.91357201295E+02  0.94150534306E+02  0.00000000000E+00 0. -1.
</event>
<event>
 7    1  0.3151015E-009  0.1311463E+03  0.7561462E-02  0.1225765E+00
          1   -1    0    0  501    0  0.00000000000E+00  0.00000000000E+00  0.90561335961E+02  0.90561335961E+02  0.00000000000E+00 0. -1.
         -1   -1    0    0    0  501 -0.00000000000E+00 -0.00000000000E+00 -0.42653504210E+03  0.42653504210E+03  0.00000000000E+00 0.  1.
         25    2    1    2    0    0 -0.24970835904E+02 -0.83035436471E+02 -0.35562442029E+03  0.38682647839E+03  0.12509024631E+03 0.  0.
          5    1    3    3  502    0  0.40830298579E+02 -0.25639188476E+02 -0.52734231409E+02  0.71574107260E+02  0.41800000000E+01 0. -1.
         -5    1    3    3    0  502 -0.65801134484E+02 -0.57396247996E+02 -0.30289018888E+03  0.31525237113E+03  0.41800000000E+01 0. -1.
        -11    1    1    2    0    0  0.23196967122E+02  0.10343594381E+03  0.25389831195E+02  0.10900338198E+03  0.00000000000E+00 0.  1.
         11    1    1    2    0    0  0.17738687820E+01 -0.20400507337E+02 -0.57391170380E+01  0.21266517684E+02  0.00000000000E+00 0. -1.
</event>
<event>
 7    1  0.3151015E-009  0.1176558E+03  0.7561462E-02  0.1247015E+00
          1   -1    0    0  501    0  0.00000000000E+00  0.00000000000E+00  0.35550369923E+03  0.35550369923E+03  0.00000000000E+00 0. -1.
         -1   -1    0    0    0  501 -0.00000000000E+00 -0.00000000000E+00 -0.84777569478E+02  0.84777569478E+02  0.00000000000E+00 0.  1.
         25    2    1    2    0    0 -0.59613426887E+02 -0.53931805047E+02  0.28579205057E+03  0.32215897411E+03  0.12508760198E+03 0.  0.
          5    1    3    3  502    0  0.28177271726E+02 -0.53995111292E+00  0.14372031037E+02  0.31910466391E+02  0.41800000000E+01 0. -1.
         -5    1    3    3    0  502 -0.87790698613E+02 -0.53391853934E+02  0.27142001953E+03  0.29024850772E+03  0.41800000000E+01 0. -1.
        -11    1    1    2    0    0  0.44879820381E+02 -0.31898535977E+01  0.20280092346E+02  0.49352361534E+02  0.00000000000E+00 0. -1.
         11    1    1    2    0    0  0.14733606506E+02  0.57121658644E+02 -0.35346013165E+02  0.68769933064E+02  0.00000000000E+00 0.  1.
</event>
<event>
 7    1  0.3151015E-009  0.1124778E+03  0.7561462E-02  0.1256049E+00
         -1   -1    0    0    0  501 -0.00000000000E+00  0.00000000000E+00  0.85086128660E+02  0.85086128660E+02  0.00000000000E+00 0.  1.
          1   -1    0    0  501    0  0.00000000000E+00 -0.00000000000E+00 -0.17328796189E+03  0.17328796189E+03  0.00000000000E+00 0. -1.
         25    2    1    2    0    0 -0.12949977176E+02  0.40900810900E+02 -0.14333804585E+02  0.13301978852E+03  0.12509287727E+03 0.  0.
          5    1    3    3  502    0 -0.93192503762E+01  0.85554488355E+02 -0.17469076794E+02  0.87915072368E+02  0.41800000000E+01 0. -1.
         -5    1    3    3    0  502 -0.36307267994E+01 -0.44653677456E+02  0.31352722099E+01  0.45104716153E+02  0.41800000000E+01 0. -1.
        -11    1    1    2    0    0  0.98694656005E+01  0.25490932355E+02 -0.45522836686E+02  0.53099177428E+02  0.00000000000E+00 0. -1.
         11    1    1    2    0    0  0.30805115752E+01 -0.66391743255E+02 -0.28345191960E+02  0.72255124603E+02  0.00000000000E+00 0.  1.
</event>
<event>
 7    1  0.3151015E-009  0.1876714E+03  0.7561462E-02  0.1160578E+00
         -1   -1    0    0    0  501 -0.00000000000E+00  0.00000000000E+00  0.56031171119E+02  0.56031171119E+02  0.00000000000E+00 0.  1.
          1   -1    0    0  501    0  0.00000000000E+00 -0.00000000000E+00 -0.11982733985E+04  0.11982733985E+04  0.00000000000E+00 0. -1.
         25    2    1    2    0    0 -0.12972570288E+03  0.11122273259E+03 -0.97752848092E+03  0.10002046825E+04  0.12509285245E+03 0.  0.
          5    1    3    3  502    0 -0.10491308467E+03  0.13417055005E+03 -0.89239727155E+03  0.90851464188E+03  0.41800000000E+01 0. -1.
         -5    1    3    3    0  502 -0.24812618206E+02 -0.22947817454E+02 -0.85131209369E+02  0.91690040663E+02  0.41800000000E+01 0. -1.
        -11    1    1    2    0    0  0.21920944001E+02 -0.17000225968E+02 -0.86738549370E+02  0.91066521926E+02  0.00000000000E+00 0. -1.
         11    1    1    2    0    0  0.10780475888E+03 -0.94222506627E+02 -0.77975197090E+02  0.16303336515E+03  0.00000000000E+00 0.  1.
</event>
<event>
 7    1  0.3151015E-009  0.1091990E+03  0.7561462E-02  0.1262060E+00
         -1   -1    0    0    0  501 -0.00000000000E+00  0.00000000000E+00  0.22192424668E+03  0.22192424668E+03  0.00000000000E+00 0.  1.
          1   -1    0    0  501    0  0.00000000000E+00 -0.00000000000E+00 -0.87092688374E+02  0.87092688374E+02  0.00000000000E+00 0. -1.
         25    2    1    2    0    0 -0.58057247233E+02  0.63708136680E+02  0.91300456610E+02  0.17723597476E+03  0.12508975473E+03 0.  0.
          5    1    3    3  502    0 -0.71403485734E+02  0.39933688407E+02  0.11477896409E+03  0.14101361722E+03  0.41800000000E+01 0. -1.
         -5    1    3    3    0  502  0.13346238501E+02  0.23774448273E+02 -0.23478507476E+02  0.36222357544E+02  0.41800000000E+01 0. -1.
        -11    1    1    2    0    0  0.50467182984E+01 -0.54933428981E+02 -0.98534170360E+01  0.56037851605E+02  0.00000000000E+00 0. -1.
         11    1    1    2    0    0  0.53010528934E+02 -0.87747076986E+01  0.53384518734E+02  0.75743108687E+02  0.00000000000E+00 0.  1.
</event>
<event>
 7    1  0.3151015E-009  0.1660379E+03  0.7561462E-02  0.1182044E+00
          2   -1    0    0  501    0  0.00000000000E+00  0.00000000000E+00  0.45178961919E+03  0.45178961919E+03  0.00000000000E+00 0. -1.
         -2   -1    0    0    0  501 -0.00000000000E+00 -0.00000000000E+00 -0.75046271270E+02  0.75046271270E+02  0.00000000000E+00 0.  1.
         25    2    1    2    0    0  0.15383834858E+02 -0.14703607477E+03  0.21420403872E+03  0.28876739483E+03  0.12508784294E+03 0.  0.
          5    1    3    3  502    0 -0.26853804144E+02  0.27476798675E+01  0.46436990715E+01  0.27707632211E+02  0.41800000000E+01 0. -1.
         -5    1    3    3    0  502  0.42237639002E+02 -0.14978375464E+03  0.20956033965E+03  0.26105976262E+03  0.41800000000E+01 0. -1.
        -11    1    1    2    0    0 -0.19107800335E+02  0.94594823531E+02  0.15820574875E+03  0.18531688431E+03  0.00000000000E+00 0.  1.
         11    1    1    2    0    0  0.37239654768E+01  0.52441251241E+02  0.43335604405E+01  0.52751611318E+02  0.00000000000E+00 0. -1.
</event>
<event>
 6    1  0.3151015E-009  0.1079186E+03  0.7561462E-02  0.1264474E+00
         -2   -1    0    0    0  501 -0.00000000000E+00  0.00000000000E+00  0.19174935716E+03  0.19174935716E+03  0.00000000000E+00 0.  1.
          2   -1    0    0  501    0  0.00000000000E+00 -0.00000000000E+00 -0.10433124597E+03  0.10433124597E+03  0.00000000000E+00 0. -1.
          5    1    1    2  502    0 -0.62780846482E+02 -0.86368875946E+02  0.70029776966E+02  0.12776016390E+03  0.41800000000E+01 0.  1.
         -5    1    1    2    0  502  0.28658709011E+02  0.22960070175E+02  0.34133078216E+02  0.50309301854E+02  0.41800000000E+01 0.  1.
        -11    1    1    2    0    0  0.70324543146E+01  0.14311840458E+02  0.37030827132E+02  0.40318312825E+02  0.00000000000E+00 0.  1.
         11    1    1    2    0    0  0.27089683157E+02  0.49096965313E+02 -0.53775571121E+02  0.77692824546E+02  0.00000000000E+00 0. -1.
</event>
<event>
 7    1  0.3151015E-009  0.1024564E+03  0.7561462E-02  0.1275214E+00
         -2   -1    0    0    0  501 -0.00000000000E+00  0.00000000000E+00  0.34780639718E+03  0.34780639718E+03  0.00000000000E+00 0.  1.
          2   -1    0    0  501    0  0.00000000000E+00 -0.00000000000E+00 -0.58570111616E+02  0.58570111616E+02  0.00000000000E+00 0. -1.
         25    2    1    2    0    0  0.64472541860E+02  0.60177988248E+02  0.11551859740E+03  0.19175601901E+03  0.12509086921E+03 0.  0.
          5    1    3    3  502    0  0.17505161353E+02  0.21525828191E+02  0.12669925491E+03  0.12976889284E+03  0.41800000000E+01 0.  1.
         -5    1    3    3    0  502  0.46967380506E+02  0.38652160057E+02 -0.11180657516E+02  0.61987126173E+02  0.41800000000E+01 0.  1.
        -11    1    1    2    0    0  0.73688850029E+00 -0.49857600732E+02  0.34780270889E+02  0.60794659293E+02  0.00000000000E+00 0. -1.
         11    1    1    2    0    0 -0.65209430360E+02 -0.10320387515E+02  0.13893741728E+03  0.15382583049E+03  0.00000000000E+00 0.  1.
</event>
<event>
 7    1  0.3151015E-009  0.7799722E+02  0.7561462E-02  0.1334833E+00
         -1   -1    0    0    0  501 -0.00000000000E+00  0.00000000000E+00  0.36035452569E+03  0.36035452569E+03  0.00000000000E+00 0.  1.
          1   -1    0    0  501    0  0.00000000000E+00 -0.00000000000E+00 -0.33246574584E+02  0.33246574584E+02  0.00000000000E+00 0. -1.
         25    2    1    2    0    0 -0.16568156401E+02  0.43214215590E+01  0.19373413533E+03  0.23124333333E+03  0.12508951006E+03 0.  0.
          5    1    3    3  502    0  0.20724465225E+02 -0.13732733144E+02 -0.70568832608E+01  0.26179446515E+02  0.41800000000E+01 0.  1.
         -5    1    3    3    0  502 -0.37292621625E+02  0.18054154703E+02  0.20079101859E+03  0.20506388681E+03  0.41800000000E+01 0.  1.
        -11    1    1    2    0    0 -0.24436099392E+02  0.27829224024E+02  0.34599707988E+02  0.50682624795E+02  0.00000000000E+00 0. -1.
         11    1    1    2    0    0  0.41004255792E+02 -0.32150645583E+02  0.98774107792E+02  0.11167514215E+03  0.00000000000E+00 0.  1.
</event>
<event>
 7    1  0.3398100E-009  0.1280964E+03  0.7561462E-02  0.1230308E+00
         -2   -1    0    0    0  501 -0.00000000000E+00  0.00000000000E+00  0.45573206115E+02  0.45573206115E+02  0.00000000000E+00 0. -1.
          2   -1    0    0  501    0  0.00000000000E+00 -0.00000000000E+00 -0.54993844188E+03  0.54993844188E+03  0.00000000000E+00 0.  1.
         25    2    1    2    0    0 -0.34711194766E+02 -0.95432667842E+02 -0.37231488042E+03  0.40568488464E+03  0.12509833856E+03 0.  0.
          5    1    3    3  502    0  0.34557097256E+02  0.21666751258E+01 -0.14050885480E+03  0.14477257382E+03  0.41800000000E+01 0. -1.
         -5    1    3    3    0  502 -0.69268292022E+02 -0.97599342968E+02 -0.23180602562E+03  0.26091231083E+03  0.41800000000E+01 0. -1.
        -11    1    1    2    0    0  0.27131843701E+02  0.72623798413E+02 -0.27049058580E+02  0.82109710806E+02  0.00000000000E+00 0. -1.
         11    1    1    2    0    0  0.75793510650E+01  0.22808869428E+02 -0.10500129676E+03  0.10771705254E+03  0.00000000000E+00 0.  1.
</event>
<event>
 7    1  0.3151015E-009  0.2602535E+03  0.7561462E-02  0.1106991E+00
          2   -1    0    0  501    0  0.00000000000E+00  0.00000000000E+00  0.78136229547E+03  0.78136229547E+03  0.00000000000E+00 0. -1.
         -2   -1    0    0    0  501 -0.00000000000E+00 -0.00000000000E+00 -0.13793090778E+03  0.13793090778E+03  0.00000000000E+00 0.  1.
         25    2    1    2    0    0  0.11125126063E+03  0.22740155490E+03  0.57511442459E+03  0.64069665129E+03  0.12508911798E+03 0.  0.
          5    1    3    3  502    0  0.11522163386E+03  0.19468971111E+03  0.37601039565E+03  0.43884097183E+03  0.41800000000E+01 0.  1.
         -5    1    3    3    0  502 -0.39703732390E+01  0.32711843792E+02  0.19910402894E+03  0.20185567946E+03  0.41800000000E+01 0.  1.
        -11    1    1    2    0    0 -0.81651668448E+02 -0.21298187960E+03  0.82754698758E+02  0.24264504150E+03  0.00000000000E+00 0. -1.
         11    1    1    2    0    0 -0.29599592177E+02 -0.14419675305E+02 -0.14437735661E+02  0.35951510454E+02  0.00000000000E+00 0.  1.
</event>
<event>
 7    1  0.3151015E-009  0.6691899E+02  0.7561462E-02  0.1370895E+00
         -3   -1    0    0    0  501 -0.00000000000E+00  0.00000000000E+00  0.26101662979E+03  0.26101662979E+03  0.00000000000E+00 0.  1.
          3   -1    0    0  501    0  0.00000000000E+00 -0.00000000000E+00 -0.86078794001E+02  0.86078794001E+02  0.00000000000E+00 0. -1.
         25    2    1    2    0    0  0.51904233055E+02 -0.33179462881E+02 -0.59613083279E+00  0.13943960903E+03  0.12509245792E+03 0.  0.
          5    1    3    3  502    0 -0.22336599525E+01 -0.34728794486E+01  0.55558329181E+02  0.55868152554E+02  0.41800000000E+01 0.  1.
         -5    1    3    3    0  502  0.54137893007E+02 -0.29706583432E+02 -0.56154460014E+02  0.83571456478E+02  0.41800000000E+01 0.  1.
        -11    1    1    2    0    0 -0.12683861438E+02  0.21815590820E+02 -0.21631328378E+01  0.25327445341E+02  0.00000000000E+00 0. -1.
         11    1    1    2    0    0 -0.39220371617E+02  0.11363872061E+02  0.17769709946E+03  0.18232836942E+03  0.00000000000E+00 0.  1.
</event>
<event>
 7    1  0.3151015E-009  0.1247018E+03  0.7561462E-02  0.1235536E+00
         -1   -1    0    0    0  501 -0.00000000000E+00  0.00000000000E+00  0.79756048860E+02  0.79756048860E+02  0.00000000000E+00 0.  1.
          1   -1    0    0  501    0  0.00000000000E+00 -0.00000000000E+00 -0.28373269860E+03  0.28373269860E+03  0.00000000000E+00 0. -1.
         25    2    1    2    0    0 -0.60755499858E+02  0.16938600621E+02 -0.97965517285E+01  0.14043280426E+03  0.12508898086E+03 0.  0.
          5    1    3    3  502    0 -0.75420825222E+02  0.58645503836E+02 -0.84948658590E+01  0.96006411991E+02  0.41800000000E+01 0. -1.
         -5    1    3    3    0  502  0.14665325364E+02 -0.41706903215E+02 -0.13016858695E+01  0.44426392268E+02  0.41800000000E+01 0. -1.
        -11    1    1    2    0    0  0.31282333338E+02  0.36663652371E+02 -0.76240976176E+02  0.90196974631E+02  0.00000000000E+00 0.  1.
         11    1    1    2    0    0  0.29473166520E+02 -0.53602252991E+02 -0.11793912183E+03  0.13285896857E+03  0.00000000000E+00 0. -1.
</event>
<event>
 7    1  0.3151015E-009  0.1540874E+03  0.7561462E-02  0.1195539E+00
         -2   -1    0    0    0  501 -0.00000000000E+00  0.00000000000E+00  0.23121542012E+02  0.23121542012E+02  0.00000000000E+00 0.  1.
          2   -1    0    0  501    0  0.00000000000E+00 -0.00000000000E+00 -0.10659240094E+04  0.10659240094E+04  0.00000000000E+00 0. -1.
         25    2    1    2    0    0  0.96489006437E+02  0.53282934675E+02 -0.63068650054E+03  0.65235084832E+03  0.12508784053E+03 0.  0.
          5    1    3    3  502    0  0.12658482091E+03  0.48835944598E+02 -0.52811044559E+03  0.54527679348E+03  0.41800000000E+01 0.  1.
         -5    1    3    3    0  502 -0.30095814477E+02  0.44469900767E+01 -0.10257605495E+03  0.10707405483E+03  0.41800000000E+01 0.  1.
        -11    1    1    2    0    0 -0.77103099016E+02  0.79340292240E+01 -0.26663464343E+03  0.27767223443E+03  0.00000000000E+00 0. -1.
         11    1    1    2    0    0 -0.19385907421E+02 -0.61216963899E+02 -0.14548132342E+03  0.15902246866E+03  0.00000000000E+00 0.  1.
</event>
<event>
 7    1  0.3151015E-009  0.1011470E+03  0.7561462E-02  0.1277902E+00
          2   -1    0    0  501    0  0.00000000000E+00  0.00000000000E+00  0.55411977966E+02  0.55411977966E+02  0.00000000000E+00 0. -1.
         -2   -1    0    0    0  501 -0.00000000000E+00 -0.00000000000E+00 -0.29421297947E+03  0.29421297947E+03  0.00000000000E+00 0.  1.
         25    2    1    2    0    0 -0.18686295091E+01 -0.55413510899E+02 -0.18265168537E+03  0.22821827796E+03  0.12509114782E+03 0.  0.
          5    1    3    3  502    0  0.37130297505E+02 -0.71798904117E+02 -0.16170394079E+03  0.18082969472E+03  0.41800000000E+01 0. -1.
         -5    1    3    3    0  502 -0.38998927015E+02  0.16385393218E+02 -0.20947744578E+02  0.47388583247E+02  0.41800000000E+01 0. -1.
        -11    1    1    2    0    0  0.10345262854E+01  0.67111482459E+02 -0.74090740420E+02  0.99972291854E+02  0.00000000000E+00 0.  1.
         11    1    1    2    0    0  0.83410322376E+00 -0.11697971561E+02  0.17941424288E+02  0.21434387612E+02  0.00000000000E+00 0. -1.
</event>
<event>
 7    1  0.3151015E-009  0.1012679E+03  0.7561462E-02  0.1277652E+00
         -1   -1    0    0    0  501 -0.00000000000E+00  0.00000000000E+00  0.26958415379E+03  0.26958415379E+03  0.00000000000E+00 0.  1.
          1   -1    0    0  501    0  0.00000000000E+00 -0.00000000000E+00 -0.56997169909E+02  0.56997169909E+02  0.00000000000E+00 0. -1.
         25    2    1    2    0    0 -0.39908086348E+02 -0.40448882341E+00  0.16966711354E+03  0.21453894847E+03  0.12508881656E+03 0.  0.
          5    1    3    3  502    0 -0.69529635095E+02 -0.40752289494E+02  0.11232155694E+03  0.13830662966E+03  0.41800000000E+01 0. -1.
         -5    1    3    3    0  502  0.29621548747E+02  0.40347800671E+02  0.57345556601E+02  0.76232318809E+02  0.41800000000E+01 0. -1.
        -11    1    1    2    0    0  0.11516771797E+02  0.29065910692E+02  0.60449309369E+02  0.68055728636E+02  0.00000000000E+00 0.  1.
         11    1    1    2    0    0  0.28391314551E+02 -0.28661421868E+02 -0.17529439031E+02  0.43986646589E+02  0.00000000000E+00 0. -1.
</event>
<event>
 6    1  0.3151015E-009  0.8580795E+02  0.7561462E-02  0.1313333E+00
          1   -1    0    0  501    0  0.00000000000E+00  0.00000000000E+00  0.82069742614E+03  0.82069742614E+03  0.00000000000E+00 0. -1.
         -1   -1    0    0    0  501 -0.00000000000E+00 -0.00000000000E+00 -0.24736523516E+02  0.24736523516E+02  0.00000000000E+00 0.  1.
          5    1    1    2  502    0  0.30613243176E+02 -0.38237075293E+02  0.12478066147E+03  0.13411536251E+03  0.41800000000E+01 0.  1.
         -5    1    1    2    0  502 -0.30513276529E+02  0.32773294697E+02  0.57771951191E+03  0.57946738970E+03  0.41800000000E+01 0.  1.
        -11    1    1    2    0    0  0.25269032612E+02  0.31997584669E+02  0.84860640987E+02  0.94147213567E+02  0.00000000000E+00 0.  1.
         11    1    1    2    0    0 -0.25368999259E+02 -0.26533804073E+02  0.86000882608E+01  0.37703983876E+02  0.00000000000E+00 0. -1.
</event>
<event>
 7    1  0.3151015E-009  0.1255410E+03  0.7561462E-02  0.1234226E+00
         -2   -1    0    0    0  501 -0.00000000000E+00  0.00000000000E+00  0.37108874019E+02  0.37108874019E+02  0.00000000000E+00 0.  1.
          2   -1    0    0  501    0  0.00000000000E+00 -0.00000000000E+00 -0.70374358051E+03  0.70374358051E+03  0.00000000000E+00 0. -1.
         25    2    1    2    0    0 -0.32941622764E+01  0.68253186175E+02 -0.58529245190E+03  0.60239904022E+03  0.12509196808E+03 0.  0.
          5    1    3    3  502    0 -0.63202906436E+02  0.30193909560E+02 -0.25062755981E+03  0.26026510656E+03  0.41800000000E+01 0. -1.
         -5    1    3    3    0  502  0.59908744160E+02  0.38059276614E+02 -0.33466489209E+03  0.34213393366E+03  0.41800000000E+01 0. -1.
        -11    1    1    2    0    0  0.59834823748E+01 -0.88845420576E+02 -0.54079770230E+02  0.10418220753E+03  0.00000000000E+00 0.  1.
         11    1    1    2    0    0 -0.26893200984E+01  0.20592234402E+02 -0.27262484363E+02  0.34271206776E+02  0.00000000000E+00 0. -1.
</event>
<event>
 7    1  0.3151015E-009  0.7027673E+02  0.7561462E-02  0.1359155E+00
          2   -1    0    0  501    0  0.00000000000E+00  0.00000000000E+00  0.69070047889E+03  0.69070047889E+03  0.00000000000E+00 0.  1.
         -2   -1    0    0    0  501 -0.00000000000E+00 -0.00000000000E+00 -0.20457789715E+02  0.20457789715E+02  0.00000000000E+00 0. -1.
         25    2    1    2    0    0 -0.23442404880E+02  0.26903836461E+02  0.28382031626E+03  0.31221181973E+03  0.12509550629E+03 0.  0.
          5    1    3    3  502    0 -0.24760175329E+02  0.13893464470E+02  0.64623055507E+00  0.28705132837E+02  0.41800000000E+01 0. -1.
         -5    1    3    3    0  502  0.13177704488E+01  0.13010371992E+02  0.28317408570E+03  0.28350668689E+03  0.41800000000E+01 0. -1.
        -11    1    1    2    0    0  0.34591053609E+02  0.26497855626E+02  0.20081781341E+03  0.20549080642E+03  0.00000000000E+00 0.  1.
         11    1    1    2    0    0 -0.11148648729E+02 -0.53401692087E+02  0.18560455952E+03  0.19345564246E+03  0.00000000000E+00 0. -1.
</event>
<event>
 7    1  0.3151015E-009  0.1127044E+03  0.7561462E-02  0.1255642E+00
         -1   -1    0    0    0  501 -0.00000000000E+00  0.00000000000E+00  0.14507480064E+03  0.14507480064E+03  0.00000000000E+00 0.  1.
          1   -1    0    0  501    0  0.00000000000E+00 -0.00000000000E+00 -0.14701143799E+03  0.14701143799E+03  0.00000000000E+00 0. -1.
         25    2    1    2    0    0  0.80039155698E+01  0.95002640631E+02  0.21636190798E+02  0.15875993714E+03  0.12508808295E+03 0.  0.
          5    1    3    3  502    0 -0.18319665041E+02  0.67703289183E+02  0.68636588192E+02  0.98223210761E+02  0.41800000000E+01 0. -1.
         -5    1    3    3    0  502  0.26323580610E+02  0.27299351448E+02 -0.47000397394E+02  0.60536726380E+02  0.41800000000E+01 0. -1.
        -11    1    1    2    0    0  0.42559805973E+01 -0.10252246856E+03 -0.41202647426E+02  0.11057408415E+03  0.00000000000E+00 0. -1.
         11    1    1    2    0    0 -0.12259896167E+02  0.75198279330E+01  0.17629819272E+02  0.22752217336E+02  0.00000000000E+00 0.  1.
</event>
<event>
 7    1  0.3151015E-009  0.1252813E+03  0.7561462E-02  0.1234630E+00
         -2   -1    0    0    0  501 -0.00000000000E+00  0.00000000000E+00  0.25131869382E+03  0.25131869382E+03  0.00000000000E+00 0.  1.
          2   -1    0    0  501    0  0.00000000000E+00 -0.00000000000E+00 -0.12600443501E+03  0.12600443501E+03  0.00000000000E+00 0. -1.
         25    2    1    2    0    0 -0.37112378548E+02  0.11274465644E+03 -0.14544958878E+02  0.17305331695E+03  0.12508880238E+03 0.  0.
          5    1    3    3  502    0 -0.28922331885E+02  0.10783996810E+03 -0.59722465602E+02  0.12668940484E+03  0.41800000000E+01 0.  1.
         -5    1    3    3    0  502 -0.81900466631E+01  0.49046883408E+01  0.45177506724E+02  0.46363912107E+02  0.41800000000E+01 0.  1.
        -11    1    1    2    0    0 -0.51752974607E+01 -0.62613281258E+02  0.12048704090E+03  0.13588352997E+03  0.00000000000E+00 0.  1.
         11    1    1    2    0    0  0.42287676009E+02 -0.50131375179E+02  0.19372176796E+02  0.68386281909E+02  0.00000000000E+00 0. -1.
</event>
<event>
 7    1  0.3151015E-009  0.1493907E+03  0.7561462E-02  0.1201224E+00
          1   -1    0    0  501    0  0.00000000000E+00  0.00000000000E+00  0.75553403064E+03  0.75553403064E+03  0.00000000000E+00 0. -1.
         -1   -1    0    0    0  501 -0.00000000000E+00 -0.00000000000E+00 -0.38818955487E+02  0.38818955487E+02  0.00000000000E+00 0.  1.
         25    2    1    2    0    0  0.10981005555E+03 -0.26601085168E+02  0.53958205928E+03  0.56529860700E+03  0.12509136798E+03 0.  0.
          5    1    3    3  502    0  0.85013449043E+02  0.40419409040E+02  0.35587322130E+03  0.36813616664E+03  0.41800000000E+01 0.  1.
         -5    1    3    3    0  502  0.24796606511E+02 -0.67020494208E+02  0.18370883797E+03  0.19716244036E+03  0.41800000000E+01 0.  1.
        -11    1    1    2    0    0 -0.39490247766E+02 -0.24116074982E+02  0.21771228097E+02  0.51137570474E+02  0.00000000000E+00 0.  1.
         11    1    1    2    0    0 -0.70319807787E+02  0.50717160149E+02  0.15536178777E+03  0.17791680865E+03  0.00000000000E+00 0. -1.
</event>
<event>
 7    1  0.3356642E-009  0.7876552E+02  0.7561462E-02  0.1332592E+00
          2   -1    0    0  501    0  0.00000000000E+00  0.00000000000E+00  0.11189290681E+04  0.11189290681E+04  0.00000000000E+00 0.  1.
         -2   -1    0    0    0  501 -0.00000000000E+00 -0.00000000000E+00 -0.17457973182E+02  0.17457973182E+02  0.00000000000E+00 0. -1.
         25    2    1    2    0    0 -0.43360678987E+02  0.27288766104E+02  0.89526194869E+03  0.90541650578E+03  0.12514098820E+03 0.  0.
          5    1    3    3  502    0 -0.65104995005E+02  0.24524141202E+02  0.24364367283E+03  0.25341626938E+03  0.41800000000E+01 0.  1.
         -5    1    3    3    0  502  0.21744316018E+02  0.27646249017E+01  0.65161827587E+03  0.65200023640E+03  0.41800000000E+01 0.  1.
        -11    1    1    2    0    0  0.27537809975E+02 -0.37621168524E+02  0.20687262026E+03  0.21206122774E+03  0.00000000000E+00 0.  1.
         11    1    1    2    0    0  0.15822869012E+02  0.10332402420E+02 -0.66347399592E+00  0.18909307795E+02  0.00000000000E+00 0. -1.
</event>
<event>
 7    1  0.3151015E-009  0.9361128E+02  0.7561462E-02  0.1294335E+00
         -2   -1    0    0    0  501 -0.00000000000E+00  0.00000000000E+00  0.71878908496E+02  0.71878908496E+02  0.00000000000E+00 0. -1.
          2   -1    0    0  501    0  0.00000000000E+00 -0.00000000000E+00 -0.21045956110E+03  0.21045956110E+03  0.00000000000E+00 0.  1.
         25    2    1    2    0    0 -0.34013591289E+02  0.39287610373E+02 -0.47341284116E+02  0.14349116677E+03  0.12509227410E+03 0.  0.
          5    1    3    3  502    0  0.33162108353E+01  0.58366171346E+02 -0.73418388083E+02  0.93943277144E+02  0.41800000000E+01 0. -1.
         -5    1    3    3    0  502 -0.37329802125E+02 -0.19078560972E+02  0.26077103966E+02  0.49547889629E+02  0.41800000000E+01 0. -1.
        -11    1    1    2    0    0 -0.63756513916E+01 -0.45213551756E+02 -0.83039492507E+01  0.46409802480E+02  0.00000000000E+00 0. -1.
         11    1    1    2    0    0  0.40389242681E+02  0.59259413829E+01 -0.82935419237E+02  0.92437500342E+02  0.00000000000E+00 0.  1.
</event>
<event>
 7    1  0.3151015E-009  0.1175303E+03  0.7561462E-02  0.1247228E+00
          2   -1    0    0  501    0  0.00000000000E+00  0.00000000000E+00  0.23716086073E+03  0.23716086073E+03  0.00000000000E+00 0.  1.
         -2   -1    0    0    0  501 -0.00000000000E+00 -0.00000000000E+00 -0.66377462242E+02  0.66377462242E+02  0.00000000000E+00 0. -1.
         25    2    1    2    0    0  0.33128974596E+02  0.33073427455E+02  0.14484580517E+03  0.19702571397E+03  0.12508974430E+03 0.  0.
          5    1    3    3  502    0  0.25668796866E+02  0.80394699779E+02  0.80572888513E+02  0.11675469005E+03  0.41800000000E+01 0.  1.
         -5    1    3    3    0  502  0.74601777298E+01 -0.47321272325E+02  0.64272916657E+02  0.80271023924E+02  0.41800000000E+01 0.  1.
        -11    1    1    2    0    0 -0.63155851312E+02 -0.85991054077E+01  0.22619188522E+02  0.67633082571E+02  0.00000000000E+00 0.  1.
         11    1    1    2    0    0  0.30026876716E+02 -0.24474322047E+02  0.33184047979E+01  0.38879526429E+02  0.00000000000E+00 0. -1.
</event>
<event>
 7    1  0.3151015E-009  0.1401636E+03  0.7561462E-02  0.1213109E+00
         -1   -1    0    0    0  501 -0.00000000000E+00  0.00000000000E+00  0.44446952584E+03  0.44446952584E+03  0.00000000000E+00 0.  1.
          1   -1    0    0  501    0  0.00000000000E+00 -0.00000000000E+00 -0.51146724017E+02  0.51146724017E+02  0.00000000000E+00 0. -1.
         25    2    1    2    0    0  0.10096920224E+03  0.27303827545E+02  0.18766824290E+03  0.24861213949E+03  0.12509335598E+03 0.  0.
          5    1    3    3  502    0  0.90265004869E+02  0.62427635079E+02  0.83155850926E+02  0.13775829800E+03  0.41800000000E+01 0. -1.
         -5    1    3    3    0  502  0.10704197374E+02 -0.35123807533E+02  0.10451239197E+03  0.11085384149E+03  0.41800000000E+01 0. -1.
        -11    1    1    2    0    0 -0.24170889295E+02  0.29413341854E+02  0.36356351562E+02  0.52641816716E+02  0.00000000000E+00 0.  1.
         11    1    1    2    0    0 -0.76798312948E+02 -0.56717169399E+02  0.16929820736E+03  0.19436229365E+03  0.00000000000E+00 0. -1.
</event>
<event>
 7    1  0.3151015E-009  0.1346324E+03  0.7561462E-02  0.1220740E+00
          2   -1    0    0  501    0  0.00000000000E+00  0.00000000000E+00  0.10141164471E+04  0.10141164471E+04  0.00000000000E+00 0. -1.
         -2   -1    0    0    0  501 -0.00000000000E+00 -0.00000000000E+00 -0.20412391189E+02  0.20412391189E+02  0.00000000000E+00 0.  1.
         25    2    1    2    0    0  0.36187362135E+02  0.84382742560E+02  0.61204674037E+03  0.63140959906E+03  0.12508755722E+03 0.  0.
          5    1    3    3  502    0 -0.32576610084E+02  0.59118638848E+02  0.42739478186E+03  0.43271239980E+03  0.41800000000E+01 0. -1.
         -5    1    3    3    0  502  0.68763972219E+02  0.25264103712E+02  0.18465195851E+03  0.19869719926E+03  0.41800000000E+01 0. -1.
        -11    1    1    2    0    0 -0.64516245640E+02 -0.73781927515E+02  0.26305292375E+03  0.28071864824E+03  0.00000000000E+00 0.  1.
         11    1    1    2    0    0  0.28328883506E+02 -0.10600815045E+02  0.11860439180E+03  0.12240059099E+03  0.00000000000E+00 0. -1.
</event>
<event>
 7    1  0.3151015E-009  0.8711425E+02  0.7561462E-02  0.1309994E+00
         -4   -1    0    0    0  501 -0.00000000000E+00  0.00000000000E+00  0.64176801496E+02  0.64176801496E+02  0.00000000000E+00 0.  1.
          4   -1    0    0  501    0  0.00000000000E+00 -0.00000000000E+00 -0.23001860604E+03  0.23001860604E+03  0.00000000000E+00 0. -1.
         25    2    1    2    0    0 -0.41657209263E+02 -0.80884286628E+01 -0.74793450602E+02  0.15179591503E+03  0.12508874371E+03 0.  0.
          5    1    3    3  502    0 -0.30615338340E+02  0.31394579189E+02 -0.95872074733E+02  0.10550756209E+03  0.41800000000E+01 0. -1.
         -5    1    3    3    0  502 -0.11041870923E+02 -0.39483007852E+02  0.21078624131E+02  0.46288352938E+02  0.41800000000E+01 0. -1.
        -11    1    1    2    0    0  0.40389155932E+02  0.40109786633E+02 -0.94342339365E+02  0.11018419078E+03  0.00000000000E+00 0. -1.
         11    1    1    2    0    0  0.12680533311E+01 -0.32021357971E+02  0.32939854257E+01  0.32215301729E+02  0.00000000000E+00 0.  1.
</event>
<event>
 7    1  0.3151015E-009  0.3221534E+03  0.7561462E-02  0.1074663E+00
          1   -1    0    0  501    0  0.00000000000E+00  0.00000000000E+00  0.72639452354E+03  0.72639452354E+03  0.00000000000E+00 0. -1.
         -1   -1    0    0    0  501 -0.00000000000E+00 -0.00000000000E+00 -0.15614197790E+03  0.15614197790E+03  0.00000000000E+00 0.  1.
         25    2    1    2    0    0 -0.27302498231E+02 -0.31404049960E+03  0.22885087794E+03  0.40913328797E+03  0.12510180333E+03 0.  0.
          5    1    3    3  502    0 -0.10199072082E+02 -0.23986002985E+03  0.23054331070E+03  0.33287316729E+03  0.41800000000E+01 0.  1.
         -5    1    3    3    0  502 -0.17103426149E+02 -0.74180469747E+02 -0.16924327662E+01  0.76260120683E+02  0.41800000000E+01 0.  1.
        -11    1    1    2    0    0 -0.33340626532E+02  0.12837719707E+03  0.13688668522E+03  0.19060500176E+03  0.00000000000E+00 0. -1.
         11    1    1    2    0    0  0.60643124764E+02  0.18566330253E+03  0.20451498248E+03  0.28279821171E+03  0.00000000000E+00 0.  1.
</event>
<event>
 7    1  0.3151015E-009  0.1519015E+03  0.7561462E-02  0.1198156E+00
          2   -1    0    0  501    0  0.00000000000E+00  0.00000000000E+00  0.40640134302E+03  0.40640134302E+03  0.00000000000E+00 0. -1.
         -2   -1    0    0    0  501 -0.00000000000E+00 -0.00000000000E+00 -0.87426119942E+02  0.87426119942E+02  0.00000000000E+00 0.  1.
         25    2    1    2    0    0 -0.12193315028E+03 -0.86892361932E+02  0.21145857888E+03  0.28771667378E+03  0.12509267800E+03 0.  0.
          5    1    3    3  502    0 -0.12052073123E+03 -0.88275590216E+02  0.10856800548E+03  0.18472225285E+03  0.41800000000E+01 0.  1.
         -5    1    3    3    0  502 -0.14124190514E+01  0.13832282841E+01  0.10289057340E+03  0.10299442093E+03  0.41800000000E+01 0.  1.
        -11    1    1    2    0    0  0.56045090018E+02  0.40484969660E+02  0.10470365848E+03  0.12547087703E+03  0.00000000000E+00 0.  1.
         11    1    1    2    0    0  0.65888060263E+02  0.46407392271E+02  0.28129857143E+01  0.80639912148E+02  0.00000000000E+00 0. -1.
</event>
<event>
 7    1  0.3151015E-009  0.2699225E+03  0.7561462E-02  0.1101324E+00
         -1   -1    0    0    0  501 -0.00000000000E+00  0.00000000000E+00  0.62203121925E+03  0.62203121925E+03  0.00000000000E+00 0.  1.
          1   -1    0    0  501    0  0.00000000000E+00 -0.00000000000E+00 -0.18412322501E+03  0.18412322501E+03  0.00000000000E+00 0. -1.
         25    2    1    2    0    0  0.25331858458E+03 -0.34963167217E+02 -0.70986376486E+01  0.28476572956E+03  0.12509357186E+03 0.  0.
          5    1    3    3  502    0  0.67080901259E+02 -0.55613398808E+02 -0.37383835325E+02  0.94909014242E+02  0.41800000000E+01 0.  1.
         -5    1    3    3    0  502  0.18623768332E+03  0.20650231591E+02  0.30285197676E+02  0.18985671532E+03  0.41800000000E+01 0.  1.
        -11    1    1    2    0    0 -0.19494487290E+03 -0.40249860304E+01  0.37262945003E+03  0.42056201803E+03  0.00000000000E+00 0. -1.
         11    1    1    2    0    0 -0.58373711674E+02  0.38988153248E+02  0.72377181861E+02  0.10082669668E+03  0.00000000000E+00 0.  1.
</event>
<event>
 7    1  0.3151015E-009  0.8190695E+02  0.7561462E-02  0.1323725E+00
         -4   -1    0    0    0  501 -0.00000000000E+00  0.00000000000E+00  0.94044814945E+02  0.94044814945E+02  0.00000000000E+00 0.  1.
          4   -1    0    0  501    0  0.00000000000E+00 -0.00000000000E+00 -0.15332904602E+03  0.15332904602E+03  0.00000000000E+00 0. -1.
         25    2    1    2    0    0 -0.21677686994E+01  0.26174292535E+02 -0.11642543519E+02  0.12834354185E+03  0.12508686224E+03 0.  0.
          5    1    3    3  502    0 -0.32770007236E+02  0.66844244281E+01  0.47853757582E+02  0.58532122966E+02  0.41800000000E+01 0. -1.
         -5    1    3    3    0  502  0.30602238537E+02  0.19489868107E+02 -0.59496301101E+02  0.69811418887E+02  0.41800000000E+01 0. -1.
        -11    1    1    2    0    0 -0.37271074296E+02 -0.37176680599E+02 -0.56409357180E+02  0.77157333657E+02  0.00000000000E+00 0.  1.
         11    1    1    2    0    0  0.39438842996E+02  0.11002388064E+02  0.87676696277E+01  0.41872985452E+02  0.00000000000E+00 0. -1.
</event>
<event>
 7    1  0.3151015E-009  0.1255178E+03  0.7561462E-02  0.1234262E+00
          2   -1    0    0  501    0  0.00000000000E+00  0.00000000000E+00  0.12961157662E+04  0.12961157662E+04  0.00000000000E+00 0. -1.
         -2   -1    0    0    0  501 -0.00000000000E+00 -0.00000000000E+00 -0.17464730115E+02  0.17464730115E+02  0.00000000000E+00 0.  1.
         25    2    1    2    0    0 -0.29423652076E+02 -0.98913257794E+02  0.62969707042E+03  0.65024266759E+03  0.12509013709E+03 0.  0.
          5    1    3    3  502    0  0.14801903703E+02 -0.29401441517E+02  0.46361839481E+03  0.46480429163E+03  0.41800000000E+01 0.  1.
         -5    1    3    3    0  502 -0.44225555779E+02 -0.69511816277E+02  0.16607867561E+03  0.18543837596E+03  0.41800000000E+01 0.  1.
        -11    1    1    2    0    0  0.56652613296E+02  0.90664173386E+02  0.55366013213E+03  0.56388744696E+03  0.00000000000E+00 0. -1.
         11    1    1    2    0    0 -0.27228961220E+02  0.82490844080E+01  0.95293833583E+02  0.99450381808E+02  0.00000000000E+00 0.  1.
</event>
<event>
 7    1  0.3151015E-009  0.5957684E+02  0.7561462E-02  0.1399616E+00
          2   -1    0    0  501    0  0.00000000000E+00  0.00000000000E+00  0.42516907698E+03  0.42516907698E+03  0.00000000000E+00 0. -1.
         -2   -1    0    0    0  501 -0.00000000000E+00 -0.00000000000E+00 -0.31202876488E+02  0.31202876488E+02  0.00000000000E+00 0.  1.
         25    2    1    2    0    0  0.18346730459E+02 -0.77076234555E+01  0.27914655061E+03  0.30653896225E+03  0.12508928286E+03 0.  0.
          5    1    3    3  502    0 -0.84363894267E+01  0.17467988982E+02  0.26680189930E+03  0.26753883676E+03  0.41800000000E+01 0. -1.
         -5    1    3    3    0  502  0.26783119885E+02 -0.25175612437E+02  0.12344651305E+02  0.39000125490E+02  0.41800000000E+01 0. -1.
        -11    1    1    2    0    0  0.14657422182E+02  0.21929627116E+02 -0.30999822398E+01  0.26558585436E+02  0.00000000000E+00 0.  1.
         11    1    1    2    0    0 -0.33004152641E+02 -0.14222003660E+02  0.11791963213E+03  0.12327440578E+03  0.00000000000E+00 0. -1.
</event>
<event>
 7    1  0.3151015E-009  0.3176332E+03  0.7561462E-02  0.1076744E+00
         -1   -1    0    0    0  501 -0.00000000000E+00  0.00000000000E+00  0.66961043890E+02  0.66961043890E+02  0.00000000000E+00 0.  1.
          1   -1    0    0  501    0  0.00000000000E+00 -0.00000000000E+00 -0.19917602971E+04  0.19917602971E+04  0.00000000000E+00 0. -1.
         25    2    1    2    0    0  0.20483060196E+03 -0.24198515230E+03 -0.13858526331E+04  0.14271466937E+04  0.12509106877E+03 0.  0.
          5    1    3    3  502    0  0.19800374205E+03 -0.22925749433E+03 -0.13764886046E+04  0.14094335144E+04  0.41800000000E+01 0.  1.
         -5    1    3    3    0  502  0.68268599024E+01 -0.12727657968E+02 -0.93640284944E+01  0.17713179363E+02  0.41800000000E+01 0.  1.
        -11    1    1    2    0    0 -0.15309493296E+03  0.17238439958E+03 -0.45888431040E+03  0.51354576237E+03  0.00000000000E+00 0.  1.
         11    1    1    2    0    0 -0.51735668996E+02  0.69600752717E+02 -0.80062309800E+02  0.11802888492E+03  0.00000000000E+00 0. -1.
</event>
<event>
 7    1  0.3151015E-009  0.1217571E+03  0.7561462E-02  0.1240226E+00
          1   -1    0    0  501    0  0.00000000000E+00  0.00000000000E+00  0.65299012983E+03  0.65299012983E+03  0.00000000000E+00 0. -1.
         -1   -1    0    0    0  501 -0.00000000000E+00 -0.00000000000E+00 -0.35459640052E+02  0.35459640052E+02  0.00000000000E+00 0.  1.
         25    2    1    2    0    0  0.41320593872E+02 -0.83867145243E+02  0.45017881249E+03  0.47649747508E+03  0.12509113081E+03 0.  0.
          5    1    3    3  502    0  0.58462711775E+02 -0.60577143523E+02  0.43590229396E+03  0.44397720805E+03  0.41800000000E+01 0. -1.
         -5    1    3    3    0  502 -0.17142117904E+02 -0.23290001720E+02  0.14276518535E+02  0.32520267032E+02  0.41800000000E+01 0. -1.
        -11    1    1    2    0    0 -0.44144422987E+02 -0.19052043963E+01  0.53810665524E+02  0.69627204516E+02  0.00000000000E+00 0.  1.
         11    1    1    2    0    0  0.28238291155E+01  0.85772349639E+02  0.11354101176E+03  0.14232509029E+03  0.00000000000E+00 0. -1.
</event>
<event>
 7    1  0.3151015E-009  0.7538061E+02  0.7561462E-02  0.1342696E+00
          1   -1    0    0  501    0  0.00000000000E+00  0.00000000000E+00  0.29890766459E+03  0.29890766459E+03  0.00000000000E+00 0. -1.
         -1   -1    0    0    0  501 -0.00000000000E+00 -0.00000000000E+00 -0.43298885301E+02  0.43298885301E+02  0.00000000000E+00 0.  1.
         25    2    1    2    0    0  0.12426512080E+02  0.29123317676E+02  0.13284900310E+03  0.18515963434E+03  0.12503058317E+03 0.  0.
          5    1    3    3  502    0  0.47841340758E+02  0.21827414390E+02  0.13860873824E+03  0.14830739907E+03  0.41800000000E+01 0. -1.
         -5    1    3    3    0  502 -0.35414828678E+02  0.72959032860E+01 -0.57597351377E+01  0.36852235264E+02  0.41800000000E+01 0. -1.
        -11    1    1    2    0    0  0.20932994878E+02 -0.11160360435E+02 -0.46059096031E+01  0.24165229626E+02  0.00000000000E+00 0.  1.
         11    1    1    2    0    0 -0.33359506958E+02 -0.17962957242E+02  0.12736568579E+03  0.13288168593E+03  0.00000000000E+00 0. -1.
</event>
<event>
 7    1  0.3151015E-009  0.1154892E+03  0.7561462E-02  0.1250730E+00
         -2   -1    0    0    0  501 -0.00000000000E+00  0.00000000000E+00  0.57786769439E+02  0.57786769439E+02  0.00000000000E+00 0.  1.
          2   -1    0    0  501    0  0.00000000000E+00 -0.00000000000E+00 -0.66096371192E+03  0.66096371192E+03  0.00000000000E+00 0. -1.
         25    2    1    2    0    0 -0.90937333115E+02  0.52989870339E+02 -0.90983547653E+02  0.18708851541E+03  0.12508629718E+03 0.  0.
          5    1    3    3  502    0 -0.19201934247E+02 -0.58985059250E+01  0.28885812872E+02  0.35431190161E+02  0.41800000000E+01 0.  1.
         -5    1    3    3    0  502 -0.71735398868E+02  0.58888376264E+02 -0.11986936052E+03  0.15165732525E+03  0.41800000000E+01 0.  1.
        -11    1    1    2    0    0 -0.42282933931E+01 -0.14152452377E+02 -0.74193402242E+01  0.16529276532E+02  0.00000000000E+00 0.  1.
         11    1    1    2    0    0  0.95165626508E+02 -0.38837417961E+02 -0.50477405460E+03  0.51513268942E+03  0.00000000000E+00 0. -1.
</event>
<event>
 7    1  0.3151015E-009  0.1000101E+03  0.7561462E-02  0.1280275E+00
          2   -1    0    0  501    0  0.00000000000E+00  0.00000000000E+00  0.10746548856E+04  0.10746548856E+04  0.00000000000E+00 0. -1.
         -2   -1    0    0    0  501 -0.00000000000E+00 -0.00000000000E+00 -0.11102187939E+02  0.11102187939E+02  0.00000000000E+00 0.  1.
         25    2    1    2    0    0 -0.34518156667E+01  0.35855313916E+01  0.70774627511E+03  0.71873300833E+03  0.12509027241E+03 0.  0.
          5    1    3    3  502    0 -0.55248096903E+01  0.56906899133E+02  0.53030403304E+03  0.53339362439E+03  0.41800000000E+01 0.  1.
         -5    1    3    3    0  502  0.20729940236E+01 -0.53321367741E+02  0.17744224208E+03  0.18533938393E+03  0.41800000000E+01 0.  1.
        -11    1    1    2    0    0 -0.31295602374E+02 -0.31644509387E+02  0.20317605235E+03  0.20799350458E+03  0.00000000000E+00 0.  1.
         11    1    1    2    0    0  0.34747418041E+02  0.28058977996E+02  0.15263037024E+03  0.15903056067E+03  0.00000000000E+00 0. -1.
</event>
<event>
 7    1  0.3151015E-009  0.1333016E+03  0.7561462E-02  0.1222637E+00
          1   -1    0    0  501    0  0.00000000000E+00  0.00000000000E+00  0.25297651208E+03  0.25297651208E+03  0.00000000000E+00 0. -1.
         -1   -1    0    0    0  501 -0.00000000000E+00 -0.00000000000E+00 -0.91879079315E+02  0.91879079315E+02  0.00000000000E+00 0.  1.
         25    2    1    2    0    0 -0.33390824697E+02 -0.97637487195E+02  0.54477527021E+02  0.17106471184E+03  0.12508920260E+03 0.  0.
          5    1    3    3  502    0  0.27749538520E+02 -0.50985044523E+02  0.71494789590E+02  0.92187249615E+02  0.41800000000E+01 0. -1.
         -5    1    3    3    0  502 -0.61140363218E+02 -0.46652442672E+02 -0.17017262569E+02  0.78877462224E+02  0.41800000000E+01 0. -1.
        -11    1    1    2    0    0  0.54330908125E+02  0.96092537342E+02  0.67494912648E+02  0.12938773722E+03  0.00000000000E+00 0.  1.
         11    1    1    2    0    0 -0.20940083428E+02  0.15449498523E+01  0.39124993094E+02  0.44403142329E+02  0.00000000000E+00 0. -1.
</event>
<event>
 7    1  0.3151015E-009  0.9782127E+02  0.7561462E-02  0.1284945E+00
          3   -1    0    0  501    0  0.00000000000E+00  0.00000000000E+00  0.11030737728E+03  0.11030737728E+03  0.00000000000E+00 0.  1.
         -3   -1    0    0    0  501 -0.00000000000E+00 -0.00000000000E+00 -0.15151672270E+03  0.15151672270E+03  0.00000000000E+00 0. -1.
         25    2    1    2    0    0 -0.13853455659E+02 -0.47669955484E+02 -0.86227410328E+02  0.15983577935E+03  0.12509183498E+03 0.  0.
          5    1    3    3  502    0 -0.50123219051E+02 -0.97758858520E+00  0.55191943751E+01  0.50608563248E+02  0.41800000000E+01 0. -1.
         -5    1    3    3    0  502  0.36269763393E+02 -0.46692366899E+02 -0.91746604704E+02  0.10922721610E+03  0.41800000000E+01 0. -1.
        -11    1    1    2    0    0 -0.15088170341E+01 -0.18283212635E+02  0.25685395428E+02  0.31564092438E+02  0.00000000000E+00 0.  1.
         11    1    1    2    0    0  0.15362272693E+02  0.65953168119E+02  0.19332669473E+02  0.70424228190E+02  0.00000000000E+00 0. -1.
</event>
<event>
 7    1  0.3151015E-009  0.1179122E+03  0.7561462E-02  0.1246581E+00
         -3   -1    0    0    0  501 -0.00000000000E+00  0.00000000000E+00  0.43508093378E+03  0.43508093378E+03  0.00000000000E+00 0.  1.
          3   -1    0    0  501    0  0.00000000000E+00 -0.00000000000E+00 -0.75481540800E+02  0.75481540800E+02  0.00000000000E+00 0. -1.
         25    2    1    2    0    0 -0.40852155738E+02  0.85533930446E+02  0.34153842426E+03  0.37587213188E+03  0.12508562023E+03 0.  0.
          5    1    3    3  502    0 -0.74739111849E+02  0.67155455964E+02  0.30995619526E+03  0.32586209581E+03  0.41800000000E+01 0.  1.
         -5    1    3    3    0  502  0.33886956111E+02  0.18378474482E+02  0.31582228999E+02  0.50010036066E+02  0.41800000000E+01 0.  1.
        -11    1    1    2    0    0  0.14223666592E+02 -0.50583137158E+02 -0.36986455222E+02  0.64257017718E+02  0.00000000000E+00 0. -1.
         11    1    1    2    0    0  0.26628489146E+02 -0.34950793288E+02  0.55047423938E+02  0.70433324981E+02  0.00000000000E+00 0.  1.
</event>
<event>
 7    1  0.3151015E-009  0.1123966E+03  0.7561462E-02  0.1256195E+00
          2   -1    0    0  501    0  0.00000000000E+00  0.00000000000E+00  0.91961601492E+03  0.91961601492E+03  0.00000000000E+00 0. -1.
         -2   -1    0    0    0  501 -0.00000000000E+00 -0.00000000000E+00 -0.19566012270E+02  0.19566012270E+02  0.00000000000E+00 0.  1.
         25    2    1    2    0    0  0.39497630715E+02  0.57909056350E+02  0.37493628612E+03  0.40140829570E+03  0.12505150765E+03 0.  0.
          5    1    3    3  502    0  0.43702495267E+02 -0.68839664671E+01  0.29505429404E+03  0.29838197988E+03  0.41800000000E+01 0.  1.
         -5    1    3    3    0  502 -0.42048645520E+01  0.64793022817E+02  0.79881992085E+02  0.10302631582E+03  0.41800000000E+01 0.  1.
        -11    1    1    2    0    0  0.20790019901E+02  0.11172650309E+02  0.85346724314E+02  0.88550078450E+02  0.00000000000E+00 0. -1.
         11    1    1    2    0    0 -0.60287650616E+02 -0.69081706659E+02  0.43976699221E+03  0.44922365304E+03  0.00000000000E+00 0.  1.
</event>
<event>
 7    1  0.3151015E-009  0.1432258E+03  0.7561462E-02  0.1209053E+00
          1   -1    0    0  501    0  0.00000000000E+00  0.00000000000E+00  0.50540512454E+02  0.50540512454E+02  0.00000000000E+00 0. -1.
         -1   -1    0    0    0  501 -0.00000000000E+00 -0.00000000000E+00 -0.43942400702E+03  0.43942400702E+03  0.00000000000E+00 0.  1.
         25    2    1    2    0    0  0.40426993016E+02 -0.94634189926E+02 -0.23377004879E+03  0.28440287223E+03  0.12508631561E+03 0.  0.
          5    1    3    3  502    0  0.52136616295E+02 -0.12147463713E+03 -0.18633927246E+03  0.22850407236E+03  0.41800000000E+01 0.  1.
         -5    1    3    3    0  502 -0.11709623278E+02  0.26840447203E+02 -0.47430776331E+02  0.55898799869E+02  0.41800000000E+01 0.  1.
        -11    1    1    2    0    0  0.19794725773E+02  0.32730955741E+02 -0.15242348030E+02  0.41176155790E+02  0.00000000000E+00 0. -1.
         11    1    1    2    0    0 -0.60221718789E+02  0.61903234185E+02 -0.13987109775E+03  0.16438549146E+03  0.00000000000E+00 0.  1.
</event>
<event>
 7    1  0.3151015E-009  0.1354060E+03  0.7561462E-02  0.1219648E+00
         -1   -1    0    0    0  501 -0.00000000000E+00  0.00000000000E+00  0.30038083100E+03  0.30038083100E+03  0.00000000000E+00 0.  1.
          1   -1    0    0  501    0  0.00000000000E+00 -0.00000000000E+00 -0.10801519966E+03  0.10801519966E+03  0.00000000000E+00 0. -1.
         25    2    1    2    0    0  0.15857410971E+01  0.12469980431E+03  0.20311965734E+02  0.17780009446E+03  0.12509093439E+03 0.  0.
          5    1    3    3  502    0 -0.36911133682E+02  0.66838660631E+02  0.60414149821E+02  0.97453477328E+02  0.41800000000E+01 0. -1.
         -5    1    3    3    0  502  0.38496874779E+02  0.57861143680E+02 -0.40102184087E+02  0.80346617130E+02  0.41800000000E+01 0. -1.
        -11    1    1    2    0    0 -0.10787715994E+01 -0.29260099973E+02  0.11658757349E+03  0.12020806749E+03  0.00000000000E+00 0.  1.
         11    1    1    2    0    0 -0.50696949767E+00 -0.95439704339E+02  0.55466092122E+02  0.11038786871E+03  0.00000000000E+00 0. -1.
</event>
<event>
 7    1  0.3151015E-009  0.1077325E+03  0.7561462E-02  0.1264827E+00
         -3   -1    0    0    0  501 -0.00000000000E+00  0.00000000000E+00  0.23275559105E+02  0.23275559105E+02  0.00000000000E+00 0.  1.
          3   -1    0    0  501    0  0.00000000000E+00 -0.00000000000E+00 -0.55244598690E+03  0.55244598690E+03  0.00000000000E+00 0. -1.
         25    2    1    2    0    0 -0.18273918417E+02 -0.17314913312E+02 -0.23989227306E+03  0.27171301560E+03  0.12508364343E+03 0.  0.
          5    1    3    3  502    0 -0.11992924440E+02  0.53764962205E+02 -0.89097585079E+02  0.10483488668E+03  0.41800000000E+01 0. -1.
         -5    1    3    3    0  502 -0.62809939773E+01 -0.71079875517E+02 -0.15079468798E+03  0.16687812892E+03  0.41800000000E+01 0. -1.
        -11    1    1    2    0    0  0.39262285883E+02 -0.21390737430E+02 -0.97837424933E+02  0.10756975624E+03  0.00000000000E+00 0.  1.
         11    1    1    2    0    0 -0.20988367466E+02  0.38705650743E+02 -0.19144072980E+03  0.19643877416E+03  0.00000000000E+00 0. -1.
</event>
<event>
 7    1  0.3151015E-009  0.2426499E+03  0.7561462E-02  0.1118040E+00
         -2   -1    0    0    0  501 -0.00000000000E+00  0.00000000000E+00  0.84205844453E+02  0.84205844453E+02  0.00000000000E+00 0.  1.
          2   -1    0    0  501    0  0.00000000000E+00 -0.00000000000E+00 -0.79457933621E+03  0.79457933621E+03  0.00000000000E+00 0. -1.
         25    2    1    2    0    0 -0.85380738376E+02 -0.21349025063E+03 -0.28716082278E+03  0.38856092474E+03  0.12510114506E+03 0.  0.
          5    1    3    3  502    0 -0.11201844465E+03 -0.16514302945E+03 -0.18390438426E+03  0.27140126578E+03  0.41800000000E+01 0. -1.
         -5    1    3    3    0  502  0.26637706272E+02 -0.48347221175E+02 -0.10325643852E+03  0.11715965896E+03  0.41800000000E+01 0. -1.
        -11    1    1    2    0    0  0.56054900711E+02  0.12174988485E+03 -0.15324598935E+03  0.20359155092E+03  0.00000000000E+00 0.  1.
         11    1    1    2    0    0  0.29325837665E+02  0.91740365779E+02 -0.26996667963E+03  0.28663270501E+03  0.00000000000E+00 0. -1.
</event>
<event>
 7    1  0.3151015E-009  0.1248024E+03  0.7561462E-02  0.1235378E+00
          4   -1    0    0  501    0  0.00000000000E+00  0.00000000000E+00  0.32843064817E+02  0.32843064817E+02  0.00000000000E+00 0. -1.
         -4   -1    0    0    0  501 -0.00000000000E+00 -0.00000000000E+00 -0.69810874879E+03  0.69810874879E+03  0.00000000000E+00 0.  1.
         25    2    1    2    0    0 -0.58757653043E+02 -0.23386268207E+02 -0.15549022618E+03  0.20934229384E+03  0.12509039219E+03 0.  0.
          5    1    3    3  502    0 -0.93255207859E+02  0.65254218335E+01 -0.93973146020E+02  0.13261802101E+03  0.41800000000E+01 0. -1.
         -5    1    3    3    0  502  0.34497554816E+02 -0.29911690041E+02 -0.61517080164E+02  0.76724272830E+02  0.41800000000E+01 0. -1.
        -11    1    1    2    0    0  0.51575729222E+02 -0.27731089483E+02 -0.25166119224E+03  0.25838425813E+03  0.00000000000E+00 0. -1.
         11    1    1    2    0    0  0.71819238211E+01  0.51117357691E+02 -0.25811426554E+03  0.26322526164E+03  0.00000000000E+00 0.  1.
</event>
<event>
 7    1  0.3151015E-009  0.1509913E+03  0.7561462E-02  0.1199260E+00
         -2   -1    0    0    0  501 -0.00000000000E+00  0.00000000000E+00  0.39548670119E+02  0.39548670119E+02  0.00000000000E+00 0.  1.
          2   -1    0    0  501    0  0.00000000000E+00 -0.00000000000E+00 -0.62782511317E+03  0.62782511317E+03  0.00000000000E+00 0. -1.
         25    2    1    2    0    0 -0.28687195812E+02 -0.10533155074E+03 -0.41433421147E+03  0.44636004637E+03  0.12508701538E+03 0.  0.
          5    1    3    3  502    0 -0.65640388651E+02 -0.14225506974E+02 -0.15466249001E+03  0.16866826580E+03  0.41800000000E+01 0. -1.
         -5    1    3    3    0  502  0.36953192840E+02 -0.91106043768E+02 -0.25967172145E+03  0.27769178057E+03  0.41800000000E+01 0. -1.
        -11    1    1    2    0    0  0.57308156611E+02  0.77267958481E+02 -0.11964267259E+03  0.15352176174E+03  0.00000000000E+00 0.  1.
         11    1    1    2    0    0 -0.28620960799E+02  0.28063592261E+02 -0.54299558996E+02  0.67491975188E+02  0.00000000000E+00 0. -1.
</event>
<event>
 7    1  0.3151015E-009  0.1223652E+03  0.7561462E-02  0.1239245E+00
          2   -1    0    0  501    0  0.00000000000E+00  0.00000000000E+00  0.78198012345E+03  0.78198012345E+03  0.00000000000E+00 0. -1.
         -2   -1    0    0    0  501 -0.00000000000E+00 -0.00000000000E+00 -0.19833363358E+02  0.19833363358E+02  0.00000000000E+00 0.  1.
         25    2    1    2    0    0 -0.59121591665E+02  0.76840560668E+01  0.43895563079E+03  0.46032084121E+03  0.12513522177E+03 0.  0.
          5    1    3    3  502    0 -0.62258818934E+02 -0.50328192430E+02  0.26630077936E+03  0.27810549253E+03  0.41800000000E+01 0. -1.
         -5    1    3    3    0  502  0.31372272689E+01  0.58012248496E+02  0.17265485144E+03  0.18221534868E+03  0.41800000000E+01 0. -1.
        -11    1    1    2    0    0 -0.43633743434E+01  0.31442441121E+02  0.59237292978E+02  0.67206569758E+02  0.00000000000E+00 0.  1.
         11    1    1    2    0    0  0.63484966009E+02 -0.39126497188E+02  0.26395383632E+03  0.27428607584E+03  0.00000000000E+00 0. -1.
</event>
<event>
 7    1  0.4725971E-009  0.2087916E+03  0.7561462E-02  0.1142526E+00
         -2   -1    0    0    0  501 -0.00000000000E+00  0.00000000000E+00  0.44209575940E+02  0.44209575940E+02  0.00000000000E+00 0.  1.
          2   -1    0    0  501    0  0.00000000000E+00 -0.00000000000E+00 -0.11680496887E+04  0.11680496887E+04  0.00000000000E+00 0. -1.
         25    2    1    2    0    0  0.17981395484E+03 -0.34627348835E+02 -0.37298753098E+03  0.43393590553E+03  0.12509420532E+03 0.  0.
          5    1    3    3  502    0  0.19747709278E+03 -0.33324758628E+02 -0.35853373586E+03  0.41069654718E+03  0.41800000000E+01 0.  1.
         -5    1    3    3    0  502 -0.17663137950E+02 -0.13025902067E+01 -0.14453795118E+02  0.23239358356E+02  0.41800000000E+01 0.  1.
        -11    1    1    2    0    0 -0.52774949086E+02 -0.25396145764E+02 -0.31451282585E+03  0.31991948534E+03  0.00000000000E+00 0. -1.
         11    1    1    2    0    0 -0.12703900575E+03  0.60023494599E+02 -0.43633975591E+03  0.45840387376E+03  0.00000000000E+00 0.  1.
</event>
<event>
 7    1  0.3151015E-009  0.1674759E+03  0.7561462E-02  0.1180506E+00
         -1   -1    0    0    0  501 -0.00000000000E+00  0.00000000000E+00  0.39298217324E+03  0.39298217324E+03  0.00000000000E+00 0. -1.
          1   -1    0    0  501    0  0.00000000000E+00 -0.00000000000E+00 -0.11313827647E+03  0.11313827647E+03  0.00000000000E+00 0.  1.
         25    2    1    2    0    0 -0.13896946081E+03  0.68082562115E+02  0.35023894373E+02  0.20205046394E+03  0.12509984212E+03 0.  0.
          5    1    3    3  502    0 -0.14892452533E+03  0.53211530617E+02 -0.47118963880E+01  0.15827082992E+03  0.41800000000E+01 0.  1.
         -5    1    3    3    0  502  0.99550645224E+01  0.14871031498E+02  0.39735790761E+02  0.43779634019E+02  0.41800000000E+01 0.  1.
        -11    1    1    2    0    0  0.10473498942E+03 -0.66580671545E+02  0.23901411448E+03  0.26931422308E+03  0.00000000000E+00 0. -1.
         11    1    1    2    0    0  0.34234471385E+02 -0.15018905698E+01  0.58058879129E+01  0.34755762698E+02  0.00000000000E+00 0.  1.
</event>
<event>
 7    1  0.3151015E-009  0.1888291E+03  0.7561462E-02  0.1159522E+00
         -4   -1    0    0    0  501 -0.00000000000E+00  0.00000000000E+00  0.11705872312E+03  0.11705872312E+03  0.00000000000E+00 0.  1.
          4   -1    0    0  501    0  0.00000000000E+00 -0.00000000000E+00 -0.55280306318E+03  0.55280306318E+03  0.00000000000E+00 0. -1.
         25    2    1    2    0    0 -0.16270737154E+03 -0.36140117201E+02 -0.16043877715E+02  0.20901887374E+03  0.12510670144E+03 0.  0.
          5    1    3    3  502    0 -0.14275604254E+03  0.38612950008E+01 -0.51440086432E+02  0.15184779278E+03  0.41800000000E+01 0. -1.
         -5    1    3    3    0  502 -0.19951328998E+02 -0.40001412202E+02  0.35396208717E+02  0.57171080963E+02  0.41800000000E+01 0. -1.
        -11    1    1    2    0    0  0.13187050749E+03 -0.12329317967E+02 -0.27790779051E+03  0.30785480807E+03  0.00000000000E+00 0.  1.
         11    1    1    2    0    0  0.30836864042E+02  0.48469435168E+02 -0.14179267184E+03  0.15298810449E+03  0.00000000000E+00 0. -1.
</event>
