<event>
 6    1  0.1190675E-005  0.1499909E+03  0.7546771E-02  0.1210001E+00
         -2   -1    0    0    0  501 -0.00000000000E+00  0.00000000000E+00  0.18968744639E+02  0.18968744639E+02  0.00000000000E+00 0.  1.
          2   -1    0    0  501    0  0.00000000000E+00 -0.00000000000E+00 -0.10100740056E+04  0.10100740056E+04  0.00000000000E+00 0. -1.
          5    1    1    2  502    0  0.66753085117E+01 -0.69184885279E+02 -0.21506655656E+03  0.22606817964E+03  0.47000000000E+01 0. -1.
         -5    1    1    2    0  502  0.66869502122E+02  0.30922368991E+02 -0.42274588105E+03  0.42914320822E+03  0.47000000000E+01 0. -1.
        -11    1    1    2    0    0 -0.48792510753E+02  0.66148762064E+02 -0.20363977569E+03  0.21960311034E+03  0.00000000000E+00 0.  1.
         11    1    1    2    0    0 -0.24752299882E+02 -0.27886245776E+02 -0.14965304770E+03  0.15422825208E+03  0.00000000000E+00 0. -1.
<mgrwt>
<rscale>  0 0.14250197E+03</rscale>
<asrwt>0</asrwt>
<pdfrwt beam="2">  1        2 0.15539605E+00 0.14999086E+03</pdfrwt>
<pdfrwt beam="1">  1       -2 0.29182675E-02 0.14999086E+03</pdfrwt>
<totfact> 0.11065133E+04</totfact>
</mgrwt>
</event>
<event>
 6    1  0.1190675E-005  0.1601519E+03  0.7546771E-02  0.1201664E+00
          1   -1    0    0  501    0  0.00000000000E+00  0.00000000000E+00  0.22470554725E+03  0.22470554725E+03  0.00000000000E+00 0. -1.
         -1   -1    0    0    0  501 -0.00000000000E+00 -0.00000000000E+00 -0.13757182081E+03  0.13757182081E+03  0.00000000000E+00 0.  1.
          5    1    1    2  502    0 -0.35099395759E+02 -0.18301124028E+02  0.16276255501E+03  0.16757278429E+03  0.47000000000E+01 0. -1.
         -5    1    1    2    0  502 -0.46971181549E+02  0.29691834736E+02 -0.65467921990E+01  0.56150222032E+02  0.47000000000E+01 0.  1.
        -11    1    1    2    0    0 -0.14879038065E+02 -0.17311654560E+02 -0.15886920213E+02  0.27811389595E+02  0.00000000000E+00 0. -1.
         11    1    1    2    0    0  0.96949615372E+02  0.59209438519E+01 -0.53195116158E+02  0.11074297215E+03  0.00000000000E+00 0.  1.
<mgrwt>
<rscale>  0 0.14903505E+03</rscale>
<asrwt>0</asrwt>
<pdfrwt beam="1">  1        1 0.34570084E-01 0.16015186E+03</pdfrwt>
<pdfrwt beam="2">  1       -1 0.21164896E-01 0.16015186E+03</pdfrwt>
<totfact> 0.22766701E+03</totfact>
</mgrwt>
</event>
<event>
 6    1  0.1190675E-005  0.2844487E+03  0.7546771E-02  0.1093284E+00
         -1   -1    0    0    0  501 -0.00000000000E+00  0.00000000000E+00  0.34818741438E+02  0.34818741438E+02  0.00000000000E+00 0.  1.
          1   -1    0    0  501    0  0.00000000000E+00 -0.00000000000E+00 -0.58094459788E+03  0.58094459788E+03  0.00000000000E+00 0. -1.
          5    1    1    2  502    0 -0.48537707549E+02 -0.72924722973E+02 -0.41912874190E+03  0.42821129896E+03  0.47000000000E+01 0. -1.
         -5    1    1    2    0  502  0.94204433327E+00  0.23152010674E+02 -0.23955192595E+02  0.33657752421E+02  0.47000000000E+01 0.  1.
        -11    1    1    2    0    0  0.22473317124E+01  0.41121133154E+02 -0.99389519183E+02  0.10758380275E+03  0.00000000000E+00 0. -1.
         11    1    1    2    0    0  0.45348331504E+02  0.86515791453E+01 -0.36524027705E+01  0.46310485183E+02  0.00000000000E+00 0.  1.
<mgrwt>
<rscale>  0 0.28444866E+03</rscale>
<asrwt>0</asrwt>
<pdfrwt beam="2">  1        1 0.89376084E-01 0.28444866E+03</pdfrwt>
<pdfrwt beam="1">  1       -1 0.53567299E-02 0.28444866E+03</pdfrwt>
<totfact> 0.58218016E+03</totfact>
</mgrwt>
</event>
<event>
 6    1  0.1190675E-005  0.1258027E+03  0.7546771E-02  0.1249451E+00
         -1   -1    0    0    0  501 -0.00000000000E+00  0.00000000000E+00  0.25535044947E+02  0.25535044947E+02  0.00000000000E+00 0.  1.
          1   -1    0    0  501    0  0.00000000000E+00 -0.00000000000E+00 -0.57414312634E+03  0.57414312634E+03  0.00000000000E+00 0. -1.
          5    1    1    2  502    0 -0.39346164245E+02 -0.25978541760E+02 -0.32421746677E+03  0.32766150374E+03  0.47000000000E+01 0.  1.
         -5    1    1    2    0  502  0.43512289596E+02  0.39553949233E+02 -0.11542307863E+03  0.12962411553E+03  0.47000000000E+01 0.  1.
        -11    1    1    2    0    0 -0.18626244837E+02  0.28593949231E+02 -0.12894435847E+02  0.36480370135E+02  0.00000000000E+00 0.  1.
         11    1    1    2    0    0  0.14460119486E+02 -0.42169356704E+02 -0.96073100148E+02  0.10591218189E+03  0.00000000000E+00 0. -1.
<mgrwt>
<rscale>  0 0.11622875E+03</rscale>
<asrwt>0</asrwt>
<pdfrwt beam="2">  1        1 0.88329709E-01 0.12580274E+03</pdfrwt>
<pdfrwt beam="1">  1       -1 0.39284686E-02 0.12580274E+03</pdfrwt>
<totfact> 0.89891031E+03</totfact>
</mgrwt>
</event>
<event>
 6    1  0.1467122E-005  0.2143580E+03  0.7546771E-02  0.1141846E+00
          1   -1    0    0  501    0  0.00000000000E+00  0.00000000000E+00  0.46824858872E+03  0.46824858872E+03  0.00000000000E+00 0. -1.
         -1   -1    0    0    0  501 -0.00000000000E+00 -0.00000000000E+00 -0.10748600196E+03  0.10748600196E+03  0.00000000000E+00 0.  1.
          5    1    1    2  502    0 -0.88679785681E+02  0.11465199150E+03  0.14167588289E+03  0.20273956037E+03  0.47000000000E+01 0. -1.
         -5    1    1    2    0  502 -0.47614641383E+02 -0.62601413477E+01  0.16155262192E+03  0.16860510992E+03  0.47000000000E+01 0. -1.
        -11    1    1    2    0    0  0.78596181210E+02 -0.98540770630E+01  0.70003436973E+01  0.79520232315E+02  0.00000000000E+00 0.  1.
         11    1    1    2    0    0  0.57698245854E+02 -0.98537773090E+02  0.50533738248E+02  0.12486968808E+03  0.00000000000E+00 0. -1.
<mgrwt>
<rscale>  0 0.20964670E+03</rscale>
<asrwt>0</asrwt>
<pdfrwt beam="1">  1        1 0.72038243E-01 0.21435797E+03</pdfrwt>
<pdfrwt beam="2">  1       -1 0.16536308E-01 0.21435797E+03</pdfrwt>
<totfact> 0.13507553E+03</totfact>
</mgrwt>
</event>
<event>
 6    1  0.1190675E-005  0.3153888E+03  0.7546771E-02  0.1077791E+00
          2   -1    0    0  501    0  0.00000000000E+00  0.00000000000E+00  0.13224689791E+04  0.13224689791E+04  0.00000000000E+00 0. -1.
         -2   -1    0    0    0  501 -0.00000000000E+00 -0.00000000000E+00 -0.18803859942E+02  0.18803859942E+02  0.00000000000E+00 0.  1.
          5    1    1    2  502    0 -0.15648290135E+01 -0.12985493643E+03  0.75794289380E+03  0.76900212839E+03  0.47000000000E+01 0. -1.
         -5    1    1    2    0  502  0.16990080584E+02  0.26685698900E+02  0.14275175392E+03  0.14629061013E+03  0.47000000000E+01 0. -1.
        -11    1    1    2    0    0 -0.48680914998E+02  0.44666621360E+02  0.25511319601E+03  0.26352927982E+03  0.00000000000E+00 0.  1.
         11    1    1    2    0    0  0.33255663428E+02  0.58502616171E+02  0.14785727546E+03  0.16245082073E+03  0.00000000000E+00 0. -1.
<mgrwt>
<rscale>  0 0.31538879E+03</rscale>
<asrwt>0</asrwt>
<pdfrwt beam="1">  1        2 0.20345669E+00 0.31538879E+03</pdfrwt>
<pdfrwt beam="2">  1       -2 0.28929026E-02 0.31538879E+03</pdfrwt>
<totfact> 0.76434721E+03</totfact>
</mgrwt>
</event>
<event>
 6    1  0.1190675E-005  0.1294305E+03  0.7546771E-02  0.1242701E+00
          1   -1    0    0  501    0  0.00000000000E+00  0.00000000000E+00  0.31871465893E+03  0.31871465893E+03  0.00000000000E+00 0. -1.
         -1   -1    0    0    0  501 -0.00000000000E+00 -0.00000000000E+00 -0.45016983252E+02  0.45016983252E+02  0.00000000000E+00 0.  1.
          5    1    1    2  502    0  0.76246887194E+02 -0.67876001576E+01  0.98931017475E+02  0.12517625790E+03  0.47000000000E+01 0.  1.
         -5    1    1    2    0  502 -0.47203199535E+02 -0.10091885486E+02  0.11580490540E+03  0.12555020635E+03  0.47000000000E+01 0.  1.
        -11    1    1    2    0    0 -0.12883517590E+02  0.29794724681E+02 -0.15321529163E+02  0.35895123627E+02  0.00000000000E+00 0.  1.
         11    1    1    2    0    0 -0.16160170069E+02 -0.12915239037E+02  0.74283281960E+02  0.77110054304E+02  0.00000000000E+00 0. -1.
<mgrwt>
<rscale>  0 0.12024052E+03</rscale>
<asrwt>0</asrwt>
<pdfrwt beam="1">  1        1 0.49033023E-01 0.12943046E+03</pdfrwt>
<pdfrwt beam="2">  1       -1 0.69256899E-02 0.12943046E+03</pdfrwt>
<totfact> 0.82478864E+03</totfact>
</mgrwt>
</event>
<event>
 6    1  0.1190675E-005  0.1260622E+03  0.7546771E-02  0.1247838E+00
         -1   -1    0    0    0  501 -0.00000000000E+00  0.00000000000E+00  0.56769045071E+02  0.56769045071E+02  0.00000000000E+00 0.  1.
          1   -1    0    0  501    0  0.00000000000E+00 -0.00000000000E+00 -0.22347623414E+03  0.22347623414E+03  0.00000000000E+00 0. -1.
          5    1    1    2  502    0  0.60866805828E+02  0.35562553153E+02 -0.63050563721E+02  0.94693858428E+02  0.47000000000E+01 0. -1.
         -5    1    1    2    0  502 -0.49289611518E+02 -0.24026059789E+02 -0.61267682292E+02  0.82356154876E+02  0.47000000000E+01 0. -1.
        -11    1    1    2    0    0  0.77186126126E+01 -0.18349651526E+02  0.25465099169E+02  0.32322715967E+02  0.00000000000E+00 0.  1.
         11    1    1    2    0    0 -0.19295806923E+02  0.68131581620E+01 -0.67854042225E+02  0.70872549941E+02  0.00000000000E+00 0. -1.
<mgrwt>
<rscale>  0 0.11717139E+03</rscale>
<asrwt>0</asrwt>
<pdfrwt beam="2">  1        1 0.34380959E-01 0.12606221E+03</pdfrwt>
<pdfrwt beam="1">  1       -1 0.87336993E-02 0.12606221E+03</pdfrwt>
<totfact> 0.90013869E+03</totfact>
</mgrwt>
</event>
<event>
 6    1  0.1190675E-005  0.1478067E+03  0.7546771E-02  0.1213887E+00
         -2   -1    0    0    0  501 -0.00000000000E+00  0.00000000000E+00  0.18715937437E+02  0.18715937437E+02  0.00000000000E+00 0. -1.
          2   -1    0    0  501    0  0.00000000000E+00 -0.00000000000E+00 -0.10381906048E+04  0.10381906048E+04  0.00000000000E+00 0.  1.
          5    1    1    2  502    0 -0.27932257765E+02 -0.31257897790E+02 -0.59563842104E+03  0.59713020843E+03  0.47000000000E+01 0. -1.
         -5    1    1    2    0  502 -0.50949256415E+02  0.31623016287E+02 -0.12772086847E+03  0.14117560742E+03  0.47000000000E+01 0. -1.
        -11    1    1    2    0    0  0.36993841949E+02  0.21462749596E+02 -0.41335753457E+02  0.59479731642E+02  0.00000000000E+00 0. -1.
         11    1    1    2    0    0  0.41887672231E+02 -0.21827868093E+02 -0.25477962441E+03  0.25912099476E+03  0.00000000000E+00 0.  1.
<mgrwt>
<rscale>  0 0.13958615E+03</rscale>
<asrwt>0</asrwt>
<pdfrwt beam="2">  1        2 0.15972167E+00 0.14780668E+03</pdfrwt>
<pdfrwt beam="1">  1       -2 0.28793744E-02 0.14780668E+03</pdfrwt>
<totfact> 0.10851886E+04</totfact>
</mgrwt>
</event>
<event>
 6    1  0.1190675E-005  0.1488452E+03  0.7546771E-02  0.1211415E+00
          1   -1    0    0  501    0  0.00000000000E+00  0.00000000000E+00  0.39274811969E+02  0.39274811969E+02  0.00000000000E+00 0. -1.
         -1   -1    0    0    0  501 -0.00000000000E+00 -0.00000000000E+00 -0.77256162840E+03  0.77256162840E+03  0.00000000000E+00 0.  1.
          5    1    1    2  502    0  0.73978288764E+02  0.51029896519E+02 -0.84021619394E+02  0.12312010426E+03  0.47000000000E+01 0.  1.
         -5    1    1    2    0  502 -0.52112554061E+02  0.26764085752E+02 -0.49616767156E+02  0.76915201097E+02  0.47000000000E+01 0.  1.
        -11    1    1    2    0    0  0.27662273902E+02 -0.62109612039E+02 -0.38480848643E+03  0.39076895544E+03  0.00000000000E+00 0.  1.
         11    1    1    2    0    0 -0.49528008605E+02 -0.15684370232E+02 -0.21483994344E+03  0.22103217957E+03  0.00000000000E+00 0. -1.
<mgrwt>
<rscale>  0 0.14143227E+03</rscale>
<asrwt>0</asrwt>
<pdfrwt beam="1">  1        1 0.60422787E-02 0.14884524E+03</pdfrwt>
<pdfrwt beam="2">  1       -1 0.11885564E+00 0.14884524E+03</pdfrwt>
<totfact> 0.85589271E+02</totfact>
</mgrwt>
</event>
<event>
 6    1  0.1190675E-005  0.1701547E+03  0.7546771E-02  0.1184478E+00
         -2   -1    0    0    0  501 -0.00000000000E+00  0.00000000000E+00  0.14658426091E+03  0.14658426091E+03  0.00000000000E+00 0.  1.
          2   -1    0    0  501    0  0.00000000000E+00 -0.00000000000E+00 -0.20328007221E+03  0.20328007221E+03  0.00000000000E+00 0. -1.
          5    1    1    2  502    0  0.24887116336E+01  0.10678209215E+03 -0.11503980721E+03  0.15705048912E+03  0.47000000000E+01 0. -1.
         -5    1    1    2    0  502  0.37207102488E+02  0.16251310252E+01  0.14897219702E+02  0.40385971342E+02  0.47000000000E+01 0. -1.
        -11    1    1    2    0    0 -0.34815897924E+02 -0.33072369986E+02  0.58256009942E+02  0.75496298579E+02  0.00000000000E+00 0.  1.
         11    1    1    2    0    0 -0.48799161980E+01 -0.75334853186E+02 -0.14809233733E+02  0.76931574080E+02  0.00000000000E+00 0. -1.
<mgrwt>
<rscale>  0 0.16379443E+03</rscale>
<asrwt>0</asrwt>
<pdfrwt beam="2">  1        2 0.31273857E-01 0.17015469E+03</pdfrwt>
<pdfrwt beam="1">  1       -2 0.22551425E-01 0.17015469E+03</pdfrwt>
<totfact> 0.27923066E+03</totfact>
</mgrwt>
</event>
<event>
 6    1  0.1190675E-005  0.1358190E+03  0.7546771E-02  0.1231186E+00
         -3   -1    0    0    0  501 -0.00000000000E+00  0.00000000000E+00  0.58339180285E+02  0.58339180285E+02  0.00000000000E+00 0.  1.
          3   -1    0    0  501    0  0.00000000000E+00 -0.00000000000E+00 -0.25235349497E+03  0.25235349497E+03  0.00000000000E+00 0. -1.
          5    1    1    2  502    0  0.84561594964E+02  0.78122034342E+01 -0.53555072956E+02  0.10050835639E+03  0.47000000000E+01 0. -1.
         -5    1    1    2    0  502 -0.39278621333E+02  0.19948936970E+02 -0.71504227126E+02  0.84117267412E+02  0.47000000000E+01 0. -1.
        -11    1    1    2    0    0 -0.46624177051E+02  0.16496445692E+02 -0.70494459047E+01  0.49956393922E+02  0.00000000000E+00 0.  1.
         11    1    1    2    0    0  0.13412034198E+01 -0.44257586096E+02 -0.61905568695E+02  0.76110657526E+02  0.00000000000E+00 0. -1.
<mgrwt>
<rscale>  0 0.12751808E+03</rscale>
<asrwt>0</asrwt>
<pdfrwt beam="2">  1        3 0.38823616E-01 0.13581897E+03</pdfrwt>
<pdfrwt beam="1">  1       -3 0.89752583E-02 0.13581897E+03</pdfrwt>
<totfact> 0.13369409E+03</totfact>
</mgrwt>
</event>
<event>
 6    1  0.1190675E-005  0.1524234E+03  0.7546771E-02  0.1207374E+00
          2   -1    0    0  501    0  0.00000000000E+00  0.00000000000E+00  0.52407512768E+03  0.52407512768E+03  0.00000000000E+00 0. -1.
         -2   -1    0    0    0  501 -0.00000000000E+00 -0.00000000000E+00 -0.53823694037E+02  0.53823694037E+02  0.00000000000E+00 0.  1.
          5    1    1    2  502    0  0.21774071471E+02  0.19287440720E+02  0.31954099377E+02  0.43465733918E+02  0.47000000000E+01 0.  1.
         -5    1    1    2    0  502 -0.10895046843E+03 -0.16482676677E+02  0.38451893534E+03  0.40002348036E+03  0.47000000000E+01 0.  1.
        -11    1    1    2    0    0  0.72204600324E+02 -0.15826808431E+02 -0.32879635175E+01  0.73991910890E+02  0.00000000000E+00 0.  1.
         11    1    1    2    0    0  0.14971796630E+02  0.13022044388E+02  0.57066362445E+02  0.60417696556E+02  0.00000000000E+00 0. -1.
<mgrwt>
<rscale>  0 0.14451923E+03</rscale>
<asrwt>0</asrwt>
<pdfrwt beam="1">  1        2 0.80626939E-01 0.15242341E+03</pdfrwt>
<pdfrwt beam="2">  1       -2 0.82805687E-02 0.15242341E+03</pdfrwt>
<totfact> 0.51270761E+03</totfact>
</mgrwt>
</event>
<event>
 6    1  0.1190675E-005  0.1264479E+03  0.7546771E-02  0.1247336E+00
         -2   -1    0    0    0  501 -0.00000000000E+00  0.00000000000E+00  0.26520289200E+03  0.26520289200E+03  0.00000000000E+00 0.  1.
          2   -1    0    0  501    0  0.00000000000E+00 -0.00000000000E+00 -0.58585729207E+02  0.58585729207E+02  0.00000000000E+00 0. -1.
          5    1    1    2  502    0 -0.14580382484E+02 -0.59043429300E+02  0.98332338694E+01  0.61785893093E+02  0.47000000000E+01 0.  1.
         -5    1    1    2    0  502  0.33151330107E+02  0.54588155022E+02  0.30560918500E+02  0.70957290648E+02  0.47000000000E+01 0.  1.
        -11    1    1    2    0    0  0.28443855937E+02  0.24882064722E+02  0.41122407952E+02  0.55850000189E+02  0.00000000000E+00 0. -1.
         11    1    1    2    0    0 -0.47014803560E+02 -0.20426790444E+02  0.12510060247E+03  0.13519543727E+03  0.00000000000E+00 0.  1.
<mgrwt>
<rscale>  0 0.11746636E+03</rscale>
<asrwt>0</asrwt>
<pdfrwt beam="2">  1        2 0.90131892E-02 0.12644788E+03</pdfrwt>
<pdfrwt beam="1">  1       -2 0.40800444E-01 0.12644788E+03</pdfrwt>
<totfact> 0.39785530E+03</totfact>
</mgrwt>
</event>
<event>
 6    1  0.1190675E-005  0.1455705E+03  0.7546771E-02  0.1216131E+00
          4   -1    0    0  501    0  0.00000000000E+00  0.00000000000E+00  0.41817160890E+02  0.41817160890E+02  0.00000000000E+00 0. -1.
         -4   -1    0    0    0  501 -0.00000000000E+00 -0.00000000000E+00 -0.42923800026E+03  0.42923800026E+03  0.00000000000E+00 0.  1.
          5    1    1    2  502    0 -0.67587546244E+02  0.57954911954E+02 -0.18164569701E+03  0.20234647876E+03  0.47000000000E+01 0.  1.
         -5    1    1    2    0  502  0.87280286041E+01 -0.12117668734E+02  0.13062016882E+02  0.20389278160E+02  0.47000000000E+01 0.  1.
        -11    1    1    2    0    0  0.84237497285E+01  0.26341486405E+02 -0.36119713850E+02  0.45491396924E+02  0.00000000000E+00 0. -1.
         11    1    1    2    0    0  0.50435767911E+02 -0.72178729625E+02 -0.18271744540E+03  0.20282800731E+03  0.00000000000E+00 0.  1.
<mgrwt>
<rscale>  0 0.13793765E+03</rscale>
<asrwt>0</asrwt>
<pdfrwt beam="1">  1        4 0.64334096E-02 0.14557046E+03</pdfrwt>
<pdfrwt beam="2">  1       -4 0.66036613E-01 0.14557046E+03</pdfrwt>
<totfact> 0.57591558E+02</totfact>
</mgrwt>
</event>
<event>
 6    1  0.1190675E-005  0.1311514E+03  0.7546771E-02  0.1235407E+00
          1   -1    0    0  501    0  0.00000000000E+00  0.00000000000E+00  0.16620469273E+03  0.16620469273E+03  0.00000000000E+00 0. -1.
         -1   -1    0    0    0  501 -0.00000000000E+00 -0.00000000000E+00 -0.86692044488E+02  0.86692044488E+02  0.00000000000E+00 0.  1.
          5    1    1    2  502    0 -0.33065015774E+02  0.29554530450E+02  0.67281411335E+02  0.80719538214E+02  0.47000000000E+01 0.  1.
         -5    1    1    2    0  502  0.61461542853E+02 -0.18352303043E+01 -0.98596219592E+01  0.62451512915E+02  0.47000000000E+01 0.  1.
        -11    1    1    2    0    0 -0.20179718427E+02 -0.33620307285E+02 -0.34505738394E+02  0.52232098176E+02  0.00000000000E+00 0.  1.
         11    1    1    2    0    0 -0.82168086513E+01  0.59010071395E+01  0.56596597263E+02  0.57493587916E+02  0.00000000000E+00 0. -1.
<mgrwt>
<rscale>  0 0.12478446E+03</rscale>
<asrwt>0</asrwt>
<pdfrwt beam="1">  1        1 0.25569953E-01 0.13115139E+03</pdfrwt>
<pdfrwt beam="2">  1       -1 0.13337238E-01 0.13115139E+03</pdfrwt>
<totfact> 0.68214354E+03</totfact>
</mgrwt>
</event>
<event>
 6    1  0.1190675E-005  0.1444349E+03  0.7546771E-02  0.1218310E+00
         -4   -1    0    0    0  501 -0.00000000000E+00  0.00000000000E+00  0.84604099777E+02  0.84604099777E+02  0.00000000000E+00 0.  1.
          4   -1    0    0  501    0  0.00000000000E+00 -0.00000000000E+00 -0.20528526759E+03  0.20528526759E+03  0.00000000000E+00 0. -1.
          5    1    1    2  502    0 -0.27942040218E+02  0.18962152280E+02 -0.41310462975E+02  0.53562721942E+02  0.47000000000E+01 0.  1.
         -5    1    1    2    0  502  0.83628397223E+02 -0.65528613964E+02 -0.51886988841E+02  0.11833029063E+03  0.47000000000E+01 0.  1.
        -11    1    1    2    0    0 -0.30023295305E+02  0.40082922450E+02  0.27383552492E+02  0.57077998215E+02  0.00000000000E+00 0.  1.
         11    1    1    2    0    0 -0.25663061700E+02  0.64835392334E+01 -0.54867268493E+02  0.60918356582E+02  0.00000000000E+00 0. -1.
<mgrwt>
<rscale>  0 0.13636195E+03</rscale>
<asrwt>0</asrwt>
<pdfrwt beam="2">  1        4 0.31582349E-01 0.14443491E+03</pdfrwt>
<pdfrwt beam="1">  1       -4 0.13016015E-01 0.14443491E+03</pdfrwt>
<totfact> 0.77940181E+02</totfact>
</mgrwt>
</event>
<event>
 6    1  0.1190675E-005  0.2851672E+03  0.7546771E-02  0.1092900E+00
         -2   -1    0    0    0  501 -0.00000000000E+00  0.00000000000E+00  0.29184184303E+02  0.29184184303E+02  0.00000000000E+00 0. -1.
          2   -1    0    0  501    0  0.00000000000E+00 -0.00000000000E+00 -0.69661314673E+03  0.69661314673E+03  0.00000000000E+00 0.  1.
          5    1    1    2  502    0  0.22467474882E+01  0.17846975907E+02  0.40917065579E+01  0.19036661626E+02  0.47000000000E+01 0.  1.
         -5    1    1    2    0  502 -0.10004764813E+02  0.73593413625E+02 -0.38680635734E+03  0.39390015731E+03  0.47000000000E+01 0.  1.
        -11    1    1    2    0    0  0.39733665010E+02 -0.14551990203E+02 -0.61782565397E+02  0.74883976531E+02  0.00000000000E+00 0. -1.
         11    1    1    2    0    0 -0.31975647685E+02 -0.76888399329E+02 -0.22293174624E+03  0.23797653556E+03  0.00000000000E+00 0.  1.
<mgrwt>
<rscale>  0 0.28516722E+03</rscale>
<asrwt>0</asrwt>
<pdfrwt beam="2">  1        2 0.10717124E+00 0.28516722E+03</pdfrwt>
<pdfrwt beam="1">  1       -2 0.44898749E-02 0.28516722E+03</pdfrwt>
<totfact> 0.97111247E+03</totfact>
</mgrwt>
</event>
<event>
 6    1  0.1190675E-005  0.2484463E+03  0.7546771E-02  0.1114291E+00
         -1   -1    0    0    0  501 -0.00000000000E+00  0.00000000000E+00  0.70389906885E+03  0.70389906885E+03  0.00000000000E+00 0.  1.
          1   -1    0    0  501    0  0.00000000000E+00 -0.00000000000E+00 -0.21922726929E+02  0.21922726929E+02  0.00000000000E+00 0. -1.
          5    1    1    2  502    0 -0.24997796071E+02 -0.12020082803E+02  0.23547355118E+02  0.36687056737E+02  0.47000000000E+01 0. -1.
         -5    1    1    2    0  502  0.83524782126E+02  0.49652793371E+01  0.40550327314E+03  0.41407250302E+03  0.47000000000E+01 0. -1.
        -11    1    1    2    0    0 -0.31431644671E+02 -0.21507493414E+02  0.22132750883E+03  0.22458046826E+03  0.00000000000E+00 0.  1.
         11    1    1    2    0    0 -0.27095341384E+02  0.28562296880E+02  0.31598204833E+02  0.50481767763E+02  0.00000000000E+00 0. -1.
<mgrwt>
<rscale>  0 0.24844627E+03</rscale>
<asrwt>0</asrwt>
<pdfrwt beam="2">  1        1 0.33727278E-02 0.24844627E+03</pdfrwt>
<pdfrwt beam="1">  1       -1 0.10829215E+00 0.24844627E+03</pdfrwt>
<totfact> 0.24187141E+03</totfact>
</mgrwt>
</event>
<event>
 6    1  0.1190675E-005  0.1376841E+03  0.7546771E-02  0.1230400E+00
          2   -1    0    0  501    0  0.00000000000E+00  0.00000000000E+00  0.28959404669E+03  0.28959404669E+03  0.00000000000E+00 0. -1.
         -2   -1    0    0    0  501 -0.00000000000E+00 -0.00000000000E+00 -0.50320468668E+02  0.50320468668E+02  0.00000000000E+00 0.  1.
          5    1    1    2  502    0  0.63457620674E+02 -0.69191421584E+02  0.10802481681E+03  0.14319837111E+03  0.47000000000E+01 0.  1.
         -5    1    1    2    0  502 -0.39949922598E+02  0.16472727769E+02  0.42344854967E+02  0.60683801940E+02  0.47000000000E+01 0.  1.
        -11    1    1    2    0    0 -0.94415336548E+01  0.68204253380E+02  0.91969689260E+02  0.11488858289E+03  0.00000000000E+00 0. -1.
         11    1    1    2    0    0 -0.14066164422E+02 -0.15485559565E+02 -0.30657830143E+01  0.21143759412E+02  0.00000000000E+00 0.  1.
<mgrwt>
<rscale>  0 0.12803555E+03</rscale>
<asrwt>0</asrwt>
<pdfrwt beam="1">  1        2 0.44552929E-01 0.13768407E+03</pdfrwt>
<pdfrwt beam="2">  1       -2 0.77416107E-02 0.13768407E+03</pdfrwt>
<totfact> 0.10698019E+04</totfact>
</mgrwt>
</event>
<event>
 6    1  0.1190675E-005  0.1307007E+03  0.7546771E-02  0.1240187E+00
         -1   -1    0    0    0  501 -0.00000000000E+00  0.00000000000E+00  0.31475784898E+03  0.31475784898E+03  0.00000000000E+00 0.  1.
          1   -1    0    0  501    0  0.00000000000E+00 -0.00000000000E+00 -0.44347883929E+02  0.44347883929E+02  0.00000000000E+00 0. -1.
          5    1    1    2  502    0 -0.19685788568E+02  0.45249993370E+02  0.46462217075E+02  0.67940560691E+02  0.47000000000E+01 0.  1.
         -5    1    1    2    0  502  0.55360751824E+02 -0.58833001226E+02  0.63385821133E+02  0.10279098791E+03  0.47000000000E+01 0.  1.
        -11    1    1    2    0    0 -0.61497342751E+02  0.20242864055E+02  0.14145788793E+03  0.15557001886E+03  0.00000000000E+00 0.  1.
         11    1    1    2    0    0  0.25822379495E+02 -0.66598561990E+01  0.19104038907E+02  0.32804165436E+02  0.00000000000E+00 0. -1.
<mgrwt>
<rscale>  0 0.12178146E+03</rscale>
<asrwt>0</asrwt>
<pdfrwt beam="2">  1        1 0.68227516E-02 0.13070069E+03</pdfrwt>
<pdfrwt beam="1">  1       -1 0.48424283E-01 0.13070069E+03</pdfrwt>
<totfact> 0.44989432E+03</totfact>
</mgrwt>
</event>
<event>
 6    1  0.1190675E-005  0.1397264E+03  0.7546771E-02  0.1221175E+00
          2   -1    0    0  501    0  0.00000000000E+00  0.00000000000E+00  0.56144652067E+03  0.56144652067E+03  0.00000000000E+00 0. -1.
         -2   -1    0    0    0  501 -0.00000000000E+00 -0.00000000000E+00 -0.39418573286E+02  0.39418573286E+02  0.00000000000E+00 0.  1.
          5    1    1    2  502    0  0.28502423300E+02  0.47917751183E+02  0.40067315842E+03  0.40456095819E+03  0.47000000000E+01 0. -1.
         -5    1    1    2    0  502  0.27574389023E+02 -0.20632598774E+02  0.23305320923E+02  0.41848286052E+02  0.47000000000E+01 0. -1.
        -11    1    1    2    0    0  0.14236884666E+02  0.13541076593E+02  0.62862809488E+02  0.65861843711E+02  0.00000000000E+00 0. -1.
         11    1    1    2    0    0 -0.70313696989E+02 -0.40826229002E+02  0.35186658546E+02  0.88594005996E+02  0.00000000000E+00 0.  1.
<mgrwt>
<rscale>  0 0.13432556E+03</rscale>
<asrwt>0</asrwt>
<pdfrwt beam="1">  1        2 0.86376382E-01 0.13972638E+03</pdfrwt>
<pdfrwt beam="2">  1       -2 0.60643963E-02 0.13972638E+03</pdfrwt>
<totfact> 0.76213371E+03</totfact>
</mgrwt>
</event>
<event>
 6    1  0.1190675E-005  0.1948087E+03  0.7546771E-02  0.1158403E+00
         -2   -1    0    0    0  501 -0.00000000000E+00  0.00000000000E+00  0.87286712252E+02  0.87286712252E+02  0.00000000000E+00 0.  1.
          2   -1    0    0  501    0  0.00000000000E+00 -0.00000000000E+00 -0.48825821119E+03  0.48825821119E+03  0.00000000000E+00 0. -1.
          5    1    1    2  502    0 -0.14640428469E+02 -0.12774533309E+02 -0.88554486233E+02  0.90782806076E+02  0.47000000000E+01 0. -1.
         -5    1    1    2    0  502  0.16382715362E+03  0.21033671268E+02 -0.24562645946E+03  0.29603411827E+03  0.47000000000E+01 0. -1.
        -11    1    1    2    0    0 -0.14109145599E+03 -0.29190117536E+02 -0.32423646706E+02  0.14768261502E+03  0.00000000000E+00 0.  1.
         11    1    1    2    0    0 -0.80952691692E+01  0.20930979577E+02 -0.34366906544E+02  0.41045384081E+02  0.00000000000E+00 0. -1.
<mgrwt>
<rscale>  0 0.19006458E+03</rscale>
<asrwt>0</asrwt>
<pdfrwt beam="2">  1        2 0.75116648E-01 0.19480870E+03</pdfrwt>
<pdfrwt beam="1">  1       -2 0.13428725E-01 0.19480870E+03</pdfrwt>
<totfact> 0.25982875E+03</totfact>
</mgrwt>
</event>
<event>
 6    1  0.1190675E-005  0.3587562E+03  0.7546771E-02  0.1059077E+00
          1   -1    0    0  501    0  0.00000000000E+00  0.00000000000E+00  0.21327620918E+03  0.21327620918E+03  0.00000000000E+00 0. -1.
         -1   -1    0    0    0  501 -0.00000000000E+00 -0.00000000000E+00 -0.15086771460E+03  0.15086771460E+03  0.00000000000E+00 0.  1.
          5    1    1    2  502    0 -0.54302660945E+02 -0.83097772119E+02  0.40320589625E+02  0.10724671867E+03  0.47000000000E+01 0.  1.
         -5    1    1    2    0  502 -0.83840170502E+01  0.15090844093E+02  0.10197320238E+03  0.10353090998E+03  0.47000000000E+01 0.  1.
        -11    1    1    2    0    0  0.32967007976E+02  0.60034692117E+02 -0.96547669056E+02  0.11837415374E+03  0.00000000000E+00 0.  1.
         11    1    1    2    0    0  0.29719670019E+02  0.79722359089E+01  0.16662371626E+02  0.34992141398E+02  0.00000000000E+00 0. -1.
<mgrwt>
<rscale>  0 0.35875615E+03</rscale>
<asrwt>0</asrwt>
<pdfrwt beam="1">  1        1 0.32811724E-01 0.35875615E+03</pdfrwt>
<pdfrwt beam="2">  1       -1 0.23210418E-01 0.35875615E+03</pdfrwt>
<totfact> 0.21385462E+03</totfact>
</mgrwt>
</event>
<event>
 6    1  0.1190675E-005  0.1384022E+03  0.7546771E-02  0.1227119E+00
         -2   -1    0    0    0  501 -0.00000000000E+00  0.00000000000E+00  0.94718984062E+02  0.94718984062E+02  0.00000000000E+00 0.  1.
          2   -1    0    0  501    0  0.00000000000E+00 -0.00000000000E+00 -0.19980993776E+03  0.19980993776E+03  0.00000000000E+00 0. -1.
          5    1    1    2  502    0  0.90822063510E+02  0.18911297580E+02 -0.66543030514E+02  0.11426438337E+03  0.47000000000E+01 0. -1.
         -5    1    1    2    0  502 -0.32139171238E+02 -0.28229829642E+02 -0.55744703292E+02  0.70423089641E+02  0.47000000000E+01 0. -1.
        -11    1    1    2    0    0 -0.47720968262E+02  0.13583751652E+02  0.52735070806E+02  0.72407159962E+02  0.00000000000E+00 0.  1.
         11    1    1    2    0    0 -0.10961924010E+02 -0.42652195890E+01 -0.35538290702E+02  0.37434288856E+02  0.00000000000E+00 0. -1.
<mgrwt>
<rscale>  0 0.13022718E+03</rscale>
<asrwt>0</asrwt>
<pdfrwt beam="2">  1        2 0.30739990E-01 0.13840221E+03</pdfrwt>
<pdfrwt beam="1">  1       -2 0.14572151E-01 0.13840221E+03</pdfrwt>
<totfact> 0.58512186E+03</totfact>
</mgrwt>
</event>
<event>
 6    1  0.1190675E-005  0.4510073E+03  0.7546771E-02  0.1027422E+00
          1   -1    0    0  501    0  0.00000000000E+00  0.00000000000E+00  0.30527163489E+03  0.30527163489E+03  0.00000000000E+00 0. -1.
         -1   -1    0    0    0  501 -0.00000000000E+00 -0.00000000000E+00 -0.16657914394E+03  0.16657914394E+03  0.00000000000E+00 0.  1.
          5    1    1    2  502    0  0.40893580803E+02 -0.15268851933E+03  0.20386183031E+03  0.25800737343E+03  0.47000000000E+01 0. -1.
         -5    1    1    2    0  502 -0.14908245067E+02  0.19064303820E+02  0.16856611871E+02  0.29865344714E+02  0.47000000000E+01 0. -1.
        -11    1    1    2    0    0 -0.56609340782E+02  0.11101445996E+03 -0.74464641234E+02  0.14516821477E+03  0.00000000000E+00 0.  1.
         11    1    1    2    0    0  0.30624005047E+02  0.22609755548E+02 -0.75613100037E+01  0.38809845916E+02  0.00000000000E+00 0. -1.
<mgrwt>
<rscale>  0 0.45100726E+03</rscale>
<asrwt>0</asrwt>
<pdfrwt beam="1">  1        1 0.46964867E-01 0.45100726E+03</pdfrwt>
<pdfrwt beam="2">  1       -1 0.25627561E-01 0.45100726E+03</pdfrwt>
<totfact> 0.11494263E+03</totfact>
</mgrwt>
</event>
<event>
 6    1  0.1190675E-005  0.1306433E+03  0.7546771E-02  0.1266280E+00
          2   -1    0    0  501    0  0.00000000000E+00  0.00000000000E+00  0.42876761414E+03  0.42876761414E+03  0.00000000000E+00 0.  1.
         -2   -1    0    0    0  501 -0.00000000000E+00 -0.00000000000E+00 -0.35547522516E+02  0.35547522516E+02  0.00000000000E+00 0. -1.
          5    1    1    2  502    0  0.65251895733E+02  0.76403960960E+01  0.10051090931E+03  0.12016954039E+03  0.47000000000E+01 0.  1.
         -5    1    1    2    0  502 -0.28555495553E+02 -0.17345479422E+02  0.28253617993E+03  0.28454360817E+03  0.47000000000E+01 0.  1.
        -11    1    1    2    0    0 -0.19366218064E+02 -0.17007736287E+02  0.10309693832E+02  0.27759742121E+02  0.00000000000E+00 0. -1.
         11    1    1    2    0    0 -0.17330182115E+02  0.26712819613E+02 -0.13669143981E+00  0.31842245970E+02  0.00000000000E+00 0.  1.
<mgrwt>
<rscale>  0 0.10697331E+03</rscale>
<asrwt>0</asrwt>
<pdfrwt beam="1">  1        2 0.65964245E-01 0.13064325E+03</pdfrwt>
<pdfrwt beam="2">  1       -2 0.54688499E-02 0.13064325E+03</pdfrwt>
<totfact> 0.11919669E+04</totfact>
</mgrwt>
</event>
<event>
 6    1  0.1190675E-005  0.1401858E+03  0.7546771E-02  0.1224104E+00
         -1   -1    0    0    0  501 -0.00000000000E+00  0.00000000000E+00  0.40532173699E+02  0.40532173699E+02  0.00000000000E+00 0.  1.
          1   -1    0    0  501    0  0.00000000000E+00 -0.00000000000E+00 -0.39114004157E+03  0.39114004157E+03  0.00000000000E+00 0. -1.
          5    1    1    2  502    0 -0.93511862741E+02  0.60819505077E+01 -0.11634166561E+03  0.14946214154E+03  0.47000000000E+01 0.  1.
         -5    1    1    2    0  502  0.38334093082E+02  0.25288399140E+02 -0.65869274086E+02  0.80435421874E+02  0.47000000000E+01 0.  1.
        -11    1    1    2    0    0 -0.11930593586E+02 -0.41218238907E+02 -0.56876797835E+02  0.71247823924E+02  0.00000000000E+00 0.  1.
         11    1    1    2    0    0  0.67108363246E+02  0.98478892588E+01 -0.11152013034E+03  0.13052682794E+03  0.00000000000E+00 0. -1.
<mgrwt>
<rscale>  0 0.13228498E+03</rscale>
<asrwt>0</asrwt>
<pdfrwt beam="2">  1        1 0.60175391E-01 0.14018582E+03</pdfrwt>
<pdfrwt beam="1">  1       -1 0.62357190E-02 0.14018582E+03</pdfrwt>
<totfact> 0.75132231E+03</totfact>
</mgrwt>
</event>
<event>
 6    1  0.1190675E-005  0.4515231E+03  0.7546771E-02  0.1027269E+00
          1   -1    0    0  501    0  0.00000000000E+00  0.00000000000E+00  0.59498701373E+02  0.59498701373E+02  0.00000000000E+00 0. -1.
         -1   -1    0    0    0  501 -0.00000000000E+00 -0.00000000000E+00 -0.85662843508E+03  0.85662843508E+03  0.00000000000E+00 0.  1.
          5    1    1    2  502    0  0.28698353952E+01 -0.46134825677E+02 -0.22569708677E+02  0.51654039970E+02  0.47000000000E+01 0.  1.
         -5    1    1    2    0  502  0.63754368144E+02  0.38581021238E+02 -0.18753767182E+03  0.20185535170E+03  0.47000000000E+01 0.  1.
        -11    1    1    2    0    0  0.91070798243E+02 -0.76720456907E+02 -0.31830746480E+03  0.33985226342E+03  0.00000000000E+00 0.  1.
         11    1    1    2    0    0 -0.15769500178E+03  0.84274261345E+02 -0.26871488841E+03  0.32276548138E+03  0.00000000000E+00 0. -1.
<mgrwt>
<rscale>  0 0.45152311E+03</rscale>
<asrwt>0</asrwt>
<pdfrwt beam="1">  1        1 0.91536460E-02 0.45152311E+03</pdfrwt>
<pdfrwt beam="2">  1       -1 0.13178900E+00 0.45152311E+03</pdfrwt>
<totfact> 0.37942194E+02</totfact>
</mgrwt>
</event>
<event>
 6    1  0.1190675E-005  0.1658116E+03  0.7546771E-02  0.1189021E+00
         -1   -1    0    0    0  501 -0.00000000000E+00  0.00000000000E+00  0.37129131989E+03  0.37129131989E+03  0.00000000000E+00 0.  1.
          1   -1    0    0  501    0  0.00000000000E+00 -0.00000000000E+00 -0.65099164613E+02  0.65099164613E+02  0.00000000000E+00 0. -1.
          5    1    1    2  502    0 -0.81818810253E+02  0.39597941573E+01  0.67282842828E+02  0.10610875845E+03  0.47000000000E+01 0.  1.
         -5    1    1    2    0  502  0.10279173526E+02  0.78194761993E+02  0.12406257190E+03  0.14708396907E+03  0.47000000000E+01 0.  1.
        -11    1    1    2    0    0  0.36973376404E+02 -0.47582364461E+02  0.20855922107E+01  0.60294789703E+02  0.00000000000E+00 0. -1.
         11    1    1    2    0    0  0.34566260323E+02 -0.34572191689E+02  0.11276114834E+03  0.12290296728E+03  0.00000000000E+00 0.  1.
<mgrwt>
<rscale>  0 0.15971270E+03</rscale>
<asrwt>0</asrwt>
<pdfrwt beam="2">  1        1 0.10015256E-01 0.16581161E+03</pdfrwt>
<pdfrwt beam="1">  1       -1 0.57121740E-01 0.16581161E+03</pdfrwt>
<totfact> 0.20055042E+03</totfact>
</mgrwt>
</event>
<event>
 6    1  0.1190675E-005  0.1262128E+03  0.7546771E-02  0.1251509E+00
          2   -1    0    0  501    0  0.00000000000E+00  0.00000000000E+00  0.13854558804E+04  0.13854558804E+04  0.00000000000E+00 0. -1.
         -2   -1    0    0    0  501 -0.00000000000E+00 -0.00000000000E+00 -0.13069435025E+02  0.13069435025E+02  0.00000000000E+00 0.  1.
          5    1    1    2  502    0  0.25574648976E+02 -0.57543917181E+02  0.46411832020E+03  0.46839435332E+03  0.47000000000E+01 0. -1.
         -5    1    1    2    0  502 -0.81494025005E+01  0.58387811147E+02  0.72286701137E+03  0.72528225911E+03  0.47000000000E+01 0. -1.
        -11    1    1    2    0    0  0.10355349420E+02  0.32279871976E+02  0.36568797415E+02  0.49864820674E+02  0.00000000000E+00 0.  1.
         11    1    1    2    0    0 -0.27780595896E+02 -0.33123765942E+02  0.14883231641E+03  0.15498388235E+03  0.00000000000E+00 0. -1.
<mgrwt>
<rscale>  0 0.11504127E+03</rscale>
<asrwt>0</asrwt>
<pdfrwt beam="1">  1        2 0.21314694E+00 0.12621283E+03</pdfrwt>
<pdfrwt beam="2">  1       -2 0.20106834E-02 0.12621283E+03</pdfrwt>
<totfact> 0.11673235E+04</totfact>
</mgrwt>
</event>
<event>
 6    1  0.1190675E-005  0.1309185E+03  0.7546771E-02  0.1239466E+00
         -2   -1    0    0    0  501 -0.00000000000E+00  0.00000000000E+00  0.14776908058E+03  0.14776908058E+03  0.00000000000E+00 0.  1.
          2   -1    0    0  501    0  0.00000000000E+00 -0.00000000000E+00 -0.10534671695E+03  0.10534671695E+03  0.00000000000E+00 0. -1.
          5    1    1    2  502    0  0.67340101237E+02  0.19181256750E+02  0.19346883280E+02  0.72794242477E+02  0.47000000000E+01 0. -1.
         -5    1    1    2    0  502 -0.40273345798E+02  0.88137982150E+01 -0.43900758263E+02  0.60406886998E+02  0.47000000000E+01 0. -1.
        -11    1    1    2    0    0 -0.14510165499E+02  0.30839964082E+02  0.43674534563E+02  0.55399578127E+02  0.00000000000E+00 0. -1.
         11    1    1    2    0    0 -0.12556589940E+02 -0.58835019047E+02  0.23301704053E+02  0.64515089932E+02  0.00000000000E+00 0.  1.
<mgrwt>
<rscale>  0 0.12222797E+03</rscale>
<asrwt>0</asrwt>
<pdfrwt beam="2">  1        2 0.16207187E-01 0.13091848E+03</pdfrwt>
<pdfrwt beam="1">  1       -2 0.22733705E-01 0.13091848E+03</pdfrwt>
<totfact> 0.56661541E+03</totfact>
</mgrwt>
</event>
<event>
 6    1  0.1190675E-005  0.1344320E+03  0.7546771E-02  0.1233354E+00
         -2   -1    0    0    0  501 -0.00000000000E+00  0.00000000000E+00  0.21714811009E+03  0.21714811009E+03  0.00000000000E+00 0.  1.
          2   -1    0    0  501    0  0.00000000000E+00 -0.00000000000E+00 -0.18421196965E+03  0.18421196965E+03  0.00000000000E+00 0. -1.
          5    1    1    2  502    0  0.29876238918E+02  0.62343031565E+01 -0.12989332657E+03  0.13351337939E+03  0.47000000000E+01 0.  1.
         -5    1    1    2    0  502 -0.26290809582E+02 -0.55501864849E+02 -0.13528377081E+02  0.63061641721E+02  0.47000000000E+01 0.  1.
        -11    1    1    2    0    0  0.23345302245E+02  0.41445855715E+02  0.31072226905E+02  0.56817650231E+02  0.00000000000E+00 0. -1.
         11    1    1    2    0    0 -0.26930731581E+02  0.78217059767E+01  0.14528561719E+03  0.14796740841E+03  0.00000000000E+00 0.  1.
<mgrwt>
<rscale>  0 0.12610424E+03</rscale>
<asrwt>0</asrwt>
<pdfrwt beam="2">  1        2 0.28340303E-01 0.13443197E+03</pdfrwt>
<pdfrwt beam="1">  1       -2 0.33407402E-01 0.13443197E+03</pdfrwt>
<totfact> 0.15315455E+03</totfact>
</mgrwt>
</event>
<event>
 6    1  0.1190675E-005  0.1842734E+03  0.7546771E-02  0.1168882E+00
         -4   -1    0    0    0  501 -0.00000000000E+00  0.00000000000E+00  0.14233664055E+03  0.14233664055E+03  0.00000000000E+00 0.  1.
          4   -1    0    0  501    0  0.00000000000E+00 -0.00000000000E+00 -0.22408575144E+03  0.22408575144E+03  0.00000000000E+00 0. -1.
          5    1    1    2  502    0 -0.11123274002E+02 -0.52877207585E+02  0.26741622841E+02  0.60472561536E+02  0.47000000000E+01 0. -1.
         -5    1    1    2    0  502 -0.67330453165E+02 -0.57463426667E+02 -0.11127229743E+03  0.14226401338E+03  0.47000000000E+01 0. -1.
        -11    1    1    2    0    0  0.72160452038E+02  0.79584298275E+02 -0.36446679755E+02  0.11344228416E+03  0.00000000000E+00 0.  1.
         11    1    1    2    0    0  0.62932751280E+01  0.30756335977E+02  0.39228243453E+02  0.50243532907E+02  0.00000000000E+00 0. -1.
<mgrwt>
<rscale>  0 0.17888917E+03</rscale>
<asrwt>0</asrwt>
<pdfrwt beam="2">  1        4 0.34474731E-01 0.18427339E+03</pdfrwt>
<pdfrwt beam="1">  1       -4 0.21897945E-01 0.18427339E+03</pdfrwt>
<totfact> 0.27334041E+02</totfact>
</mgrwt>
</event>
<event>
 6    1  0.1190675E-005  0.1506309E+03  0.7546771E-02  0.1208716E+00
          2   -1    0    0  501    0  0.00000000000E+00  0.00000000000E+00  0.21452040969E+03  0.21452040969E+03  0.00000000000E+00 0. -1.
         -2   -1    0    0    0  501 -0.00000000000E+00 -0.00000000000E+00 -0.87905908965E+02  0.87905908965E+02  0.00000000000E+00 0.  1.
          5    1    1    2  502    0 -0.64561707003E+02  0.19265731434E+02  0.32830643820E+02  0.75095429904E+02  0.47000000000E+01 0. -1.
         -5    1    1    2    0  502  0.52778023946E+02  0.63955983531E+02  0.36234170039E+02  0.90613976403E+02  0.47000000000E+01 0. -1.
        -11    1    1    2    0    0 -0.16403917907E+02  0.14748391541E+02  0.95537965568E+01  0.24039105732E+02  0.00000000000E+00 0. -1.
         11    1    1    2    0    0  0.28187600964E+02 -0.97970106507E+02  0.47995890305E+02  0.11267780661E+03  0.00000000000E+00 0.  1.
<mgrwt>
<rscale>  0 0.14348399E+03</rscale>
<asrwt>0</asrwt>
<pdfrwt beam="1">  1        2 0.33003140E-01 0.15063087E+03</pdfrwt>
<pdfrwt beam="2">  1       -2 0.13523986E-01 0.15063087E+03</pdfrwt>
<totfact> 0.61507944E+03</totfact>
</mgrwt>
</event>
<event>
 6    1  0.1190675E-005  0.1658656E+03  0.7546771E-02  0.1189996E+00
          2   -1    0    0  501    0  0.00000000000E+00  0.00000000000E+00  0.64448185555E+03  0.64448185555E+03  0.00000000000E+00 0. -1.
         -2   -1    0    0    0  501 -0.00000000000E+00 -0.00000000000E+00 -0.54509071245E+02  0.54509071245E+02  0.00000000000E+00 0.  1.
          5    1    1    2  502    0  0.41719513046E+02  0.10239798265E+02  0.31759190775E+03  0.32051845673E+03  0.47000000000E+01 0.  1.
         -5    1    1    2    0  502 -0.18604942922E+02  0.96288993926E+02  0.19641357531E+03  0.21958619451E+03  0.47000000000E+01 0.  1.
        -11    1    1    2    0    0  0.17751365157E+02  0.66472847130E+01  0.13808998905E+02  0.23451776260E+02  0.00000000000E+00 0. -1.
         11    1    1    2    0    0 -0.40865935281E+02 -0.11317607690E+03  0.62158302343E+02  0.13543449930E+03  0.00000000000E+00 0.  1.
<mgrwt>
<rscale>  0 0.15885417E+03</rscale>
<asrwt>0</asrwt>
<pdfrwt beam="1">  1        2 0.99151050E-01 0.16586560E+03</pdfrwt>
<pdfrwt beam="2">  1       -2 0.83860114E-02 0.16586560E+03</pdfrwt>
<totfact> 0.39878966E+03</totfact>
</mgrwt>
</event>
<event>
 6    1  0.1190675E-005  0.1755047E+03  0.7546771E-02  0.1178519E+00
          2   -1    0    0  501    0  0.00000000000E+00  0.00000000000E+00  0.14023742553E+03  0.14023742553E+03  0.00000000000E+00 0. -1.
         -2   -1    0    0    0  501 -0.00000000000E+00 -0.00000000000E+00 -0.20581839829E+03  0.20581839829E+03  0.00000000000E+00 0.  1.
          5    1    1    2  502    0 -0.41298965830E+02  0.21654041624E+02  0.24823646063E+02  0.53035888803E+02  0.47000000000E+01 0. -1.
         -5    1    1    2    0  502 -0.79282278041E+02 -0.46928920227E+02 -0.10543900750E+03  0.14009809944E+03  0.47000000000E+01 0. -1.
        -11    1    1    2    0    0  0.38999844881E+02 -0.25045834305E+02 -0.20518602116E+02  0.50688211150E+02  0.00000000000E+00 0.  1.
         11    1    1    2    0    0  0.81581398990E+02  0.50320712909E+02  0.35552990796E+02  0.10223362443E+03  0.00000000000E+00 0. -1.
<mgrwt>
<rscale>  0 0.16935837E+03</rscale>
<asrwt>0</asrwt>
<pdfrwt beam="1">  1        2 0.21574989E-01 0.17550470E+03</pdfrwt>
<pdfrwt beam="2">  1       -2 0.31664369E-01 0.17550470E+03</pdfrwt>
<totfact> 0.23089279E+03</totfact>
</mgrwt>
</event>
<event>
 6    1  0.1190675E-005  0.5886377E+03  0.7546771E-02  0.9929264E-01
         -1   -1    0    0    0  501 -0.00000000000E+00  0.00000000000E+00  0.16001036673E+03  0.16001036673E+03  0.00000000000E+00 0.  1.
          1   -1    0    0  501    0  0.00000000000E+00 -0.00000000000E+00 -0.54136231740E+03  0.54136231740E+03  0.00000000000E+00 0. -1.
          5    1    1    2  502    0  0.16133849706E+03  0.38704196967E+02 -0.44220553314E+03  0.47233033889E+03  0.47000000000E+01 0. -1.
         -5    1    1    2    0  502  0.94840640437E+00 -0.24058115716E+02 -0.14675374536E+02  0.28585818587E+02  0.47000000000E+01 0. -1.
        -11    1    1    2    0    0 -0.29254400600E+02 -0.25392239544E+02  0.52142727855E+02  0.64957292521E+02  0.00000000000E+00 0.  1.
         11    1    1    2    0    0 -0.13303250286E+03  0.10746158293E+02  0.23386229160E+02  0.13549923413E+03  0.00000000000E+00 0. -1.
<mgrwt>
<rscale>  0 0.58863769E+03</rscale>
<asrwt>0</asrwt>
<pdfrwt beam="2">  1        1 0.83286509E-01 0.58863769E+03</pdfrwt>
<pdfrwt beam="1">  1       -1 0.24616980E-01 0.58863769E+03</pdfrwt>
<totfact> 0.57588593E+02</totfact>
</mgrwt>
</event>
<event>
 6    1  0.1190675E-005  0.1411615E+03  0.7546771E-02  0.1222408E+00
          1   -1    0    0  501    0  0.00000000000E+00  0.00000000000E+00  0.30878002264E+03  0.30878002264E+03  0.00000000000E+00 0. -1.
         -1   -1    0    0    0  501 -0.00000000000E+00 -0.00000000000E+00 -0.84805534572E+02  0.84805534572E+02  0.00000000000E+00 0.  1.
          5    1    1    2  502    0 -0.18487921819E+02 -0.55818389017E+02  0.25004560018E+03  0.25690929912E+03  0.47000000000E+01 0. -1.
         -5    1    1    2    0  502  0.17714977180E+02 -0.97850942438E+01 -0.88301508893E+01  0.22574987278E+02  0.47000000000E+01 0. -1.
        -11    1    1    2    0    0 -0.44918565104E+01  0.85194916113E+02 -0.29652043450E+02  0.90319400946E+02  0.00000000000E+00 0.  1.
         11    1    1    2    0    0  0.52648011492E+01 -0.19591432852E+02  0.12411082229E+02  0.23781869869E+02  0.00000000000E+00 0. -1.
<mgrwt>
<rscale>  0 0.13346150E+03</rscale>
<asrwt>0</asrwt>
<pdfrwt beam="1">  1        1 0.47504618E-01 0.14116152E+03</pdfrwt>
<pdfrwt beam="2">  1       -1 0.13047005E-01 0.14116152E+03</pdfrwt>
<totfact> 0.32865760E+03</totfact>
</mgrwt>
</event>
<event>
 6    1  0.1190675E-005  0.1516423E+03  0.7546771E-02  0.1207135E+00
         -1   -1    0    0    0  501 -0.00000000000E+00  0.00000000000E+00  0.52399483276E+02  0.52399483276E+02  0.00000000000E+00 0.  1.
          1   -1    0    0  501    0  0.00000000000E+00 -0.00000000000E+00 -0.44387355912E+03  0.44387355912E+03  0.00000000000E+00 0. -1.
          5    1    1    2  502    0 -0.90473930372E+02 -0.18670590208E+02 -0.20120408304E+03  0.22144817915E+03  0.47000000000E+01 0.  1.
         -5    1    1    2    0  502  0.35168801863E+02 -0.47010018153E+02 -0.11248566546E+03  0.12697204954E+03  0.47000000000E+01 0.  1.
        -11    1    1    2    0    0  0.19984557747E+02  0.67993517123E+02 -0.86077400532E+02  0.11149807084E+03  0.00000000000E+00 0.  1.
         11    1    1    2    0    0  0.35320570761E+02 -0.23129087625E+01  0.82930731867E+01  0.36354742864E+02  0.00000000000E+00 0. -1.
<mgrwt>
<rscale>  0 0.14470449E+03</rscale>
<asrwt>0</asrwt>
<pdfrwt beam="2">  1        1 0.68288237E-01 0.15164233E+03</pdfrwt>
<pdfrwt beam="1">  1       -1 0.80614593E-02 0.15164233E+03</pdfrwt>
<totfact> 0.43686245E+03</totfact>
</mgrwt>
</event>
<event>
 6    1  0.1190675E-005  0.1596998E+03  0.7546771E-02  0.1196157E+00
          2   -1    0    0  501    0  0.00000000000E+00  0.00000000000E+00  0.29174599694E+03  0.29174599694E+03  0.00000000000E+00 0.  1.
         -2   -1    0    0    0  501 -0.00000000000E+00 -0.00000000000E+00 -0.88256767203E+02  0.88256767203E+02  0.00000000000E+00 0. -1.
          5    1    1    2  502    0  0.37173016801E+01 -0.11267000417E+03  0.18694217734E+03  0.21835250363E+03  0.47000000000E+01 0.  1.
         -5    1    1    2    0  502 -0.17040449230E+02  0.14180458322E+02 -0.55417160297E+01  0.23329443301E+02  0.47000000000E+01 0.  1.
        -11    1    1    2    0    0 -0.12434381159E+02  0.10664731121E+03  0.27341846628E+02  0.11079638713E+03  0.00000000000E+00 0. -1.
         11    1    1    2    0    0  0.25757528709E+02 -0.81577653652E+01 -0.52530782042E+01  0.27524430087E+02  0.00000000000E+00 0.  1.
<mgrwt>
<rscale>  0 0.15356699E+03</rscale>
<asrwt>0</asrwt>
<pdfrwt beam="1">  1        2 0.44883999E-01 0.15969983E+03</pdfrwt>
<pdfrwt beam="2">  1       -2 0.13577964E-01 0.15969983E+03</pdfrwt>
<totfact> 0.44124284E+03</totfact>
</mgrwt>
</event>
<event>
 6    1  0.1190675E-005  0.4062753E+03  0.7546771E-02  0.1041628E+00
         -1   -1    0    0    0  501 -0.00000000000E+00  0.00000000000E+00  0.30362078857E+03  0.30362078857E+03  0.00000000000E+00 0.  1.
          1   -1    0    0  501    0  0.00000000000E+00 -0.00000000000E+00 -0.13590933986E+03  0.13590933986E+03  0.00000000000E+00 0. -1.
          5    1    1    2  502    0 -0.11090670870E+02  0.28316149934E+02 -0.14781520372E+02  0.34137818793E+02  0.47000000000E+01 0. -1.
         -5    1    1    2    0  502 -0.63885802121E+02 -0.13222818673E+03 -0.21257098576E+02  0.14845754719E+03  0.47000000000E+01 0. -1.
        -11    1    1    2    0    0 -0.72167678343E+01  0.65331712874E+02  0.86299362129E+02  0.10847992602E+03  0.00000000000E+00 0.  1.
         11    1    1    2    0    0  0.82193240825E+02  0.38580323918E+02  0.11745070553E+03  0.14845483643E+03  0.00000000000E+00 0. -1.
<mgrwt>
<rscale>  0 0.40627528E+03</rscale>
<asrwt>0</asrwt>
<pdfrwt beam="2">  1        1 0.20909129E-01 0.40627528E+03</pdfrwt>
<pdfrwt beam="1">  1       -1 0.46710890E-01 0.40627528E+03</pdfrwt>
<totfact> 0.11282002E+03</totfact>
</mgrwt>
</event>
<event>
 6    1  0.1190675E-005  0.1271442E+03  0.7546771E-02  0.1246458E+00
         -1   -1    0    0    0  501 -0.00000000000E+00  0.00000000000E+00  0.84744521633E+02  0.84744521633E+02  0.00000000000E+00 0.  1.
          1   -1    0    0  501    0  0.00000000000E+00 -0.00000000000E+00 -0.19142804788E+03  0.19142804788E+03  0.00000000000E+00 0. -1.
          5    1    1    2  502    0 -0.64454284961E+02  0.10376205928E+02 -0.88511715682E+02  0.11008376044E+03  0.47000000000E+01 0. -1.
         -5    1    1    2    0  502  0.50186627719E+02 -0.28735617049E+02 -0.38509911363E+02  0.69638614017E+02  0.47000000000E+01 0. -1.
        -11    1    1    2    0    0  0.45934556152E+02  0.28849351308E+02 -0.51239665309E+01  0.54484158732E+02  0.00000000000E+00 0. -1.
         11    1    1    2    0    0 -0.31666898911E+02 -0.10489940187E+02  0.25462067332E+02  0.41966036322E+02  0.00000000000E+00 0.  1.
<mgrwt>
<rscale>  0 0.11798558E+03</rscale>
<asrwt>0</asrwt>
<pdfrwt beam="2">  1        1 0.29450469E-01 0.12714416E+03</pdfrwt>
<pdfrwt beam="1">  1       -1 0.13037619E-01 0.12714416E+03</pdfrwt>
<totfact> 0.59117305E+03</totfact>
</mgrwt>
</event>
<event>
 6    1  0.1190675E-005  0.1340257E+03  0.7546771E-02  0.1234464E+00
         -2   -1    0    0    0  501 -0.00000000000E+00  0.00000000000E+00  0.16403632480E+02  0.16403632480E+02  0.00000000000E+00 0. -1.
          2   -1    0    0  501    0  0.00000000000E+00 -0.00000000000E+00 -0.13394214819E+04  0.13394214819E+04  0.00000000000E+00 0.  1.
          5    1    1    2  502    0 -0.84042485238E+02 -0.33064435059E+02 -0.81720910090E+03  0.82219778690E+03  0.47000000000E+01 0. -1.
         -5    1    1    2    0  502  0.41153160204E+02  0.10796545131E+02 -0.30602439978E+03  0.30900351331E+03  0.47000000000E+01 0. -1.
        -11    1    1    2    0    0 -0.80130661941E+01  0.30129005799E+02 -0.14923505625E+03  0.15245677497E+03  0.00000000000E+00 0.  1.
         11    1    1    2    0    0  0.50902391228E+02 -0.78611158707E+01 -0.50549292509E+02  0.72167039212E+02  0.00000000000E+00 0. -1.
<mgrwt>
<rscale>  0 0.12538823E+03</rscale>
<asrwt>0</asrwt>
<pdfrwt beam="2">  1        2 0.20606471E+00 0.13402569E+03</pdfrwt>
<pdfrwt beam="1">  1       -2 0.25236374E-02 0.13402569E+03</pdfrwt>
<totfact> 0.88979408E+03</totfact>
</mgrwt>
</event>
<event>
 6    1  0.1190675E-005  0.1268223E+03  0.7546771E-02  0.1250012E+00
         -2   -1    0    0    0  501 -0.00000000000E+00  0.00000000000E+00  0.21082471384E+03  0.21082471384E+03  0.00000000000E+00 0.  1.
          2   -1    0    0  501    0  0.00000000000E+00 -0.00000000000E+00 -0.56704938769E+02  0.56704938769E+02  0.00000000000E+00 0. -1.
          5    1    1    2  502    0  0.45697658021E+02  0.23761443566E+02  0.13461861264E+02  0.53443370568E+02  0.47000000000E+01 0. -1.
         -5    1    1    2    0  502 -0.60603564566E+02 -0.39116369393E+02  0.53830599726E+02  0.90126055386E+02  0.47000000000E+01 0. -1.
        -11    1    1    2    0    0  0.16624941375E+02 -0.15137408005E+02  0.90452505323E+02  0.93205072373E+02  0.00000000000E+00 0.  1.
         11    1    1    2    0    0 -0.17190348310E+01  0.30492333833E+02 -0.36251912433E+01  0.30755154281E+02  0.00000000000E+00 0. -1.
<mgrwt>
<rscale>  0 0.11590370E+03</rscale>
<asrwt>0</asrwt>
<pdfrwt beam="2">  1        2 0.87238369E-02 0.12682234E+03</pdfrwt>
<pdfrwt beam="1">  1       -2 0.32434571E-01 0.12682234E+03</pdfrwt>
<totfact> 0.63453908E+03</totfact>
</mgrwt>
</event>
<event>
 6    1  0.1190675E-005  0.1507596E+03  0.7546771E-02  0.1209246E+00
         -2   -1    0    0    0  501 -0.00000000000E+00  0.00000000000E+00  0.26500856129E+02  0.26500856129E+02  0.00000000000E+00 0.  1.
          2   -1    0    0  501    0  0.00000000000E+00 -0.00000000000E+00 -0.82535225219E+03  0.82535225219E+03  0.00000000000E+00 0. -1.
          5    1    1    2  502    0 -0.53268674884E+02 -0.88370241465E+02 -0.36152313991E+03  0.37598925781E+03  0.47000000000E+01 0.  1.
         -5    1    1    2    0  502  0.44540387674E+02  0.45389494774E+01 -0.23633266142E+03  0.24058193002E+03  0.47000000000E+01 0.  1.
        -11    1    1    2    0    0  0.46181946127E+02  0.48776681170E+02 -0.84152472649E+02  0.10767346668E+03  0.00000000000E+00 0. -1.
         11    1    1    2    0    0 -0.37453658918E+02  0.35054610818E+02 -0.11684312208E+03  0.12760845381E+03  0.00000000000E+00 0.  1.
<mgrwt>
<rscale>  0 0.14307847E+03</rscale>
<asrwt>0</asrwt>
<pdfrwt beam="2">  1        2 0.12697727E+00 0.15075964E+03</pdfrwt>
<pdfrwt beam="1">  1       -2 0.40770548E-02 0.15075964E+03</pdfrwt>
<totfact> 0.88109125E+03</totfact>
</mgrwt>
</event>
<event>
 6    1  0.1190675E-005  0.2208575E+03  0.7546771E-02  0.1143783E+00
          4   -1    0    0  501    0  0.00000000000E+00  0.00000000000E+00  0.83508055671E+03  0.83508055671E+03  0.00000000000E+00 0. -1.
         -4   -1    0    0    0  501 -0.00000000000E+00 -0.00000000000E+00 -0.50095943949E+02  0.50095943949E+02  0.00000000000E+00 0.  1.
          5    1    1    2  502    0 -0.49847040397E+02 -0.43099324068E+02  0.15207391706E+03  0.16580363512E+03  0.47000000000E+01 0. -1.
         -5    1    1    2    0  502 -0.68022209038E+02  0.12903829855E+03  0.16062568597E+03  0.21702673662E+03  0.47000000000E+01 0.  1.
        -11    1    1    2    0    0  0.35865885938E+02 -0.66808741122E+02  0.13632763435E+03  0.15599677417E+03  0.00000000000E+00 0.  1.
         11    1    1    2    0    0  0.82003363498E+02 -0.19130233363E+02  0.33595737538E+03  0.34634935474E+03  0.00000000000E+00 0. -1.
<mgrwt>
<rscale>  0 0.20722390E+03</rscale>
<asrwt>0</asrwt>
<pdfrwt beam="1">  1        4 0.12847392E+00 0.22085754E+03</pdfrwt>
<pdfrwt beam="2">  1       -4 0.77070689E-02 0.22085754E+03</pdfrwt>
<totfact> 0.99247308E+01</totfact>
</mgrwt>
</event>
<event>
 6    1  0.1190675E-005  0.1198201E+03  0.7546771E-02  0.1258913E+00
          1   -1    0    0  501    0  0.00000000000E+00  0.00000000000E+00  0.59851078788E+03  0.59851078788E+03  0.00000000000E+00 0. -1.
         -1   -1    0    0    0  501 -0.00000000000E+00 -0.00000000000E+00 -0.33464127837E+02  0.33464127837E+02  0.00000000000E+00 0.  1.
          5    1    1    2  502    0  0.62404733475E+02 -0.21747445913E+02  0.31281010230E+03  0.31974920213E+03  0.47000000000E+01 0. -1.
         -5    1    1    2    0  502 -0.52446906268E+02 -0.63851398351E+01  0.20632198138E+03  0.21303121365E+03  0.47000000000E+01 0.  1.
        -11    1    1    2    0    0  0.31369343763E+02 -0.62862812010E+01  0.27974302034E+02  0.42498407426E+02  0.00000000000E+00 0. -1.
         11    1    1    2    0    0 -0.41327170971E+02  0.34418866949E+02  0.17940274323E+02  0.56696092504E+02  0.00000000000E+00 0.  1.
<mgrwt>
<rscale>  0 0.11089947E+03</rscale>
<asrwt>0</asrwt>
<pdfrwt beam="1">  1        1 0.92078575E-01 0.11982008E+03</pdfrwt>
<pdfrwt beam="2">  1       -1 0.51483278E-02 0.11982008E+03</pdfrwt>
<totfact> 0.56942075E+03</totfact>
</mgrwt>
</event>
<event>
 6    1  0.1190675E-005  0.1400075E+03  0.7546771E-02  0.1224161E+00
         -2   -1    0    0    0  501 -0.00000000000E+00  0.00000000000E+00  0.72814376769E+02  0.72814376769E+02  0.00000000000E+00 0.  1.
          2   -1    0    0  501    0  0.00000000000E+00 -0.00000000000E+00 -0.42406183914E+03  0.42406183914E+03  0.00000000000E+00 0. -1.
          5    1    1    2  502    0 -0.10059217968E+01  0.46290082372E+02 -0.20351407780E+03  0.20876746267E+03  0.47000000000E+01 0.  1.
         -5    1    1    2    0  502 -0.61166829550E+02 -0.56864835039E+02 -0.15531064527E+03  0.17640429994E+03  0.47000000000E+01 0.  1.
        -11    1    1    2    0    0  0.31888079068E+02 -0.26008404526E+02  0.37415780154E+02  0.55616789706E+02  0.00000000000E+00 0.  1.
         11    1    1    2    0    0  0.30284672278E+02  0.36583157194E+02 -0.29838519455E+02  0.56087663604E+02  0.00000000000E+00 0. -1.
<mgrwt>
<rscale>  0 0.13224546E+03</rscale>
<asrwt>0</asrwt>
<pdfrwt beam="2">  1        2 0.65240282E-01 0.14000752E+03</pdfrwt>
<pdfrwt beam="1">  1       -2 0.11202212E-01 0.14000752E+03</pdfrwt>
<totfact> 0.40043832E+03</totfact>
</mgrwt>
</event>
<event>
 6    1  0.1190675E-005  0.1838391E+03  0.7546771E-02  0.1175079E+00
         -2   -1    0    0    0  501 -0.00000000000E+00  0.00000000000E+00  0.13111577311E+02  0.13111577311E+02  0.00000000000E+00 0.  1.
          2   -1    0    0  501    0  0.00000000000E+00 -0.00000000000E+00 -0.20858803266E+04  0.20858803266E+04  0.00000000000E+00 0. -1.
          5    1    1    2  502    0 -0.97529578672E+02  0.62621908362E+02 -0.85112550933E+03  0.85899373964E+03  0.47000000000E+01 0. -1.
         -5    1    1    2    0  502 -0.13248244882E+02 -0.66293968008E+02 -0.46879672616E+03  0.47366957539E+03  0.47000000000E+01 0.  1.
        -11    1    1    2    0    0  0.35655222998E+02 -0.42046921852E+02 -0.28093065766E+03  0.28628879296E+03  0.00000000000E+00 0. -1.
         11    1    1    2    0    0  0.75122600557E+02  0.45718981498E+02 -0.47191585610E+03  0.48003979587E+03  0.00000000000E+00 0.  1.
<mgrwt>
<rscale>  0 0.17268274E+03</rscale>
<asrwt>0</asrwt>
<pdfrwt beam="2">  1        2 0.32090465E+00 0.18383907E+03</pdfrwt>
<pdfrwt beam="1">  1       -2 0.20171658E-02 0.18383907E+03</pdfrwt>
<totfact> 0.50977187E+03</totfact>
</mgrwt>
</event>
<event>
 6    1  0.1190675E-005  0.1129483E+03  0.7546771E-02  0.1265986E+00
          2   -1    0    0  501    0  0.00000000000E+00  0.00000000000E+00  0.67962569782E+02  0.67962569782E+02  0.00000000000E+00 0. -1.
         -2   -1    0    0    0  501 -0.00000000000E+00 -0.00000000000E+00 -0.15788202598E+03  0.15788202598E+03  0.00000000000E+00 0.  1.
          5    1    1    2  502    0  0.11135883700E+02 -0.74592935623E+01  0.41066994896E+02  0.43453849496E+02  0.47000000000E+01 0. -1.
         -5    1    1    2    0  502 -0.12844686412E+02 -0.60858794289E+01 -0.72159348883E+02  0.73695898995E+02  0.47000000000E+01 0.  1.
        -11    1    1    2    0    0  0.45804692993E+02  0.11598101185E+02 -0.29579846381E+02  0.55745431770E+02  0.00000000000E+00 0. -1.
         11    1    1    2    0    0 -0.44095890280E+02  0.19470718062E+01 -0.29247255824E+02  0.52949415497E+02  0.00000000000E+00 0.  1.
<mgrwt>
<rscale>  0 0.10712636E+03</rscale>
<asrwt>0</asrwt>
<pdfrwt beam="1">  1        2 0.10455780E-01 0.11294835E+03</pdfrwt>
<pdfrwt beam="2">  1       -2 0.24289542E-01 0.11294835E+03</pdfrwt>
<totfact> 0.84050636E+03</totfact>
</mgrwt>
</event>
<event>
 6    1  0.1190675E-005  0.1150844E+03  0.7546771E-02  0.1262301E+00
         -2   -1    0    0    0  501 -0.00000000000E+00  0.00000000000E+00  0.22075172091E+02  0.22075172091E+02  0.00000000000E+00 0.  1.
          2   -1    0    0  501    0  0.00000000000E+00 -0.00000000000E+00 -0.51644743223E+03  0.51644743223E+03  0.00000000000E+00 0. -1.
          5    1    1    2  502    0  0.87379017853E+01  0.46613355054E+02 -0.31270924074E+03  0.31631995675E+03  0.47000000000E+01 0. -1.
         -5    1    1    2    0  502  0.10685170560E+00 -0.29485742166E+02 -0.20538819605E+02  0.36240219634E+02  0.47000000000E+01 0.  1.
        -11    1    1    2    0    0 -0.45355557602E+02 -0.14322407723E+02 -0.50217512137E+02  0.69166874251E+02  0.00000000000E+00 0.  1.
         11    1    1    2    0    0  0.36510804111E+02 -0.28052051647E+01 -0.11090668766E+03  0.11679555369E+03  0.00000000000E+00 0. -1.
<mgrwt>
<rscale>  0 0.10907043E+03</rscale>
<asrwt>0</asrwt>
<pdfrwt beam="2">  1        2 0.79453446E-01 0.11508435E+03</pdfrwt>
<pdfrwt beam="1">  1       -2 0.33961805E-02 0.11508435E+03</pdfrwt>
<totfact> 0.19579363E+04</totfact>
</mgrwt>
</event>
<event>
 6    1  0.1190675E-005  0.3814850E+03  0.7546771E-02  0.1050386E+00
         -2   -1    0    0    0  501 -0.00000000000E+00  0.00000000000E+00  0.16679891167E+02  0.16679891167E+02  0.00000000000E+00 0. -1.
          2   -1    0    0  501    0  0.00000000000E+00 -0.00000000000E+00 -0.21812311319E+04  0.21812311319E+04  0.00000000000E+00 0.  1.
          5    1    1    2  502    0 -0.17796027060E+02  0.36476056203E+01 -0.55307787336E+02  0.58404151786E+02  0.47000000000E+01 0. -1.
         -5    1    1    2    0  502  0.12759139072E+03 -0.81990970057E+02 -0.15459396533E+04  0.15533684636E+04  0.47000000000E+01 0. -1.
        -11    1    1    2    0    0 -0.46627666795E+02  0.79686021905E+02 -0.24943196731E+03  0.26597050159E+03  0.00000000000E+00 0.  1.
         11    1    1    2    0    0 -0.63167696864E+02 -0.13426574687E+01 -0.31387183276E+03  0.32016790604E+03  0.00000000000E+00 0. -1.
<mgrwt>
<rscale>  0 0.38148498E+03</rscale>
<asrwt>0</asrwt>
<pdfrwt beam="2">  1        2 0.33557407E+00 0.38148498E+03</pdfrwt>
<pdfrwt beam="1">  1       -2 0.25661367E-02 0.38148498E+03</pdfrwt>
<totfact> 0.31690539E+03</totfact>
</mgrwt>
</event>
<event>
 6    1  0.1190675E-005  0.1383979E+03  0.7546771E-02  0.1227756E+00
         -1   -1    0    0    0  501 -0.00000000000E+00  0.00000000000E+00  0.27019085380E+03  0.27019085380E+03  0.00000000000E+00 0.  1.
          1   -1    0    0  501    0  0.00000000000E+00 -0.00000000000E+00 -0.58162796975E+02  0.58162796975E+02  0.00000000000E+00 0. -1.
          5    1    1    2  502    0  0.46627543310E+02 -0.24447550873E+02  0.16456825596E+02  0.55359982365E+02  0.47000000000E+01 0.  1.
         -5    1    1    2    0  502 -0.77674764352E+02 -0.26200868876E+02  0.69371276027E+02  0.10749101583E+03  0.47000000000E+01 0.  1.
        -11    1    1    2    0    0  0.42820992449E+02 -0.41249860198E+01  0.24802208851E+02  0.49656847140E+02  0.00000000000E+00 0. -1.
         11    1    1    2    0    0 -0.11773771407E+02  0.54773405768E+02  0.10139774635E+03  0.11584580544E+03  0.00000000000E+00 0.  1.
<mgrwt>
<rscale>  0 0.12979785E+03</rscale>
<asrwt>0</asrwt>
<pdfrwt beam="2">  1        1 0.89481227E-02 0.13839792E+03</pdfrwt>
<pdfrwt beam="1">  1       -1 0.41567823E-01 0.13839792E+03</pdfrwt>
<totfact> 0.41227449E+03</totfact>
</mgrwt>
</event>
<event>
 6    1  0.1190675E-005  0.1332879E+03  0.7546771E-02  0.1234772E+00
         -2   -1    0    0    0  501 -0.00000000000E+00  0.00000000000E+00  0.24333277945E+02  0.24333277945E+02  0.00000000000E+00 0.  1.
          2   -1    0    0  501    0  0.00000000000E+00 -0.00000000000E+00 -0.96132118123E+03  0.96132118123E+03  0.00000000000E+00 0. -1.
          5    1    1    2  502    0  0.40106391097E+02  0.40545874165E+01 -0.15193932012E+03  0.15726604619E+03  0.47000000000E+01 0.  1.
         -5    1    1    2    0  502 -0.85308558718E+02  0.58146940783E+01 -0.66170890131E+03  0.66722718840E+03  0.47000000000E+01 0.  1.
        -11    1    1    2    0    0  0.59081295248E+02 -0.12958713620E+02 -0.13151657746E+03  0.14475889560E+03  0.00000000000E+00 0. -1.
         11    1    1    2    0    0 -0.13879127628E+02  0.30894321248E+01  0.81768956106E+01  0.16402328993E+02  0.00000000000E+00 0.  1.
<mgrwt>
<rscale>  0 0.12519037E+03</rscale>
<asrwt>0</asrwt>
<pdfrwt beam="2">  1        2 0.14789558E+00 0.13328791E+03</pdfrwt>
<pdfrwt beam="1">  1       -2 0.37435809E-02 0.13328791E+03</pdfrwt>
<totfact> 0.81456305E+03</totfact>
</mgrwt>
</event>
<event>
 6    1  0.1190675E-005  0.1269788E+03  0.7546771E-02  0.1247765E+00
          1   -1    0    0  501    0  0.00000000000E+00  0.00000000000E+00  0.88248290615E+03  0.88248290615E+03  0.00000000000E+00 0. -1.
         -1   -1    0    0    0  501 -0.00000000000E+00 -0.00000000000E+00 -0.13855651521E+02  0.13855651521E+02  0.00000000000E+00 0.  1.
          5    1    1    2  502    0 -0.56943965945E+02 -0.42279856392E+02  0.33347307262E+03  0.34096419412E+03  0.47000000000E+01 0.  1.
         -5    1    1    2    0  502  0.34623123397E+02  0.43277101181E+02  0.22757741727E+03  0.23427598898E+03  0.47000000000E+01 0.  1.
        -11    1    1    2    0    0  0.12302516360E+02 -0.44820467754E+02  0.13564393130E+03  0.14338585124E+03  0.00000000000E+00 0.  1.
         11    1    1    2    0    0  0.10018326189E+02  0.43823222966E+02  0.17193283345E+03  0.17771252333E+03  0.00000000000E+00 0. -1.
<mgrwt>
<rscale>  0 0.11721421E+03</rscale>
<asrwt>0</asrwt>
<pdfrwt beam="1">  1        1 0.13576656E+00 0.12697880E+03</pdfrwt>
<pdfrwt beam="2">  1       -1 0.21316394E-02 0.12697880E+03</pdfrwt>
<totfact> 0.11762568E+04</totfact>
</mgrwt>
</event>
<event>
 6    1  0.1190675E-005  0.1376305E+03  0.7546771E-02  0.1228277E+00
          1   -1    0    0  501    0  0.00000000000E+00  0.00000000000E+00  0.91694494416E+03  0.91694494416E+03  0.00000000000E+00 0. -1.
         -1   -1    0    0    0  501 -0.00000000000E+00 -0.00000000000E+00 -0.19354707087E+02  0.19354707087E+02  0.00000000000E+00 0.  1.
          5    1    1    2  502    0 -0.66111677423E+02  0.71586916847E+01  0.36041965714E+03  0.36653297261E+03  0.47000000000E+01 0.  1.
         -5    1    1    2    0  502  0.50902424495E+02  0.48406702078E+02  0.31623252801E+03  0.32397433139E+03  0.47000000000E+01 0.  1.
        -11    1    1    2    0    0  0.39851984983E+02  0.35732412406E+00  0.13197828889E+03  0.13786434320E+03  0.00000000000E+00 0. -1.
         11    1    1    2    0    0 -0.24642732055E+02 -0.55922717887E+02  0.88959763030E+02  0.10792800405E+03  0.00000000000E+00 0.  1.
<mgrwt>
<rscale>  0 0.12944774E+03</rscale>
<asrwt>0</asrwt>
<pdfrwt beam="1">  1        1 0.14106842E+00 0.13763051E+03</pdfrwt>
<pdfrwt beam="2">  1       -1 0.29776480E-02 0.13763051E+03</pdfrwt>
<totfact> 0.68508440E+03</totfact>
</mgrwt>
</event>
<event>
 6    1  0.1190675E-005  0.1624994E+03  0.7546771E-02  0.1198552E+00
          2   -1    0    0  501    0  0.00000000000E+00  0.00000000000E+00  0.13013097512E+04  0.13013097512E+04  0.00000000000E+00 0. -1.
         -2   -1    0    0    0  501 -0.00000000000E+00 -0.00000000000E+00 -0.15668377172E+02  0.15668377172E+02  0.00000000000E+00 0.  1.
          5    1    1    2  502    0  0.37906918849E+02 -0.16545144304E+02  0.64714711435E+03  0.64848450553E+03  0.47000000000E+01 0. -1.
         -5    1    1    2    0  502 -0.11204478266E+02 -0.57600694215E+02  0.99235215051E+02  0.11538239993E+03  0.47000000000E+01 0.  1.
        -11    1    1    2    0    0 -0.49392894986E+02  0.74449725084E+02  0.49866021288E+03  0.50660085625E+03  0.00000000000E+00 0.  1.
         11    1    1    2    0    0  0.22690454403E+02 -0.30388656584E+00  0.40598831712E+02  0.46510366634E+02  0.00000000000E+00 0. -1.
<mgrwt>
<rscale>  0 0.15157406E+03</rscale>
<asrwt>0</asrwt>
<pdfrwt beam="1">  1        2 0.20020141E+00 0.16249944E+03</pdfrwt>
<pdfrwt beam="2">  1       -2 0.24105206E-02 0.16249944E+03</pdfrwt>
<totfact> 0.10060551E+04</totfact>
</mgrwt>
</event>
<event>
 6    1  0.1190675E-005  0.1385649E+03  0.7546771E-02  0.1226867E+00
          3   -1    0    0  501    0  0.00000000000E+00  0.00000000000E+00  0.18270972735E+03  0.18270972735E+03  0.00000000000E+00 0. -1.
         -3   -1    0    0    0  501 -0.00000000000E+00 -0.00000000000E+00 -0.14462573962E+03  0.14462573962E+03  0.00000000000E+00 0.  1.
          5    1    1    2  502    0  0.24228159540E+02  0.85196072229E+02  0.95194530362E+02  0.13011327007E+03  0.47000000000E+01 0. -1.
         -5    1    1    2    0  502  0.20487653812E+02 -0.43371619626E+02  0.31011033994E+02  0.57311565823E+02  0.47000000000E+01 0.  1.
        -11    1    1    2    0    0 -0.45550973551E+01  0.27309411382E+02 -0.14635234868E+02  0.31316815955E+02  0.00000000000E+00 0. -1.
         11    1    1    2    0    0 -0.40160715996E+02 -0.69133863984E+02 -0.73486341755E+02  0.10859381512E+03  0.00000000000E+00 0.  1.
<mgrwt>
<rscale>  0 0.13039746E+03</rscale>
<asrwt>0</asrwt>
<pdfrwt beam="1">  1        3 0.28109189E-01 0.13856488E+03</pdfrwt>
<pdfrwt beam="2">  1       -3 0.22250114E-01 0.13856488E+03</pdfrwt>
<totfact> 0.52266235E+02</totfact>
</mgrwt>
</event>
<event>
 6    1  0.1190675E-005  0.2351166E+03  0.7546771E-02  0.1123089E+00
          1   -1    0    0  501    0  0.00000000000E+00  0.00000000000E+00  0.78183920323E+03  0.78183920323E+03  0.00000000000E+00 0. -1.
         -1   -1    0    0    0  501 -0.00000000000E+00 -0.00000000000E+00 -0.17676206999E+02  0.17676206999E+02  0.00000000000E+00 0.  1.
          5    1    1    2  502    0  0.71429677472E+02 -0.19370442755E+02  0.43474589580E+03  0.44102550583E+03  0.47000000000E+01 0.  1.
         -5    1    1    2    0  502 -0.29997962824E+02  0.11729013722E+02  0.39298661871E+02  0.51028642558E+02  0.47000000000E+01 0.  1.
        -11    1    1    2    0    0 -0.36291965897E+02 -0.32846432624E+02  0.22757376976E+03  0.23277846895E+03  0.00000000000E+00 0. -1.
         11    1    1    2    0    0 -0.51397487510E+01  0.40487861657E+02  0.62544668803E+02  0.74682792894E+02  0.00000000000E+00 0.  1.
<mgrwt>
<rscale>  0 0.23511658E+03</rscale>
<asrwt>0</asrwt>
<pdfrwt beam="1">  1        1 0.12028293E+00 0.23511658E+03</pdfrwt>
<pdfrwt beam="2">  1       -1 0.27194171E-02 0.23511658E+03</pdfrwt>
<totfact> 0.10312580E+04</totfact>
</mgrwt>
</event>
<event>
 6    1  0.1190675E-005  0.1275506E+03  0.7546771E-02  0.1246866E+00
         -1   -1    0    0    0  501 -0.00000000000E+00  0.00000000000E+00  0.43846036633E+02  0.43846036633E+02  0.00000000000E+00 0.  1.
          1   -1    0    0  501    0  0.00000000000E+00 -0.00000000000E+00 -0.39746331982E+03  0.39746331982E+03  0.00000000000E+00 0. -1.
          5    1    1    2  502    0 -0.53962846168E+02 -0.20988596581E+02 -0.63581928203E+02  0.86123524934E+02  0.47000000000E+01 0.  1.
         -5    1    1    2    0  502  0.29534728924E+02  0.14242970385E+02 -0.25344319850E+03  0.25559872317E+03  0.47000000000E+01 0.  1.
        -11    1    1    2    0    0 -0.92898549422E+01 -0.28573127828E+02 -0.40696037973E+02  0.50585497382E+02  0.00000000000E+00 0. -1.
         11    1    1    2    0    0  0.33717972185E+02  0.35318754024E+02  0.41038814921E+01  0.49001610968E+02  0.00000000000E+00 0.  1.
<mgrwt>
<rscale>  0 0.11774407E+03</rscale>
<asrwt>0</asrwt>
<pdfrwt beam="2">  1        1 0.61148204E-01 0.12755063E+03</pdfrwt>
<pdfrwt beam="1">  1       -1 0.67455440E-02 0.12755063E+03</pdfrwt>
<totfact> 0.65082247E+03</totfact>
</mgrwt>
</event>
<event>
 6    1  0.1190675E-005  0.2081292E+03  0.7546771E-02  0.1171757E+00
          1   -1    0    0  501    0  0.00000000000E+00  0.00000000000E+00  0.78874064117E+02  0.78874064117E+02  0.00000000000E+00 0. -1.
         -1   -1    0    0    0  501 -0.00000000000E+00 -0.00000000000E+00 -0.32114227310E+03  0.32114227310E+03  0.00000000000E+00 0.  1.
          5    1    1    2  502    0 -0.84443314778E+02  0.89653387072E+02 -0.35986876573E+02  0.12839606111E+03  0.47000000000E+01 0. -1.
         -5    1    1    2    0  502  0.58314463007E+02 -0.37648015218E+02 -0.94165950145E+02  0.11707803301E+03  0.47000000000E+01 0.  1.
        -11    1    1    2    0    0  0.43328517082E+02 -0.98576945637E+01 -0.96801806625E+02  0.10651349351E+03  0.00000000000E+00 0.  1.
         11    1    1    2    0    0 -0.17199665311E+02 -0.42147677291E+02 -0.15313575641E+02  0.48028749585E+02  0.00000000000E+00 0. -1.
<mgrwt>
<rscale>  0 0.17597426E+03</rscale>
<asrwt>0</asrwt>
<pdfrwt beam="1">  1        1 0.12134471E-01 0.20812922E+03</pdfrwt>
<pdfrwt beam="2">  1       -1 0.49406505E-01 0.20812922E+03</pdfrwt>
<totfact> 0.20525438E+03</totfact>
</mgrwt>
</event>
<event>
 6    1  0.1190675E-005  0.2701337E+03  0.7546771E-02  0.1103315E+00
         -4   -1    0    0    0  501 -0.00000000000E+00  0.00000000000E+00  0.54494016557E+03  0.54494016557E+03  0.00000000000E+00 0.  1.
          4   -1    0    0  501    0  0.00000000000E+00 -0.00000000000E+00 -0.13460896706E+03  0.13460896706E+03  0.00000000000E+00 0. -1.
          5    1    1    2  502    0 -0.31163286239E+02 -0.19296599583E+03  0.45792875878E+02  0.20081360371E+03  0.47000000000E+01 0. -1.
         -5    1    1    2    0  502 -0.37885280485E+02 -0.36337585828E+02  0.83318760005E+02  0.98589149454E+02  0.47000000000E+01 0. -1.
        -11    1    1    2    0    0  0.68715272437E+02  0.10609107650E+03  0.18382286452E+03  0.22308731631E+03  0.00000000000E+00 0.  1.
         11    1    1    2    0    0  0.33329428716E+00  0.12321250516E+03  0.97396698112E+02  0.15705906315E+03  0.00000000000E+00 0. -1.
<mgrwt>
<rscale>  0 0.26647318E+03</rscale>
<asrwt>0</asrwt>
<pdfrwt beam="2">  1        4 0.20709072E-01 0.27013366E+03</pdfrwt>
<pdfrwt beam="1">  1       -4 0.83836948E-01 0.27013366E+03</pdfrwt>
<totfact> 0.49778900E+01</totfact>
</mgrwt>
</event>
<event>
 6    1  0.1190675E-005  0.1358142E+03  0.7546771E-02  0.1231332E+00
         -1   -1    0    0    0  501 -0.00000000000E+00  0.00000000000E+00  0.13831900141E+03  0.13831900141E+03  0.00000000000E+00 0.  1.
          1   -1    0    0  501    0  0.00000000000E+00 -0.00000000000E+00 -0.13248636076E+03  0.13248636076E+03  0.00000000000E+00 0. -1.
          5    1    1    2  502    0  0.60146590574E+01 -0.39424107608E+02  0.33743558197E+02  0.52451445204E+02  0.47000000000E+01 0. -1.
         -5    1    1    2    0  502  0.24670730709E+02 -0.39131156824E+01 -0.91795352434E+02  0.95249326279E+02  0.47000000000E+01 0. -1.
        -11    1    1    2    0    0  0.19520190474E+02  0.12211463175E+01  0.53234192624E+02  0.56713387298E+02  0.00000000000E+00 0.  1.
         11    1    1    2    0    0 -0.50205580240E+02  0.42116076972E+02  0.10650242258E+02  0.66391203385E+02  0.00000000000E+00 0. -1.
<mgrwt>
<rscale>  0 0.12742208E+03</rscale>
<asrwt>0</asrwt>
<pdfrwt beam="2">  1        1 0.20382517E-01 0.13581424E+03</pdfrwt>
<pdfrwt beam="1">  1       -1 0.21279846E-01 0.13581424E+03</pdfrwt>
<totfact> 0.43456437E+03</totfact>
</mgrwt>
</event>
<event>
 6    1  0.1190675E-005  0.1409277E+03  0.7546771E-02  0.1231569E+00
         -4   -1    0    0    0  501 -0.00000000000E+00  0.00000000000E+00  0.85728673159E+02  0.85728673159E+02  0.00000000000E+00 0.  1.
          4   -1    0    0  501    0  0.00000000000E+00 -0.00000000000E+00 -0.17732849164E+03  0.17732849164E+03  0.00000000000E+00 0. -1.
          5    1    1    2  502    0 -0.26364576273E+02  0.35013174566E+02 -0.87186772364E+02  0.97696655780E+02  0.47000000000E+01 0.  1.
         -5    1    1    2    0  502 -0.32153166040E+02 -0.63462608352E+02 -0.66368816639E+01  0.71606333123E+02  0.47000000000E+01 0.  1.
        -11    1    1    2    0    0  0.26945042885E+02 -0.17111808660E+02 -0.15599822002E+02  0.35527507346E+02  0.00000000000E+00 0. -1.
         11    1    1    2    0    0  0.31572699428E+02  0.45561242446E+02  0.17823657546E+02  0.58226668553E+02  0.00000000000E+00 0.  1.
<mgrwt>
<rscale>  0 0.12726660E+03</rscale>
<asrwt>0</asrwt>
<pdfrwt beam="2">  1        4 0.27281306E-01 0.14092773E+03</pdfrwt>
<pdfrwt beam="1">  1       -4 0.13189027E-01 0.14092773E+03</pdfrwt>
<totfact> 0.99921506E+02</totfact>
</mgrwt>
</event>
<event>
 6    1  0.1190675E-005  0.1291864E+03  0.7546771E-02  0.1246078E+00
         -1   -1    0    0    0  501 -0.00000000000E+00  0.00000000000E+00  0.16200856698E+02  0.16200856698E+02  0.00000000000E+00 0.  1.
          1   -1    0    0  501    0  0.00000000000E+00 -0.00000000000E+00 -0.84766056392E+03  0.84766056392E+03  0.00000000000E+00 0. -1.
          5    1    1    2  502    0 -0.11645423702E+02  0.29280548055E+02 -0.49377504088E+03  0.49480182638E+03  0.47000000000E+01 0. -1.
         -5    1    1    2    0  502  0.42597889238E+02 -0.39570054337E+02 -0.13428269384E+03  0.14640458064E+03  0.47000000000E+01 0. -1.
        -11    1    1    2    0    0  0.16099446474E+01  0.32087652344E+02 -0.27040625693E+02  0.41992913600E+02  0.00000000000E+00 0.  1.
         11    1    1    2    0    0 -0.32562410184E+02 -0.21798146062E+02 -0.17636134681E+03  0.18066210000E+03  0.00000000000E+00 0. -1.
<mgrwt>
<rscale>  0 0.11821119E+03</rscale>
<asrwt>0</asrwt>
<pdfrwt beam="2">  1        1 0.13040933E+00 0.12918645E+03</pdfrwt>
<pdfrwt beam="1">  1       -1 0.24924392E-02 0.12918645E+03</pdfrwt>
<totfact> 0.10002555E+04</totfact>
</mgrwt>
</event>
<event>
 6    1  0.1190675E-005  0.1653012E+03  0.7546771E-02  0.1188947E+00
          2   -1    0    0  501    0  0.00000000000E+00  0.00000000000E+00  0.11837618401E+03  0.11837618401E+03  0.00000000000E+00 0. -1.
         -2   -1    0    0    0  501 -0.00000000000E+00 -0.00000000000E+00 -0.20794562947E+03  0.20794562947E+03  0.00000000000E+00 0.  1.
          5    1    1    2  502    0  0.56307057146E+02  0.14441829906E+02  0.31851429940E+01  0.58406217746E+02  0.47000000000E+01 0.  1.
         -5    1    1    2    0  502  0.23270661542E+01 -0.10533499414E+03 -0.24396060901E+02  0.10825033032E+03  0.47000000000E+01 0.  1.
        -11    1    1    2    0    0 -0.40907294829E+02  0.20892618748E+02  0.15982613773E+02  0.48634886978E+02  0.00000000000E+00 0. -1.
         11    1    1    2    0    0 -0.17726828472E+02  0.70000545485E+02 -0.84341141322E+02  0.11103037843E+03  0.00000000000E+00 0.  1.
<mgrwt>
<rscale>  0 0.15977818E+03</rscale>
<asrwt>0</asrwt>
<pdfrwt beam="1">  1        2 0.18211721E-01 0.16530125E+03</pdfrwt>
<pdfrwt beam="2">  1       -2 0.31991635E-01 0.16530125E+03</pdfrwt>
<totfact> 0.27413616E+03</totfact>
</mgrwt>
</event>
<event>
 6    1  0.1190675E-005  0.1527811E+03  0.7546771E-02  0.1204748E+00
          1   -1    0    0  501    0  0.00000000000E+00  0.00000000000E+00  0.63536363620E+03  0.63536363620E+03  0.00000000000E+00 0. -1.
         -1   -1    0    0    0  501 -0.00000000000E+00 -0.00000000000E+00 -0.37135813475E+02  0.37135813475E+02  0.00000000000E+00 0.  1.
          5    1    1    2  502    0  0.21099484017E+02  0.13771440474E+02  0.21382363182E+03  0.21535430417E+03  0.47000000000E+01 0.  1.
         -5    1    1    2    0  502 -0.47752766977E+02 -0.97479475786E+02  0.23868426773E+03  0.26224958458E+03  0.47000000000E+01 0.  1.
        -11    1    1    2    0    0 -0.14668541007E+02 -0.13356966025E+02  0.44378366353E+02  0.48610842791E+02  0.00000000000E+00 0. -1.
         11    1    1    2    0    0  0.41321823966E+02  0.97065001337E+02  0.10134155683E+03  0.14628471814E+03  0.00000000000E+00 0.  1.
<mgrwt>
<rscale>  0 0.14657304E+03</rscale>
<asrwt>0</asrwt>
<pdfrwt beam="1">  1        1 0.97748244E-01 0.15278114E+03</pdfrwt>
<pdfrwt beam="2">  1       -1 0.57132025E-02 0.15278114E+03</pdfrwt>
<totfact> 0.45498031E+03</totfact>
</mgrwt>
</event>
<event>
 6    1  0.1190675E-005  0.1340625E+03  0.7546771E-02  0.1234533E+00
          2   -1    0    0  501    0  0.00000000000E+00  0.00000000000E+00  0.51928359335E+03  0.51928359335E+03  0.00000000000E+00 0. -1.
         -2   -1    0    0    0  501 -0.00000000000E+00 -0.00000000000E+00 -0.30923182150E+02  0.30923182150E+02  0.00000000000E+00 0.  1.
          5    1    1    2  502    0  0.18701384950E+02 -0.68782466840E+02  0.21792253651E+03  0.22933183700E+03  0.47000000000E+01 0. -1.
         -5    1    1    2    0  502 -0.51918085494E+02  0.33496168161E+02  0.15278098533E+03  0.16486843349E+03  0.47000000000E+01 0. -1.
        -11    1    1    2    0    0  0.40520749081E+02 -0.21013740890E+02  0.54228609919E+02  0.70881947956E+02  0.00000000000E+00 0.  1.
         11    1    1    2    0    0 -0.73040485368E+01  0.56300039569E+02  0.63428279435E+02  0.85124557048E+02  0.00000000000E+00 0. -1.
<mgrwt>
<rscale>  0 0.12534375E+03</rscale>
<asrwt>0</asrwt>
<pdfrwt beam="1">  1        2 0.79889777E-01 0.13406249E+03</pdfrwt>
<pdfrwt beam="2">  1       -2 0.47574130E-02 0.13406249E+03</pdfrwt>
<totfact> 0.11953711E+04</totfact>
</mgrwt>
</event>
<event>
 6    1  0.1190675E-005  0.1185583E+03  0.7546771E-02  0.1257931E+00
         -4   -1    0    0    0  501 -0.00000000000E+00  0.00000000000E+00  0.28817085258E+03  0.28817085258E+03  0.00000000000E+00 0.  1.
          4   -1    0    0  501    0  0.00000000000E+00 -0.00000000000E+00 -0.43972398982E+02  0.43972398982E+02  0.00000000000E+00 0. -1.
          5    1    1    2  502    0  0.36081126950E+02  0.50197512610E+02  0.63431432340E+02  0.88697658385E+02  0.47000000000E+01 0. -1.
         -5    1    1    2    0  502 -0.21610942504E+02 -0.46157576788E+02  0.14559123871E+02  0.53212900868E+02  0.47000000000E+01 0.  1.
        -11    1    1    2    0    0 -0.17571013847E+02  0.41735603386E+02  0.98909572174E+02  0.10878283222E+03  0.00000000000E+00 0. -1.
         11    1    1    2    0    0  0.31008294005E+01 -0.45775539208E+02  0.67298325212E+02  0.81449860093E+02  0.00000000000E+00 0.  1.
<mgrwt>
<rscale>  0 0.11143713E+03</rscale>
<asrwt>0</asrwt>
<pdfrwt beam="2">  1        4 0.67649847E-02 0.11855834E+03</pdfrwt>
<pdfrwt beam="1">  1       -4 0.44333976E-01 0.11855834E+03</pdfrwt>
<totfact> 0.11566213E+03</totfact>
</mgrwt>
</event>
<event>
 6    1  0.1190675E-005  0.2309587E+03  0.7546771E-02  0.1151227E+00
          2   -1    0    0  501    0  0.00000000000E+00  0.00000000000E+00  0.55422830990E+03  0.55422830990E+03  0.00000000000E+00 0. -1.
         -2   -1    0    0    0  501 -0.00000000000E+00 -0.00000000000E+00 -0.66839510845E+02  0.66839510845E+02  0.00000000000E+00 0.  1.
          5    1    1    2  502    0  0.90407043142E+01 -0.13438443254E+02  0.35794032560E+03  0.35833740076E+03  0.47000000000E+01 0. -1.
         -5    1    1    2    0  502 -0.43462737083E+02  0.93505809848E+02  0.60590589959E+02  0.11968983074E+03  0.47000000000E+01 0.  1.
        -11    1    1    2    0    0  0.47312266986E+02 -0.92488028660E+02  0.69729656340E+02  0.12511878766E+03  0.00000000000E+00 0. -1.
         11    1    1    2    0    0 -0.12890234217E+02  0.12420662066E+02 -0.87177284346E+00  0.17921801589E+02  0.00000000000E+00 0.  1.
<mgrwt>
<rscale>  0 0.19824604E+03</rscale>
<asrwt>0</asrwt>
<pdfrwt beam="1">  1        2 0.85265891E-01 0.23095867E+03</pdfrwt>
<pdfrwt beam="2">  1       -2 0.10283002E-01 0.23095867E+03</pdfrwt>
<totfact> 0.34815104E+03</totfact>
</mgrwt>
</event>
<event>
 6    1  0.1190675E-005  0.1617035E+03  0.7546771E-02  0.1194103E+00
          1   -1    0    0  501    0  0.00000000000E+00  0.00000000000E+00  0.77299879194E+03  0.77299879194E+03  0.00000000000E+00 0. -1.
         -1   -1    0    0    0  501 -0.00000000000E+00 -0.00000000000E+00 -0.31515365487E+02  0.31515365487E+02  0.00000000000E+00 0.  1.
          5    1    1    2  502    0 -0.35479411253E+02 -0.73915703960E+01  0.35782974633E+03  0.35969103588E+03  0.47000000000E+01 0. -1.
         -5    1    1    2    0  502 -0.38574869975E+02  0.78357987074E+02  0.15435543705E+03  0.17741388243E+03  0.47000000000E+01 0. -1.
        -11    1    1    2    0    0  0.46128824116E+02 -0.90858966522E+02  0.15383325683E+03  0.18452070648E+03  0.00000000000E+00 0.  1.
         11    1    1    2    0    0  0.27925457112E+02  0.19892549843E+02  0.75464986242E+02  0.82888532636E+02  0.00000000000E+00 0. -1.
<mgrwt>
<rscale>  0 0.15530431E+03</rscale>
<asrwt>0</asrwt>
<pdfrwt beam="1">  1        1 0.11892288E+00 0.16170353E+03</pdfrwt>
<pdfrwt beam="2">  1       -1 0.48485183E-02 0.16170353E+03</pdfrwt>
<totfact> 0.43901099E+03</totfact>
</mgrwt>
</event>
<event>
 6    1  0.1190675E-005  0.1259766E+03  0.7546771E-02  0.1248243E+00
          1   -1    0    0  501    0  0.00000000000E+00  0.00000000000E+00  0.31970270608E+03  0.31970270608E+03  0.00000000000E+00 0. -1.
         -1   -1    0    0    0  501 -0.00000000000E+00 -0.00000000000E+00 -0.38212608962E+02  0.38212608962E+02  0.00000000000E+00 0.  1.
          5    1    1    2  502    0  0.23369987689E+02  0.58713229327E+02  0.14656221995E+03  0.15967458764E+03  0.47000000000E+01 0.  1.
         -5    1    1    2    0  502 -0.11180007158E+02 -0.49085998519E+02  0.35732338086E+02  0.61913793260E+02  0.47000000000E+01 0.  1.
        -11    1    1    2    0    0 -0.91095166749E+00  0.21075678186E+02 -0.92659528212E+01  0.23040658099E+02  0.00000000000E+00 0.  1.
         11    1    1    2    0    0 -0.11279028864E+02 -0.30702908994E+02  0.10846149191E+03  0.11328627605E+03  0.00000000000E+00 0. -1.
<mgrwt>
<rscale>  0 0.11693355E+03</rscale>
<asrwt>0</asrwt>
<pdfrwt beam="1">  1        1 0.49185030E-01 0.12597660E+03</pdfrwt>
<pdfrwt beam="2">  1       -1 0.58788631E-02 0.12597660E+03</pdfrwt>
<totfact> 0.10469011E+04</totfact>
</mgrwt>
</event>
<event>
 6    1  0.1190675E-005  0.1598929E+03  0.7546771E-02  0.1212268E+00
         -1   -1    0    0    0  501 -0.00000000000E+00  0.00000000000E+00  0.89092463912E+02  0.89092463912E+02  0.00000000000E+00 0.  1.
          1   -1    0    0  501    0  0.00000000000E+00 -0.00000000000E+00 -0.71882258320E+03  0.71882258320E+03  0.00000000000E+00 0. -1.
          5    1    1    2  502    0  0.43624308531E+02  0.58404015687E+02 -0.54802043717E+03  0.55286761426E+03  0.47000000000E+01 0. -1.
         -5    1    1    2    0  502 -0.17019756821E+02 -0.59193840685E+02 -0.13260329685E+03  0.14628502054E+03  0.47000000000E+01 0.  1.
        -11    1    1    2    0    0  0.28003335912E+02 -0.13027526260E+02 -0.27106972100E+01  0.31004050413E+02  0.00000000000E+00 0. -1.
         11    1    1    2    0    0 -0.54607887622E+02  0.13817351258E+02  0.53604311944E+02  0.77758361900E+02  0.00000000000E+00 0.  1.
<mgrwt>
<rscale>  0 0.14079123E+03</rscale>
<asrwt>0</asrwt>
<pdfrwt beam="2">  1        1 0.11058809E+00 0.15989290E+03</pdfrwt>
<pdfrwt beam="1">  1       -1 0.13706533E-01 0.15989290E+03</pdfrwt>
<totfact> 0.10077786E+03</totfact>
</mgrwt>
</event>
<event>
 6    1  0.1190675E-005  0.2813745E+03  0.7546771E-02  0.1094941E+00
          2   -1    0    0  501    0  0.00000000000E+00  0.00000000000E+00  0.49638784935E+03  0.49638784935E+03  0.00000000000E+00 0. -1.
         -2   -1    0    0    0  501 -0.00000000000E+00 -0.00000000000E+00 -0.39873851834E+02  0.39873851834E+02  0.00000000000E+00 0.  1.
          5    1    1    2  502    0 -0.11819059439E+03 -0.85309100653E+01  0.23555467396E+03  0.26372312650E+03  0.47000000000E+01 0.  1.
         -5    1    1    2    0  502  0.28214056126E+02  0.18650845527E+02  0.45039740416E+02  0.56520396484E+02  0.47000000000E+01 0.  1.
        -11    1    1    2    0    0  0.62107361824E+02  0.16669519485E+02  0.16305412397E+03  0.17527648050E+03  0.00000000000E+00 0. -1.
         11    1    1    2    0    0  0.27869176438E+02 -0.26789454947E+02  0.12865459171E+02  0.40741697699E+02  0.00000000000E+00 0.  1.
<mgrwt>
<rscale>  0 0.28137445E+03</rscale>
<asrwt>0</asrwt>
<pdfrwt beam="1">  1        2 0.76367357E-01 0.28137445E+03</pdfrwt>
<pdfrwt beam="2">  1       -2 0.61344391E-02 0.28137445E+03</pdfrwt>
<totfact> 0.89362166E+03</totfact>
</mgrwt>
</event>
<event>
 6    1  0.1190675E-005  0.1322962E+03  0.7546771E-02  0.1239423E+00
          1   -1    0    0  501    0  0.00000000000E+00  0.00000000000E+00  0.19296749680E+03  0.19296749680E+03  0.00000000000E+00 0. -1.
         -1   -1    0    0    0  501 -0.00000000000E+00 -0.00000000000E+00 -0.71200857644E+02  0.71200857644E+02  0.00000000000E+00 0.  1.
          5    1    1    2  502    0 -0.40510776948E+02  0.38094353283E+01  0.77668773098E+02  0.87807534762E+02  0.47000000000E+01 0.  1.
         -5    1    1    2    0  502  0.61093320964E+02 -0.41939699268E+02  0.20796667107E+02  0.77109815224E+02  0.47000000000E+01 0.  1.
        -11    1    1    2    0    0  0.16987825995E+02  0.17015031953E+02 -0.24885431800E+02  0.34603211705E+02  0.00000000000E+00 0.  1.
         11    1    1    2    0    0 -0.37570370011E+02  0.21115231987E+02  0.48186630749E+02  0.64647792751E+02  0.00000000000E+00 0. -1.
<mgrwt>
<rscale>  0 0.12225498E+03</rscale>
<asrwt>0</asrwt>
<pdfrwt beam="1">  1        1 0.29687307E-01 0.13229622E+03</pdfrwt>
<pdfrwt beam="2">  1       -1 0.10953978E-01 0.13229622E+03</pdfrwt>
<totfact> 0.76759518E+03</totfact>
</mgrwt>
</event>
<event>
 6    1  0.1190675E-005  0.1423007E+03  0.7546771E-02  0.1221047E+00
          1   -1    0    0  501    0  0.00000000000E+00  0.00000000000E+00  0.22318717080E+03  0.22318717080E+03  0.00000000000E+00 0. -1.
         -1   -1    0    0    0  501 -0.00000000000E+00 -0.00000000000E+00 -0.74275804224E+02  0.74275804224E+02  0.00000000000E+00 0.  1.
          5    1    1    2  502    0 -0.31128757023E+02 -0.71099941590E+01  0.10769906237E+03  0.11243099913E+03  0.47000000000E+01 0.  1.
         -5    1    1    2    0  502 -0.11163742876E+02  0.60361591526E+02 -0.69044152669E+01  0.61950882453E+02  0.47000000000E+01 0.  1.
        -11    1    1    2    0    0 -0.70083985302E+01 -0.52841516351E+02 -0.12396324082E+01  0.53318666420E+02  0.00000000000E+00 0.  1.
         11    1    1    2    0    0  0.49300898429E+02 -0.41008101530E+00  0.49356351877E+02  0.69762427015E+02  0.00000000000E+00 0. -1.
<mgrwt>
<rscale>  0 0.13441550E+03</rscale>
<asrwt>0</asrwt>
<pdfrwt beam="1">  1        1 0.34336487E-01 0.14230067E+03</pdfrwt>
<pdfrwt beam="2">  1       -1 0.11427047E-01 0.14230067E+03</pdfrwt>
<totfact> 0.60334828E+03</totfact>
</mgrwt>
</event>
<event>
 6    1  0.1190675E-005  0.2741074E+03  0.7546771E-02  0.1101018E+00
          2   -1    0    0  501    0  0.00000000000E+00  0.00000000000E+00  0.14796952347E+04  0.14796952347E+04  0.00000000000E+00 0. -1.
         -2   -1    0    0    0  501 -0.00000000000E+00 -0.00000000000E+00 -0.53578666405E+02  0.53578666405E+02  0.00000000000E+00 0.  1.
          5    1    1    2  502    0 -0.24499878924E+02  0.43730470188E+02  0.44879291298E+03  0.45160797915E+03  0.47000000000E+01 0. -1.
         -5    1    1    2    0  502 -0.13202011752E+03  0.14338404905E+03  0.52514017865E+03  0.56016300679E+03  0.47000000000E+01 0. -1.
        -11    1    1    2    0    0  0.49582428632E+02 -0.45270259574E+02  0.21456763609E+03  0.22482678686E+03  0.00000000000E+00 0. -1.
         11    1    1    2    0    0  0.10693756781E+03 -0.14184425966E+03  0.23761584055E+03  0.29667612828E+03  0.00000000000E+00 0.  1.
<mgrwt>
<rscale>  0 0.27045800E+03</rscale>
<asrwt>0</asrwt>
<pdfrwt beam="1">  1        2 0.22764539E+00 0.27410739E+03</pdfrwt>
<pdfrwt beam="2">  1       -2 0.82428729E-02 0.27410739E+03</pdfrwt>
<totfact> 0.12632109E+03</totfact>
</mgrwt>
</event>
<event>
 6    1  0.1190675E-005  0.3121216E+03  0.7546771E-02  0.1079333E+00
         -1   -1    0    0    0  501 -0.00000000000E+00  0.00000000000E+00  0.55772323284E+02  0.55772323284E+02  0.00000000000E+00 0.  1.
          1   -1    0    0  501    0  0.00000000000E+00 -0.00000000000E+00 -0.43668555050E+03  0.43668555050E+03  0.00000000000E+00 0. -1.
          5    1    1    2  502    0 -0.25560845832E+02  0.56138269485E+02 -0.42509141175E+02  0.75059837622E+02  0.47000000000E+01 0.  1.
         -5    1    1    2    0  502 -0.75211712390E+01  0.20810422650E+02 -0.27904837662E+03  0.27996379802E+03  0.47000000000E+01 0.  1.
        -11    1    1    2    0    0  0.16112264082E+02 -0.33116394951E+02  0.22418056288E+02  0.43114613719E+02  0.00000000000E+00 0.  1.
         11    1    1    2    0    0  0.16969752989E+02 -0.43832297184E+02 -0.81773765704E+02  0.94319624418E+02  0.00000000000E+00 0. -1.
<mgrwt>
<rscale>  0 0.31212156E+03</rscale>
<asrwt>0</asrwt>
<pdfrwt beam="2">  1        1 0.67182393E-01 0.31212156E+03</pdfrwt>
<pdfrwt beam="1">  1       -1 0.85803574E-02 0.31212156E+03</pdfrwt>
<totfact> 0.41759483E+03</totfact>
</mgrwt>
</event>
<event>
 6    1  0.1190675E-005  0.1354679E+03  0.7546771E-02  0.1231118E+00
          2   -1    0    0  501    0  0.00000000000E+00  0.00000000000E+00  0.12249983572E+04  0.12249983572E+04  0.00000000000E+00 0. -1.
         -2   -1    0    0    0  501 -0.00000000000E+00 -0.00000000000E+00 -0.11951556399E+02  0.11951556399E+02  0.00000000000E+00 0.  1.
          5    1    1    2  502    0  0.39796428594E+02 -0.59539147027E+01  0.32632816194E+03  0.32883333788E+03  0.47000000000E+01 0.  1.
         -5    1    1    2    0  502 -0.85709772031E+02 -0.18920999117E+02  0.34454528675E+03  0.35558081198E+03  0.47000000000E+01 0.  1.
        -11    1    1    2    0    0  0.50453235854E+02  0.55746299283E+02  0.39467281232E+03  0.40177083976E+03  0.00000000000E+00 0.  1.
         11    1    1    2    0    0 -0.45398924169E+01 -0.30871385464E+02  0.14750053983E+03  0.15076492402E+03  0.00000000000E+00 0. -1.
<mgrwt>
<rscale>  0 0.12756225E+03</rscale>
<asrwt>0</asrwt>
<pdfrwt beam="1">  1        2 0.18846119E+00 0.13546787E+03</pdfrwt>
<pdfrwt beam="2">  1       -2 0.18387020E-02 0.13546787E+03</pdfrwt>
<totfact> 0.16274535E+04</totfact>
</mgrwt>
</event>
<event>
 6    1  0.1190675E-005  0.1497764E+03  0.7546771E-02  0.1206694E+00
         -2   -1    0    0    0  501 -0.00000000000E+00  0.00000000000E+00  0.50417863906E+02  0.50417863906E+02  0.00000000000E+00 0.  1.
          2   -1    0    0  501    0  0.00000000000E+00 -0.00000000000E+00 -0.39460939119E+03  0.39460939119E+03  0.00000000000E+00 0. -1.
          5    1    1    2  502    0 -0.51606422391E+02  0.43187618795E+02 -0.22046664325E+02  0.70968575137E+02  0.47000000000E+01 0.  1.
         -5    1    1    2    0  502 -0.21623205170E+02 -0.52012698697E+01 -0.17535642140E+03  0.17682358649E+03  0.47000000000E+01 0.  1.
        -11    1    1    2    0    0 -0.61547721409E+01  0.14716292885E+02  0.61051226999E+01  0.17079901041E+02  0.00000000000E+00 0.  1.
         11    1    1    2    0    0  0.79384399702E+02 -0.52702641810E+02 -0.15289356426E+03  0.18015519244E+03  0.00000000000E+00 0. -1.
<mgrwt>
<rscale>  0 0.14504747E+03</rscale>
<asrwt>0</asrwt>
<pdfrwt beam="2">  1        2 0.60709135E-01 0.14977642E+03</pdfrwt>
<pdfrwt beam="1">  1       -2 0.77565948E-02 0.14977642E+03</pdfrwt>
<totfact> 0.77191404E+03</totfact>
</mgrwt>
</event>
<event>
 6    1  0.1190675E-005  0.3430255E+03  0.7546771E-02  0.1065515E+00
         -1   -1    0    0    0  501 -0.00000000000E+00  0.00000000000E+00  0.18418870029E+03  0.18418870029E+03  0.00000000000E+00 0.  1.
          1   -1    0    0  501    0  0.00000000000E+00 -0.00000000000E+00 -0.15970913012E+03  0.15970913012E+03  0.00000000000E+00 0. -1.
          5    1    1    2  502    0 -0.30271393487E+02  0.11657363359E+03 -0.17730003500E+02  0.12182861870E+03  0.47000000000E+01 0.  1.
         -5    1    1    2    0  502 -0.14722133585E+02  0.47195717025E+01  0.61122719558E+02  0.63222562590E+02  0.47000000000E+01 0.  1.
        -11    1    1    2    0    0  0.46464254168E+01 -0.89690625323E+02 -0.45970296989E+02  0.10089234731E+03  0.00000000000E+00 0. -1.
         11    1    1    2    0    0  0.40347101655E+02 -0.31602579965E+02  0.27057151101E+02  0.57954301808E+02  0.00000000000E+00 0.  1.
<mgrwt>
<rscale>  0 0.34302546E+03</rscale>
<asrwt>0</asrwt>
<pdfrwt beam="2">  1        1 0.24570636E-01 0.34302546E+03</pdfrwt>
<pdfrwt beam="1">  1       -1 0.28336723E-01 0.34302546E+03</pdfrwt>
<totfact> 0.22104244E+03</totfact>
</mgrwt>
</event>
<event>
 6    1  0.1190675E-005  0.3168332E+03  0.7546771E-02  0.1077116E+00
         -2   -1    0    0    0  501 -0.00000000000E+00  0.00000000000E+00  0.29237937354E+02  0.29237937354E+02  0.00000000000E+00 0.  1.
          2   -1    0    0  501    0  0.00000000000E+00 -0.00000000000E+00 -0.85833076238E+03  0.85833076238E+03  0.00000000000E+00 0. -1.
          5    1    1    2  502    0  0.94535770977E+02  0.55287437772E+02 -0.61129086660E+03  0.62104132420E+03  0.47000000000E+01 0.  1.
         -5    1    1    2    0  502 -0.79438209805E+01  0.68645904011E+01  0.44271646998E+00  0.11511424370E+02  0.47000000000E+01 0.  1.
        -11    1    1    2    0    0 -0.55449280553E+02 -0.11719193943E+02 -0.16803441868E+03  0.17733450900E+03  0.00000000000E+00 0. -1.
         11    1    1    2    0    0 -0.31142669444E+02 -0.50432834230E+02 -0.50210256220E+02  0.77681442174E+02  0.00000000000E+00 0.  1.
<mgrwt>
<rscale>  0 0.31683321E+03</rscale>
<asrwt>0</asrwt>
<pdfrwt beam="2">  1        2 0.13205086E+00 0.31683321E+03</pdfrwt>
<pdfrwt beam="1">  1       -2 0.44981452E-02 0.31683321E+03</pdfrwt>
<totfact> 0.74620767E+03</totfact>
</mgrwt>
</event>
<event>
 6    1  0.1190675E-005  0.1263636E+03  0.7546771E-02  0.1246641E+00
          2   -1    0    0  501    0  0.00000000000E+00  0.00000000000E+00  0.31697076651E+02  0.31697076651E+02  0.00000000000E+00 0. -1.
         -2   -1    0    0    0  501 -0.00000000000E+00 -0.00000000000E+00 -0.46043545085E+03  0.46043545085E+03  0.00000000000E+00 0.  1.
          5    1    1    2  502    0  0.22821401147E+02 -0.26605821744E+02 -0.15597697831E+03  0.15993621811E+03  0.47000000000E+01 0.  1.
         -5    1    1    2    0  502 -0.40484857412E+01  0.27566318566E+02  0.12807276235E+02  0.31022709112E+02  0.47000000000E+01 0.  1.
        -11    1    1    2    0    0 -0.35431867648E+02  0.36838902087E+02 -0.11810872146E+03  0.12869418028E+03  0.00000000000E+00 0.  1.
         11    1    1    2    0    0  0.16658952242E+02 -0.37799398908E+02 -0.16745995066E+03  0.17247942000E+03  0.00000000000E+00 0. -1.
<mgrwt>
<rscale>  0 0.11787726E+03</rscale>
<asrwt>0</asrwt>
<pdfrwt beam="1">  1        2 0.48764733E-02 0.12636356E+03</pdfrwt>
<pdfrwt beam="2">  1       -2 0.70836224E-01 0.12636356E+03</pdfrwt>
<totfact> 0.28745576E+03</totfact>
</mgrwt>
</event>
<event>
 6    1  0.1190675E-005  0.1252105E+03  0.7546771E-02  0.1250689E+00
         -2   -1    0    0    0  501 -0.00000000000E+00  0.00000000000E+00  0.13041121526E+02  0.13041121526E+02  0.00000000000E+00 0.  1.
          2   -1    0    0  501    0  0.00000000000E+00 -0.00000000000E+00 -0.14511321404E+04  0.14511321404E+04  0.00000000000E+00 0. -1.
          5    1    1    2  502    0  0.14780520814E+02  0.12279891103E+02 -0.28839927583E+02  0.34972717138E+02  0.47000000000E+01 0.  1.
         -5    1    1    2    0  502 -0.96768082077E+01 -0.17401543770E+02 -0.12111698158E+04  0.12113425887E+04  0.47000000000E+01 0.  1.
        -11    1    1    2    0    0  0.40056148302E+02  0.74823087032E+01 -0.12907353070E+03  0.13535308008E+03  0.00000000000E+00 0. -1.
         11    1    1    2    0    0 -0.45159860908E+02 -0.23606560368E+01 -0.69007744806E+02  0.82504876082E+02  0.00000000000E+00 0.  1.
<mgrwt>
<rscale>  0 0.11551239E+03</rscale>
<asrwt>0</asrwt>
<pdfrwt beam="2">  1        2 0.22325104E+00 0.12521053E+03</pdfrwt>
<pdfrwt beam="1">  1       -2 0.20063269E-02 0.12521053E+03</pdfrwt>
<totfact> 0.10811872E+04</totfact>
</mgrwt>
</event>
<event>
 6    1  0.1190675E-005  0.1375178E+03  0.7546771E-02  0.1224391E+00
         -2   -1    0    0    0  501 -0.00000000000E+00  0.00000000000E+00  0.22495939818E+03  0.22495939818E+03  0.00000000000E+00 0.  1.
          2   -1    0    0  501    0  0.00000000000E+00 -0.00000000000E+00 -0.95396294123E+02  0.95396294123E+02  0.00000000000E+00 0. -1.
          5    1    1    2  502    0 -0.58992909823E+02 -0.60984135233E+02 -0.42671771695E+02  0.95090474071E+02  0.47000000000E+01 0.  1.
         -5    1    1    2    0  502  0.17226844032E+02  0.21732869037E+02  0.32284620882E+02  0.42819020275E+02  0.47000000000E+01 0.  1.
        -11    1    1    2    0    0  0.66903813055E+02  0.25699472193E+02  0.48240445033E+02  0.86392844665E+02  0.00000000000E+00 0. -1.
         11    1    1    2    0    0 -0.25137747263E+02  0.13551794003E+02  0.91709809837E+02  0.96053353291E+02  0.00000000000E+00 0.  1.
<mgrwt>
<rscale>  0 0.13208738E+03</rscale>
<asrwt>0</asrwt>
<pdfrwt beam="2">  1        2 0.14676353E-01 0.13751777E+03</pdfrwt>
<pdfrwt beam="1">  1       -2 0.34609138E-01 0.13751777E+03</pdfrwt>
<totfact> 0.30208656E+03</totfact>
</mgrwt>
</event>
<event>
 6    1  0.1190675E-005  0.1358415E+03  0.7546771E-02  0.1233177E+00
         -2   -1    0    0    0  501 -0.00000000000E+00  0.00000000000E+00  0.14281492644E+03  0.14281492644E+03  0.00000000000E+00 0. -1.
          2   -1    0    0  501    0  0.00000000000E+00 -0.00000000000E+00 -0.21220873438E+03  0.21220873438E+03  0.00000000000E+00 0.  1.
          5    1    1    2  502    0  0.10635745241E+02 -0.46487403373E+02 -0.69897809528E+02  0.84746631355E+02  0.47000000000E+01 0.  1.
         -5    1    1    2    0  502 -0.61705698229E+02  0.61426456086E+02 -0.96499779350E+02  0.13005806440E+03  0.47000000000E+01 0.  1.
        -11    1    1    2    0    0  0.47486654086E+02  0.21352917127E+02  0.21426248635E+02  0.56302873077E+02  0.00000000000E+00 0. -1.
         11    1    1    2    0    0  0.35832989020E+01 -0.36291969839E+02  0.75577532299E+02  0.83916091987E+02  0.00000000000E+00 0.  1.
<mgrwt>
<rscale>  0 0.12621859E+03</rscale>
<asrwt>0</asrwt>
<pdfrwt beam="2">  1        2 0.32647498E-01 0.13584145E+03</pdfrwt>
<pdfrwt beam="1">  1       -2 0.21971527E-01 0.13584145E+03</pdfrwt>
<totfact> 0.27598033E+03</totfact>
</mgrwt>
</event>
<event>
 6    1  0.1190675E-005  0.2824555E+03  0.7546771E-02  0.1094355E+00
         -4   -1    0    0    0  501 -0.00000000000E+00  0.00000000000E+00  0.27700586129E+03  0.27700586129E+03  0.00000000000E+00 0.  1.
          4   -1    0    0  501    0  0.00000000000E+00 -0.00000000000E+00 -0.72003072991E+02  0.72003072991E+02  0.00000000000E+00 0. -1.
          5    1    1    2  502    0 -0.62763433239E+01  0.10178131375E+03  0.88410898269E+01  0.10246503396E+03  0.47000000000E+01 0.  1.
         -5    1    1    2    0  502  0.50356763624E+01 -0.32901652730E+02  0.30997056998E+02  0.45725095203E+02  0.47000000000E+01 0.  1.
        -11    1    1    2    0    0 -0.41230857453E+02 -0.36406592188E+02  0.11513037702E+03  0.12759477761E+03  0.00000000000E+00 0.  1.
         11    1    1    2    0    0  0.42471524415E+02 -0.32473068832E+02  0.50034264455E+02  0.73224027511E+02  0.00000000000E+00 0. -1.
<mgrwt>
<rscale>  0 0.28245547E+03</rscale>
<asrwt>0</asrwt>
<pdfrwt beam="2">  1        4 0.11077396E-01 0.28245547E+03</pdfrwt>
<pdfrwt beam="1">  1       -4 0.42616286E-01 0.28245547E+03</pdfrwt>
<totfact> 0.64295377E+02</totfact>
</mgrwt>
</event>
<event>
 6    1  0.1190675E-005  0.1418380E+03  0.7546771E-02  0.1221766E+00
          2   -1    0    0  501    0  0.00000000000E+00  0.00000000000E+00  0.17332957682E+03  0.17332957682E+03  0.00000000000E+00 0. -1.
         -2   -1    0    0    0  501 -0.00000000000E+00 -0.00000000000E+00 -0.11096371476E+03  0.11096371476E+03  0.00000000000E+00 0.  1.
          5    1    1    2  502    0  0.98354529076E+02  0.23724180267E+02  0.50371812213E+02  0.11311878529E+03  0.47000000000E+01 0.  1.
         -5    1    1    2    0  502 -0.31401596402E+02 -0.20589310130E+02  0.39992865000E+02  0.55059051927E+02  0.47000000000E+01 0.  1.
        -11    1    1    2    0    0 -0.89611527333E+02 -0.15164255856E+01 -0.18614150038E+02  0.91536943139E+02  0.00000000000E+00 0.  1.
         11    1    1    2    0    0  0.22658594660E+02 -0.16184445515E+01 -0.93846651202E+01  0.24578511227E+02  0.00000000000E+00 0. -1.
<mgrwt>
<rscale>  0 0.13391061E+03</rscale>
<asrwt>0</asrwt>
<pdfrwt beam="1">  1        2 0.26666089E-01 0.14183797E+03</pdfrwt>
<pdfrwt beam="2">  1       -2 0.17071341E-01 0.14183797E+03</pdfrwt>
<totfact> 0.52734620E+03</totfact>
</mgrwt>
</event>
<event>
 6    1  0.1190675E-005  0.3942006E+03  0.7546771E-02  0.1045806E+00
         -1   -1    0    0    0  501 -0.00000000000E+00  0.00000000000E+00  0.29939598459E+02  0.29939598459E+02  0.00000000000E+00 0.  1.
          1   -1    0    0  501    0  0.00000000000E+00 -0.00000000000E+00 -0.12975635660E+04  0.12975635660E+04  0.00000000000E+00 0. -1.
          5    1    1    2  502    0  0.60318425981E+01 -0.62175713863E+01 -0.36028853221E+01  0.10493431360E+02  0.47000000000E+01 0.  1.
         -5    1    1    2    0  502  0.48143212009E+02 -0.88216947649E+01 -0.11789234507E+04  0.11799483818E+04  0.47000000000E+01 0.  1.
        -11    1    1    2    0    0 -0.20164590189E+02  0.28910466813E+02  0.87192859557E+01  0.36310490721E+02  0.00000000000E+00 0.  1.
         11    1    1    2    0    0 -0.34010464418E+02 -0.13871200661E+02 -0.93816917483E+02  0.10075086056E+03  0.00000000000E+00 0. -1.
<mgrwt>
<rscale>  0 0.39420062E+03</rscale>
<asrwt>0</asrwt>
<pdfrwt beam="2">  1        1 0.19962516E+00 0.39420062E+03</pdfrwt>
<pdfrwt beam="1">  1       -1 0.46060923E-02 0.39420062E+03</pdfrwt>
<totfact> 0.19489381E+03</totfact>
</mgrwt>
</event>
<event>
 6    1  0.1190675E-005  0.1252743E+03  0.7546771E-02  0.1249758E+00
          2   -1    0    0  501    0  0.00000000000E+00  0.00000000000E+00  0.50228756685E+03  0.50228756685E+03  0.00000000000E+00 0. -1.
         -2   -1    0    0    0  501 -0.00000000000E+00 -0.00000000000E+00 -0.29032191333E+02  0.29032191333E+02  0.00000000000E+00 0.  1.
          5    1    1    2  502    0  0.64594057279E+02  0.12036419360E+02  0.23558818161E+03  0.24462450601E+03  0.47000000000E+01 0. -1.
         -5    1    1    2    0  502 -0.56607377947E+02 -0.98633617425E+01  0.14450555155E+03  0.15558157208E+03  0.47000000000E+01 0. -1.
        -11    1    1    2    0    0  0.84146485923E+01  0.41769440814E+02  0.28616693440E+02  0.51326480887E+02  0.00000000000E+00 0.  1.
         11    1    1    2    0    0 -0.16401327924E+02 -0.43942498431E+02  0.64544948927E+02  0.79787199212E+02  0.00000000000E+00 0. -1.
<mgrwt>
<rscale>  0 0.11605094E+03</rscale>
<asrwt>0</asrwt>
<pdfrwt beam="1">  1        2 0.77275004E-01 0.12527433E+03</pdfrwt>
<pdfrwt beam="2">  1       -2 0.44664913E-02 0.12527433E+03</pdfrwt>
<totfact> 0.13554505E+04</totfact>
</mgrwt>
</event>
<event>
 6    1  0.1190675E-005  0.1341189E+03  0.7546771E-02  0.1233871E+00
         -1   -1    0    0    0  501 -0.00000000000E+00  0.00000000000E+00  0.65224161600E+02  0.65224161600E+02  0.00000000000E+00 0.  1.
          1   -1    0    0  501    0  0.00000000000E+00 -0.00000000000E+00 -0.23754394481E+03  0.23754394481E+03  0.00000000000E+00 0. -1.
          5    1    1    2  502    0  0.31650780123E+02  0.19839614225E+02 -0.98264898481E+02  0.10523052052E+03  0.47000000000E+01 0. -1.
         -5    1    1    2    0  502 -0.38777737337E+02 -0.67951382967E+02 -0.42343187070E+02  0.89085009128E+02  0.47000000000E+01 0. -1.
        -11    1    1    2    0    0 -0.12941095073E+02 -0.62609407551E+00  0.26759860736E+02  0.29731365292E+02  0.00000000000E+00 0.  1.
         11    1    1    2    0    0  0.20068052287E+02  0.48737862817E+02 -0.58471558398E+02  0.78721211475E+02  0.00000000000E+00 0. -1.
<mgrwt>
<rscale>  0 0.12576958E+03</rscale>
<asrwt>0</asrwt>
<pdfrwt beam="2">  1        1 0.36545222E-01 0.13411894E+03</pdfrwt>
<pdfrwt beam="1">  1       -1 0.10034486E-01 0.13411894E+03</pdfrwt>
<totfact> 0.67903605E+03</totfact>
</mgrwt>
</event>
<event>
 6    1  0.1190675E-005  0.1281093E+03  0.7546771E-02  0.1244850E+00
          1   -1    0    0  501    0  0.00000000000E+00  0.00000000000E+00  0.19495249093E+03  0.19495249093E+03  0.00000000000E+00 0. -1.
         -1   -1    0    0    0  501 -0.00000000000E+00 -0.00000000000E+00 -0.64724258741E+02  0.64724258741E+02  0.00000000000E+00 0.  1.
          5    1    1    2  502    0 -0.37575807098E+02 -0.31146428604E+02 -0.66242829281E+01  0.49477393001E+02  0.47000000000E+01 0.  1.
         -5    1    1    2    0  502  0.46695224995E+02  0.45670422995E+01  0.95302870633E+02  0.10632981268E+03  0.47000000000E+01 0.  1.
        -11    1    1    2    0    0 -0.83352215438E+01  0.39338239519E+02 -0.17206996088E+02  0.43738469578E+02  0.00000000000E+00 0.  1.
         11    1    1    2    0    0 -0.78419635296E+00 -0.12758853215E+02  0.58756640567E+02  0.60131074413E+02  0.00000000000E+00 0. -1.
<mgrwt>
<rscale>  0 0.11894373E+03</rscale>
<asrwt>0</asrwt>
<pdfrwt beam="1">  1        1 0.29992691E-01 0.12810930E+03</pdfrwt>
<pdfrwt beam="2">  1       -1 0.99575784E-02 0.12810930E+03</pdfrwt>
<totfact> 0.87468485E+03</totfact>
</mgrwt>
</event>
<event>
 6    1  0.1190675E-005  0.1285534E+03  0.7546771E-02  0.1241328E+00
         -1   -1    0    0    0  501 -0.00000000000E+00  0.00000000000E+00  0.91790270135E+01  0.91790270135E+01  0.00000000000E+00 0.  1.
          1   -1    0    0  501    0  0.00000000000E+00 -0.00000000000E+00 -0.14598204245E+04  0.14598204245E+04  0.00000000000E+00 0. -1.
          5    1    1    2  502    0 -0.49337068588E+02 -0.12718673901E+02 -0.36903023385E+03  0.37256048435E+03  0.47000000000E+01 0. -1.
         -5    1    1    2    0  502  0.68334177764E+02  0.35942889625E+02 -0.53218286596E+03  0.53777517978E+03  0.47000000000E+01 0. -1.
        -11    1    1    2    0    0  0.11416245699E+02  0.33866343841E+02 -0.16442563462E+03  0.16826481876E+03  0.00000000000E+00 0.  1.
         11    1    1    2    0    0 -0.30413354874E+02 -0.57090559566E+02 -0.38500266308E+03  0.39039896866E+03  0.00000000000E+00 0. -1.
<mgrwt>
<rscale>  0 0.12107851E+03</rscale>
<asrwt>0</asrwt>
<pdfrwt beam="2">  1        1 0.22458767E+00 0.12855337E+03</pdfrwt>
<pdfrwt beam="1">  1       -1 0.14121585E-02 0.12855337E+03</pdfrwt>
<totfact> 0.84353231E+03</totfact>
</mgrwt>
</event>
<event>
 6    1  0.1190675E-005  0.1329618E+03  0.7546771E-02  0.1236606E+00
         -1   -1    0    0    0  501 -0.00000000000E+00  0.00000000000E+00  0.52364456204E+03  0.52364456204E+03  0.00000000000E+00 0.  1.
          1   -1    0    0  501    0  0.00000000000E+00 -0.00000000000E+00 -0.26057116545E+02  0.26057116545E+02  0.00000000000E+00 0. -1.
          5    1    1    2  502    0  0.86206575590E+01  0.59415390962E+02  0.18319294024E+03  0.19283736094E+03  0.47000000000E+01 0. -1.
         -5    1    1    2    0  502 -0.50551818700E+02 -0.42221429496E+02  0.97518201323E+02  0.11777107061E+03  0.47000000000E+01 0. -1.
        -11    1    1    2    0    0 -0.25706384933E+02 -0.17949347464E+02  0.90119005503E+02  0.95417149683E+02  0.00000000000E+00 0.  1.
         11    1    1    2    0    0  0.67637546074E+02  0.75538599695E+00  0.12675729844E+03  0.14367609736E+03  0.00000000000E+00 0. -1.
<mgrwt>
<rscale>  0 0.12402173E+03</rscale>
<asrwt>0</asrwt>
<pdfrwt beam="2">  1        1 0.40087876E-02 0.13296185E+03</pdfrwt>
<pdfrwt beam="1">  1       -1 0.80560694E-01 0.13296185E+03</pdfrwt>
<totfact> 0.34976520E+03</totfact>
</mgrwt>
</event>
<event>
 6    1  0.1190675E-005  0.1323436E+03  0.7546771E-02  0.1237525E+00
          1   -1    0    0  501    0  0.00000000000E+00  0.00000000000E+00  0.64927135328E+02  0.64927135328E+02  0.00000000000E+00 0. -1.
         -1   -1    0    0    0  501 -0.00000000000E+00 -0.00000000000E+00 -0.21738127038E+03  0.21738127038E+03  0.00000000000E+00 0.  1.
          5    1    1    2  502    0 -0.64159620641E+01  0.42578458728E+02 -0.51312596995E+02  0.67150296553E+02  0.47000000000E+01 0.  1.
         -5    1    1    2    0  502 -0.25369783101E+02 -0.72449599891E+02 -0.62205889798E+01  0.77157994701E+02  0.47000000000E+01 0.  1.
        -11    1    1    2    0    0  0.32386449096E+02 -0.19260562554E+02 -0.85620211047E+01  0.38641422857E+02  0.00000000000E+00 0. -1.
         11    1    1    2    0    0 -0.60070393136E+00  0.49131703718E+02 -0.86358927972E+02  0.99358691597E+02  0.00000000000E+00 0.  1.
<mgrwt>
<rscale>  0 0.12344161E+03</rscale>
<asrwt>0</asrwt>
<pdfrwt beam="1">  1        1 0.99887899E-02 0.13234355E+03</pdfrwt>
<pdfrwt beam="2">  1       -1 0.33443273E-01 0.13234355E+03</pdfrwt>
<totfact> 0.51775670E+03</totfact>
</mgrwt>
</event>
<event>
 6    1  0.1190675E-005  0.1252962E+03  0.7546771E-02  0.1250443E+00
          1   -1    0    0  501    0  0.00000000000E+00  0.00000000000E+00  0.60869379575E+02  0.60869379575E+02  0.00000000000E+00 0. -1.
         -1   -1    0    0    0  501 -0.00000000000E+00 -0.00000000000E+00 -0.23712869728E+03  0.23712869728E+03  0.00000000000E+00 0.  1.
          5    1    1    2  502    0  0.23822555620E+01  0.47116672441E+02 -0.53515177797E+02  0.71495595795E+02  0.47000000000E+01 0. -1.
         -5    1    1    2    0  502 -0.65107614225E+00 -0.55505694071E+02  0.18331496975E+02  0.58646736958E+02  0.47000000000E+01 0. -1.
        -11    1    1    2    0    0 -0.16097175643E+02 -0.37470368016E+02 -0.82978381797E+02  0.92458419782E+02  0.00000000000E+00 0.  1.
         11    1    1    2    0    0  0.14365996223E+02  0.45859389646E+02 -0.58097255086E+02  0.75397324321E+02  0.00000000000E+00 0. -1.
<mgrwt>
<rscale>  0 0.11565454E+03</rscale>
<asrwt>0</asrwt>
<pdfrwt beam="1">  1        1 0.93645198E-02 0.12529619E+03</pdfrwt>
<pdfrwt beam="2">  1       -1 0.36481339E-01 0.12529619E+03</pdfrwt>
<totfact> 0.48413521E+03</totfact>
</mgrwt>
</event>
<event>
 6    1  0.1190675E-005  0.1263077E+03  0.7546771E-02  0.1251162E+00
          1   -1    0    0  501    0  0.00000000000E+00  0.00000000000E+00  0.75488683233E+03  0.75488683233E+03  0.00000000000E+00 0. -1.
         -1   -1    0    0    0  501 -0.00000000000E+00 -0.00000000000E+00 -0.17921533190E+02  0.17921533190E+02  0.00000000000E+00 0.  1.
          5    1    1    2  502    0  0.52271618329E+02  0.21942764004E+02  0.13894293562E+03  0.15013672546E+03  0.47000000000E+01 0. -1.
         -5    1    1    2    0  502 -0.35933311610E+02 -0.29785800215E+02  0.43603437303E+03  0.43855040901E+03  0.47000000000E+01 0. -1.
        -11    1    1    2    0    0 -0.37990358379E+02 -0.24264798164E+02  0.11310583166E+03  0.12175786182E+03  0.00000000000E+00 0. -1.
         11    1    1    2    0    0  0.21652051660E+02  0.32107834376E+02  0.48882158838E+02  0.62363369233E+02  0.00000000000E+00 0.  1.
<mgrwt>
<rscale>  0 0.11524037E+03</rscale>
<asrwt>0</asrwt>
<pdfrwt beam="1">  1        1 0.11613641E+00 0.12630771E+03</pdfrwt>
<pdfrwt beam="2">  1       -1 0.27571595E-02 0.12630771E+03</pdfrwt>
<totfact> 0.10272157E+04</totfact>
</mgrwt>
</event>
<event>
 6    1  0.1190675E-005  0.1274051E+03  0.7546771E-02  0.1245841E+00
          1   -1    0    0  501    0  0.00000000000E+00  0.00000000000E+00  0.55642608406E+03  0.55642608406E+03  0.00000000000E+00 0. -1.
         -1   -1    0    0    0  501 -0.00000000000E+00 -0.00000000000E+00 -0.28367807534E+02  0.28367807534E+02  0.00000000000E+00 0.  1.
          5    1    1    2  502    0  0.49743005710E+02  0.40544427654E+02  0.24112642767E+03  0.24956414276E+03  0.47000000000E+01 0.  1.
         -5    1    1    2    0  502 -0.29490438510E+02 -0.54768453853E+02  0.18835324213E+03  0.19841447357E+03  0.47000000000E+01 0.  1.
        -11    1    1    2    0    0 -0.42136526028E+00  0.19491229194E+02 -0.12956510054E+02  0.23408475323E+02  0.00000000000E+00 0.  1.
         11    1    1    2    0    0 -0.19831201940E+02 -0.52672029947E+01  0.11153511678E+03  0.11340679994E+03  0.00000000000E+00 0. -1.
<mgrwt>
<rscale>  0 0.11835169E+03</rscale>
<asrwt>0</asrwt>
<pdfrwt beam="1">  1        1 0.85604005E-01 0.12740508E+03</pdfrwt>
<pdfrwt beam="2">  1       -1 0.43642785E-02 0.12740508E+03</pdfrwt>
<totfact> 0.80397726E+03</totfact>
</mgrwt>
</event>
<event>
 6    1  0.1190675E-005  0.1278252E+03  0.7546771E-02  0.1245355E+00
          1   -1    0    0  501    0  0.00000000000E+00  0.00000000000E+00  0.74200791257E+03  0.74200791257E+03  0.00000000000E+00 0. -1.
         -1   -1    0    0    0  501 -0.00000000000E+00 -0.00000000000E+00 -0.17806583596E+02  0.17806583596E+02  0.00000000000E+00 0.  1.
          5    1    1    2  502    0 -0.43935906681E+02  0.15379873783E+02  0.79333541928E+02  0.92102145949E+02  0.47000000000E+01 0. -1.
         -5    1    1    2    0  502  0.32899222569E+02 -0.39728193980E+02  0.42644529704E+03  0.42957929374E+03  0.47000000000E+01 0. -1.
        -11    1    1    2    0    0  0.50729614310E+02  0.17303057697E+02  0.10770886834E+03  0.12030831182E+03  0.00000000000E+00 0.  1.
         11    1    1    2    0    0 -0.39692930197E+02  0.70452624995E+01  0.11071362166E+03  0.11782474465E+03  0.00000000000E+00 0. -1.
<mgrwt>
<rscale>  0 0.11864148E+03</rscale>
<asrwt>0</asrwt>
<pdfrwt beam="1">  1        1 0.11415504E+00 0.12782523E+03</pdfrwt>
<pdfrwt beam="2">  1       -1 0.27394750E-02 0.12782523E+03</pdfrwt>
<totfact> 0.10640991E+04</totfact>
</mgrwt>
</event>
<event>
 6    1  0.1190675E-005  0.1288489E+03  0.7546771E-02  0.1243177E+00
         -3   -1    0    0    0  501 -0.00000000000E+00  0.00000000000E+00  0.17788546147E+03  0.17788546147E+03  0.00000000000E+00 0.  1.
          3   -1    0    0  501    0  0.00000000000E+00 -0.00000000000E+00 -0.79828133170E+02  0.79828133170E+02  0.00000000000E+00 0. -1.
          5    1    1    2  502    0  0.18431299094E+02  0.14332705560E+02 -0.54825860821E+02  0.59775448554E+02  0.47000000000E+01 0.  1.
         -5    1    1    2    0  502  0.99008050339E+01 -0.11411042323E+01  0.68973205163E+02  0.69847842413E+02  0.47000000000E+01 0.  1.
        -11    1    1    2    0    0 -0.54828305970E+02  0.47769887198E+01  0.78114793866E+02  0.95555658008E+02  0.00000000000E+00 0.  1.
         11    1    1    2    0    0  0.26496201842E+02 -0.17968590048E+02  0.57951900926E+01  0.32534645665E+02  0.00000000000E+00 0. -1.
<mgrwt>
<rscale>  0 0.11995167E+03</rscale>
<asrwt>0</asrwt>
<pdfrwt beam="2">  1        3 0.12281251E-01 0.12884894E+03</pdfrwt>
<pdfrwt beam="1">  1       -3 0.27366994E-01 0.12884894E+03</pdfrwt>
<totfact> 0.15145914E+03</totfact>
</mgrwt>
</event>
<event>
 6    1  0.1190675E-005  0.1303414E+03  0.7546771E-02  0.1233771E+00
          3   -1    0    0  501    0  0.00000000000E+00  0.00000000000E+00  0.18016054662E+03  0.18016054662E+03  0.00000000000E+00 0. -1.
         -3   -1    0    0    0  501 -0.00000000000E+00 -0.00000000000E+00 -0.82374950697E+02  0.82374950697E+02  0.00000000000E+00 0.  1.
          5    1    1    2  502    0  0.51899123828E+02 -0.32475614819E+02  0.16031477594E+02  0.63460876813E+02  0.47000000000E+01 0.  1.
         -5    1    1    2    0  502 -0.67324919293E+02 -0.10853093725E+01  0.39597725952E+02  0.78255303686E+02  0.47000000000E+01 0.  1.
        -11    1    1    2    0    0  0.56015951121E+02  0.29066691617E+02  0.14009434604E+01  0.63123862241E+02  0.00000000000E+00 0.  1.
         11    1    1    2    0    0 -0.40590155656E+02  0.44942325744E+01  0.40755448914E+02  0.57695454577E+02  0.00000000000E+00 0. -1.
<mgrwt>
<rscale>  0 0.12583408E+03</rscale>
<asrwt>0</asrwt>
<pdfrwt beam="1">  1        3 0.27717007E-01 0.13034135E+03</pdfrwt>
<pdfrwt beam="2">  1       -3 0.12673069E-01 0.13034135E+03</pdfrwt>
<totfact> 0.14067219E+03</totfact>
</mgrwt>
</event>
<event>
 6    1  0.1190675E-005  0.4527962E+03  0.7546771E-02  0.1027466E+00
         -2   -1    0    0    0  501 -0.00000000000E+00  0.00000000000E+00  0.13250708670E+03  0.13250708670E+03  0.00000000000E+00 0.  1.
          2   -1    0    0  501    0  0.00000000000E+00 -0.00000000000E+00 -0.15217125713E+04  0.15217125713E+04  0.00000000000E+00 0. -1.
          5    1    1    2  502    0  0.21659165009E+03  0.59790185352E+02 -0.45168210560E+03  0.50450532571E+03  0.47000000000E+01 0.  1.
         -5    1    1    2    0  502  0.18615372906E+03  0.10511855493E+03 -0.23191565169E+03  0.31545218486E+03  0.47000000000E+01 0.  1.
        -11    1    1    2    0    0 -0.17946406906E+03 -0.48034086755E+02 -0.37553594942E+03  0.41897717704E+03  0.00000000000E+00 0. -1.
         11    1    1    2    0    0 -0.22328131009E+03 -0.11687465353E+03 -0.33007177793E+03  0.41528497042E+03  0.00000000000E+00 0.  1.
<mgrwt>
<rscale>  0 0.45085895E+03</rscale>
<asrwt>0</asrwt>
<pdfrwt beam="2">  1        2 0.23410962E+00 0.45279623E+03</pdfrwt>
<pdfrwt beam="1">  1       -2 0.20385707E-01 0.45279623E+03</pdfrwt>
<totfact> 0.26511224E+02</totfact>
</mgrwt>
</event>
<event>
 6    1  0.1190675E-005  0.1669965E+03  0.7546771E-02  0.1187927E+00
         -2   -1    0    0    0  501 -0.00000000000E+00  0.00000000000E+00  0.40398874432E+02  0.40398874432E+02  0.00000000000E+00 0.  1.
          2   -1    0    0  501    0  0.00000000000E+00 -0.00000000000E+00 -0.60848124297E+03  0.60848124297E+03  0.00000000000E+00 0. -1.
          5    1    1    2  502    0 -0.31397720424E+02  0.55168507654E+01 -0.37625941026E+01  0.32442250301E+02  0.47000000000E+01 0. -1.
         -5    1    1    2    0  502 -0.77982849843E+02  0.11547912007E+02 -0.34939106487E+03  0.35820508840E+03  0.47000000000E+01 0. -1.
        -11    1    1    2    0    0  0.11073187409E+03  0.14370461693E+02 -0.16597119388E+03  0.20003623498E+03  0.00000000000E+00 0.  1.
         11    1    1    2    0    0 -0.13513038199E+01 -0.31435224466E+02 -0.48957515689E+02  0.58196543726E+02  0.00000000000E+00 0. -1.
<mgrwt>
<rscale>  0 0.16068407E+03</rscale>
<asrwt>0</asrwt>
<pdfrwt beam="2">  1        2 0.93612501E-01 0.16699652E+03</pdfrwt>
<pdfrwt beam="1">  1       -2 0.62152113E-02 0.16699652E+03</pdfrwt>
<totfact> 0.67666999E+03</totfact>
</mgrwt>
</event>
<event>
 6    1  0.1190675E-005  0.1366738E+03  0.7546771E-02  0.1229227E+00
         -2   -1    0    0    0  501 -0.00000000000E+00  0.00000000000E+00  0.20170864930E+02  0.20170864930E+02  0.00000000000E+00 0.  1.
          2   -1    0    0  501    0  0.00000000000E+00 -0.00000000000E+00 -0.74308376427E+03  0.74308376427E+03  0.00000000000E+00 0. -1.
          5    1    1    2  502    0 -0.21645777495E+02  0.28151647350E+02 -0.20360387954E+02  0.41203037868E+02  0.47000000000E+01 0.  1.
         -5    1    1    2    0  502 -0.95349854179E+00  0.22300810140E+02 -0.40357573244E+03  0.40421986234E+03  0.47000000000E+01 0.  1.
        -11    1    1    2    0    0 -0.34732014885E+02 -0.31300378911E+02 -0.11345777471E+03  0.12271386727E+03  0.00000000000E+00 0. -1.
         11    1    1    2    0    0  0.57331290923E+02 -0.19152078579E+02 -0.18551900424E+03  0.19511786173E+03  0.00000000000E+00 0.  1.
<mgrwt>
<rscale>  0 0.12881336E+03</rscale>
<asrwt>0</asrwt>
<pdfrwt beam="2">  1        2 0.11432057E+00 0.13667379E+03</pdfrwt>
<pdfrwt beam="1">  1       -2 0.31032102E-02 0.13667379E+03</pdfrwt>
<totfact> 0.14938996E+04</totfact>
</mgrwt>
</event>
<event>
 6    1  0.1190675E-005  0.1311007E+03  0.7546771E-02  0.1239968E+00
          2   -1    0    0  501    0  0.00000000000E+00  0.00000000000E+00  0.45316094682E+03  0.45316094682E+03  0.00000000000E+00 0. -1.
         -2   -1    0    0    0  501 -0.00000000000E+00 -0.00000000000E+00 -0.34794215910E+02  0.34794215910E+02  0.00000000000E+00 0.  1.
          5    1    1    2  502    0 -0.72151327563E+02  0.11222041484E+02  0.11670587913E+03  0.13774650815E+03  0.47000000000E+01 0.  1.
         -5    1    1    2    0  502  0.34058936753E+02 -0.22050268392E+02  0.21656625654E+03  0.22038434377E+03  0.47000000000E+01 0.  1.
        -11    1    1    2    0    0  0.57837098737E+01 -0.21488561322E+02 -0.99411178460E+01  0.24372841271E+02  0.00000000000E+00 0.  1.
         11    1    1    2    0    0  0.32308680937E+02  0.32316788230E+02  0.95035713078E+02  0.10545146953E+03  0.00000000000E+00 0. -1.
<mgrwt>
<rscale>  0 0.12191653E+03</rscale>
<asrwt>0</asrwt>
<pdfrwt beam="1">  1        2 0.69717065E-01 0.13110069E+03</pdfrwt>
<pdfrwt beam="2">  1       -2 0.53529566E-02 0.13110069E+03</pdfrwt>
<totfact> 0.11600981E+04</totfact>
</mgrwt>
</event>
<event>
 6    1  0.1190675E-005  0.1251004E+03  0.7546771E-02  0.1248732E+00
         -1   -1    0    0    0  501 -0.00000000000E+00  0.00000000000E+00  0.18273307795E+03  0.18273307795E+03  0.00000000000E+00 0.  1.
          1   -1    0    0  501    0  0.00000000000E+00 -0.00000000000E+00 -0.66050167466E+02  0.66050167466E+02  0.00000000000E+00 0. -1.
          5    1    1    2  502    0  0.19206354499E+02 -0.12442773438E+02  0.95731928297E+02  0.98541355579E+02  0.47000000000E+01 0.  1.
         -5    1    1    2    0  502 -0.19908492140E+02  0.17286293371E+02 -0.32105841187E+02  0.41809556755E+02  0.47000000000E+01 0.  1.
        -11    1    1    2    0    0  0.32667004759E+02 -0.36409928781E+02  0.34331284080E+02  0.59761636359E+02  0.00000000000E+00 0.  1.
         11    1    1    2    0    0 -0.31964867119E+02  0.31566408848E+02  0.18725539293E+02  0.48670696721E+02  0.00000000000E+00 0. -1.
<mgrwt>
<rscale>  0 0.11664780E+03</rscale>
<asrwt>0</asrwt>
<pdfrwt beam="2">  1        1 0.10161564E-01 0.12510036E+03</pdfrwt>
<pdfrwt beam="1">  1       -1 0.28112781E-01 0.12510036E+03</pdfrwt>
<totfact> 0.67509691E+03</totfact>
</mgrwt>
</event>
<event>
 6    1  0.1190675E-005  0.1369606E+03  0.7546771E-02  0.1229594E+00
          2   -1    0    0  501    0  0.00000000000E+00  0.00000000000E+00  0.22400477517E+03  0.22400477517E+03  0.00000000000E+00 0. -1.
         -2   -1    0    0    0  501 -0.00000000000E+00 -0.00000000000E+00 -0.71035815479E+02  0.71035815479E+02  0.00000000000E+00 0.  1.
          5    1    1    2  502    0  0.39062771691E+02  0.27799967061E+02  0.78252560266E+01  0.48806382090E+02  0.47000000000E+01 0. -1.
         -5    1    1    2    0  502 -0.67351937881E+02  0.20502161464E+02  0.11630703033E+03  0.13603689744E+03  0.47000000000E+01 0. -1.
        -11    1    1    2    0    0  0.50429099545E+02 -0.29384377915E+02  0.47803916663E+02  0.75443688898E+02  0.00000000000E+00 0. -1.
         11    1    1    2    0    0 -0.22139933355E+02 -0.18917750611E+02 -0.18967243337E+02  0.34753622213E+02  0.00000000000E+00 0.  1.
<mgrwt>
<rscale>  0 0.12856973E+03</rscale>
<asrwt>0</asrwt>
<pdfrwt beam="1">  1        2 0.34462273E-01 0.13696063E+03</pdfrwt>
<pdfrwt beam="2">  1       -2 0.10928587E-01 0.13696063E+03</pdfrwt>
<totfact> 0.82058534E+03</totfact>
</mgrwt>
</event>
<event>
 6    1  0.1190675E-005  0.1926204E+03  0.7546771E-02  0.1173546E+00
          3   -1    0    0  501    0  0.00000000000E+00  0.00000000000E+00  0.62112840977E+02  0.62112840977E+02  0.00000000000E+00 0. -1.
         -3   -1    0    0    0  501 -0.00000000000E+00 -0.00000000000E+00 -0.42863451443E+03  0.42863451443E+03  0.00000000000E+00 0.  1.
          5    1    1    2  502    0 -0.53737715788E+02  0.10451203773E+03 -0.52293710363E+02  0.12871375323E+03  0.47000000000E+01 0. -1.
         -5    1    1    2    0  502  0.42887397309E+02 -0.15511198210E+02 -0.12475779887E+03  0.13291547877E+03  0.47000000000E+01 0.  1.
        -11    1    1    2    0    0 -0.10850572151E+02  0.12896075769E+02 -0.63243031840E+02  0.65450170072E+02  0.00000000000E+00 0. -1.
         11    1    1    2    0    0  0.21700890630E+02 -0.10189691529E+03 -0.12622713238E+03  0.16366795333E+03  0.00000000000E+00 0.  1.
<mgrwt>
<rscale>  0 0.17419180E+03</rscale>
<asrwt>0</asrwt>
<pdfrwt beam="1">  1        3 0.95558220E-02 0.19262040E+03</pdfrwt>
<pdfrwt beam="2">  1       -3 0.65943769E-01 0.19262040E+03</pdfrwt>
<totfact> 0.43694718E+02</totfact>
</mgrwt>
</event>
<event>
 6    1  0.1190675E-005  0.1660025E+03  0.7546771E-02  0.1188992E+00
          2   -1    0    0  501    0  0.00000000000E+00  0.00000000000E+00  0.11579454590E+04  0.11579454590E+04  0.00000000000E+00 0. -1.
         -2   -1    0    0    0  501 -0.00000000000E+00 -0.00000000000E+00 -0.20525702174E+02  0.20525702174E+02  0.00000000000E+00 0.  1.
          5    1    1    2  502    0  0.20097956889E+02  0.31543687524E+02  0.31956085734E+02  0.49418756653E+02  0.47000000000E+01 0. -1.
         -5    1    1    2    0  502  0.11007457781E+02  0.73165934298E+02  0.57754341252E+03  0.58228249279E+03  0.47000000000E+01 0. -1.
        -11    1    1    2    0    0  0.21082663459E+02 -0.21750753267E+02  0.46653374467E+02  0.55624736542E+02  0.00000000000E+00 0.  1.
         11    1    1    2    0    0 -0.52188078129E+02 -0.82958868555E+02  0.48126688408E+03  0.49114517516E+03  0.00000000000E+00 0. -1.
<mgrwt>
<rscale>  0 0.15973839E+03</rscale>
<asrwt>0</asrwt>
<pdfrwt beam="1">  1        2 0.17814540E+00 0.16600250E+03</pdfrwt>
<pdfrwt beam="2">  1       -2 0.31578012E-02 0.16600250E+03</pdfrwt>
<totfact> 0.81227695E+03</totfact>
</mgrwt>
</event>
<event>
 6    1  0.1190675E-005  0.1409042E+03  0.7546771E-02  0.1222253E+00
          2   -1    0    0  501    0  0.00000000000E+00  0.00000000000E+00  0.17361057829E+04  0.17361057829E+04  0.00000000000E+00 0. -1.
         -2   -1    0    0    0  501 -0.00000000000E+00 -0.00000000000E+00 -0.10661725046E+02  0.10661725046E+02  0.00000000000E+00 0.  1.
          5    1    1    2  502    0 -0.44141585508E+02  0.66864285387E+01  0.82500630517E+03  0.82622677363E+03  0.47000000000E+01 0. -1.
         -5    1    1    2    0  502  0.28739017690E+02 -0.69868944829E+02  0.42415057439E+03  0.43085194713E+03  0.47000000000E+01 0. -1.
        -11    1    1    2    0    0 -0.21745327879E+02 -0.10272044575E+02  0.49459938163E+02  0.54996905980E+02  0.00000000000E+00 0.  1.
         11    1    1    2    0    0  0.37147895697E+02  0.73454560865E+02  0.42682724010E+03  0.43469188118E+03  0.00000000000E+00 0. -1.
<mgrwt>
<rscale>  0 0.13356984E+03</rscale>
<asrwt>0</asrwt>
<pdfrwt beam="1">  1        2 0.26709297E+00 0.14090422E+03</pdfrwt>
<pdfrwt beam="2">  1       -2 0.16402668E-02 0.14090422E+03</pdfrwt>
<totfact> 0.10367198E+04</totfact>
</mgrwt>
</event>
<event>
 6    1  0.1190675E-005  0.1376846E+03  0.7546771E-02  0.1228202E+00
         -1   -1    0    0    0  501 -0.00000000000E+00  0.00000000000E+00  0.12607470906E+03  0.12607470906E+03  0.00000000000E+00 0.  1.
          1   -1    0    0  501    0  0.00000000000E+00 -0.00000000000E+00 -0.11965184334E+03  0.11965184334E+03  0.00000000000E+00 0. -1.
          5    1    1    2  502    0 -0.31907807005E+02  0.76553013740E+01 -0.31473669686E+02  0.45709885916E+02  0.47000000000E+01 0.  1.
         -5    1    1    2    0  502  0.78673293760E+02  0.26191451019E+02  0.40151010820E+02  0.92247888471E+02  0.47000000000E+01 0.  1.
        -11    1    1    2    0    0 -0.52747054711E+02 -0.82428215692E+01  0.33768620738E+02  0.63170528213E+02  0.00000000000E+00 0.  1.
         11    1    1    2    0    0  0.59815679557E+01 -0.25603930824E+02 -0.36023096149E+02  0.44598249798E+02  0.00000000000E+00 0. -1.
<mgrwt>
<rscale>  0 0.12949814E+03</rscale>
<asrwt>0</asrwt>
<pdfrwt beam="2">  1        1 0.18407976E-01 0.13768461E+03</pdfrwt>
<pdfrwt beam="1">  1       -1 0.19396109E-01 0.13768461E+03</pdfrwt>
<totfact> 0.57481775E+03</totfact>
</mgrwt>
</event>
<event>
 6    1  0.1190675E-005  0.1436930E+03  0.7546771E-02  0.1218982E+00
          2   -1    0    0  501    0  0.00000000000E+00  0.00000000000E+00  0.50514433041E+02  0.50514433041E+02  0.00000000000E+00 0. -1.
         -2   -1    0    0    0  501 -0.00000000000E+00 -0.00000000000E+00 -0.41279581522E+03  0.41279581522E+03  0.00000000000E+00 0.  1.
          5    1    1    2  502    0 -0.86631010358E+02 -0.57819605488E+02 -0.60527206107E+02  0.12055567765E+03  0.47000000000E+01 0.  1.
         -5    1    1    2    0  502  0.20502059596E+02  0.32344093494E+02 -0.34145523455E+02  0.51521661499E+02  0.47000000000E+01 0.  1.
        -11    1    1    2    0    0 -0.17514195793E+01  0.31734141151E+02 -0.16507463126E+03  0.16810638617E+03  0.00000000000E+00 0.  1.
         11    1    1    2    0    0  0.67880370341E+02 -0.62586291568E+01 -0.10253402136E+03  0.12312652294E+03  0.00000000000E+00 0. -1.
<mgrwt>
<rscale>  0 0.13588065E+03</rscale>
<asrwt>0</asrwt>
<pdfrwt beam="1">  1        2 0.77714509E-02 0.14369302E+03</pdfrwt>
<pdfrwt beam="2">  1       -2 0.63507051E-01 0.14369302E+03</pdfrwt>
<totfact> 0.20041563E+03</totfact>
</mgrwt>
</event>
<event>
 6    1  0.1190675E-005  0.3442071E+03  0.7546771E-02  0.1065018E+00
          4   -1    0    0  501    0  0.00000000000E+00  0.00000000000E+00  0.57242195061E+02  0.57242195061E+02  0.00000000000E+00 0.  1.
         -4   -1    0    0    0  501 -0.00000000000E+00 -0.00000000000E+00 -0.51744387837E+03  0.51744387837E+03  0.00000000000E+00 0. -1.
          5    1    1    2  502    0 -0.14157446639E+03 -0.50310964806E+02 -0.21173863334E+03  0.25967260457E+03  0.47000000000E+01 0.  1.
         -5    1    1    2    0  502  0.12633944689E+02  0.26213764900E+02 -0.61299516895E+02  0.68018371049E+02  0.47000000000E+01 0.  1.
        -11    1    1    2    0    0  0.64175195661E+02 -0.19527957409E+02 -0.34299191212E+02  0.75340768357E+02  0.00000000000E+00 0.  1.
         11    1    1    2    0    0  0.64765326045E+02  0.43625157315E+02 -0.15286434187E+03  0.17165432946E+03  0.00000000000E+00 0. -1.
<mgrwt>
<rscale>  0 0.34420705E+03</rscale>
<asrwt>0</asrwt>
<pdfrwt beam="1">  1        4 0.88064913E-02 0.34420705E+03</pdfrwt>
<pdfrwt beam="2">  1       -4 0.79606753E-01 0.34420705E+03</pdfrwt>
<totfact> 0.25883525E+02</totfact>
</mgrwt>
</event>
<event>
 6    1  0.1190675E-005  0.1646035E+03  0.7546771E-02  0.1190765E+00
         -3   -1    0    0    0  501 -0.00000000000E+00  0.00000000000E+00  0.39467431794E+03  0.39467431794E+03  0.00000000000E+00 0.  1.
          3   -1    0    0  501    0  0.00000000000E+00 -0.00000000000E+00 -0.66868695474E+02  0.66868695474E+02  0.00000000000E+00 0. -1.
          5    1    1    2  502    0 -0.20386903675E+01  0.26461943419E+02 -0.27387393904E+02  0.38425903409E+02  0.47000000000E+01 0. -1.
         -5    1    1    2    0  502  0.66099649398E+02  0.59366458042E+02  0.12341378378E+03  0.15214004081E+03  0.47000000000E+01 0. -1.
        -11    1    1    2    0    0  0.21812492577E+02 -0.48896735572E+01  0.38694790816E+02  0.44687588615E+02  0.00000000000E+00 0.  1.
         11    1    1    2    0    0 -0.85873451608E+02 -0.80938727904E+02  0.19308444177E+03  0.22628948058E+03  0.00000000000E+00 0. -1.
<mgrwt>
<rscale>  0 0.15818189E+03</rscale>
<asrwt>0</asrwt>
<pdfrwt beam="2">  1        3 0.10287492E-01 0.16460350E+03</pdfrwt>
<pdfrwt beam="1">  1       -3 0.60719124E-01 0.16460350E+03</pdfrwt>
<totfact> 0.45032538E+02</totfact>
</mgrwt>
</event>
<event>
 6    1  0.1190675E-005  0.1355368E+03  0.7546771E-02  0.1232510E+00
         -2   -1    0    0    0  501 -0.00000000000E+00  0.00000000000E+00  0.24345414438E+02  0.24345414438E+02  0.00000000000E+00 0.  1.
          2   -1    0    0  501    0  0.00000000000E+00 -0.00000000000E+00 -0.61657425925E+03  0.61657425925E+03  0.00000000000E+00 0. -1.
          5    1    1    2  502    0 -0.43876398124E+02  0.19576534617E+02 -0.16339958671E+03  0.17038161273E+03  0.47000000000E+01 0.  1.
         -5    1    1    2    0  502  0.48486877060E+02 -0.71751899421E+02 -0.24142453923E+03  0.25652916103E+03  0.47000000000E+01 0.  1.
        -11    1    1    2    0    0  0.36206054423E+02  0.48484234647E+02 -0.91318704563E+02  0.10954773019E+03  0.00000000000E+00 0.  1.
         11    1    1    2    0    0 -0.40816533358E+02  0.36911301571E+01 -0.96086014318E+02  0.10446116975E+03  0.00000000000E+00 0. -1.
<mgrwt>
<rscale>  0 0.12665163E+03</rscale>
<asrwt>0</asrwt>
<pdfrwt beam="2">  1        2 0.94857576E-01 0.13553684E+03</pdfrwt>
<pdfrwt beam="1">  1       -2 0.37454485E-02 0.13553684E+03</pdfrwt>
<totfact> 0.14085132E+04</totfact>
</mgrwt>
</event>
<event>
 6    1  0.1190675E-005  0.1330164E+03  0.7546771E-02  0.1235787E+00
          3   -1    0    0  501    0  0.00000000000E+00  0.00000000000E+00  0.12777705551E+03  0.12777705551E+03  0.00000000000E+00 0. -1.
         -3   -1    0    0    0  501 -0.00000000000E+00 -0.00000000000E+00 -0.10860591221E+03  0.10860591221E+03  0.00000000000E+00 0.  1.
          5    1    1    2  502    0  0.33381111950E+02  0.21313583892E+02 -0.57373838552E+02  0.69874278841E+02  0.47000000000E+01 0. -1.
         -5    1    1    2    0  502 -0.31749350685E+01  0.12591841417E+02  0.61684955370E+02  0.63212011532E+02  0.47000000000E+01 0. -1.
        -11    1    1    2    0    0  0.12873406767E+02 -0.15566441881E+02 -0.31491448970E+02  0.37413233927E+02  0.00000000000E+00 0.  1.
         11    1    1    2    0    0 -0.43079583648E+02 -0.18338983429E+02  0.46351475449E+02  0.65883443420E+02  0.00000000000E+00 0. -1.
<mgrwt>
<rscale>  0 0.12454186E+03</rscale>
<asrwt>0</asrwt>
<pdfrwt beam="1">  1        3 0.19658009E-01 0.13301645E+03</pdfrwt>
<pdfrwt beam="2">  1       -3 0.16708602E-01 0.13301645E+03</pdfrwt>
<totfact> 0.16304820E+03</totfact>
</mgrwt>
</event>
<event>
 6    1  0.1190675E-005  0.2354659E+03  0.7546771E-02  0.1125941E+00
          1   -1    0    0  501    0  0.00000000000E+00  0.00000000000E+00  0.15347379608E+04  0.15347379608E+04  0.00000000000E+00 0. -1.
         -1   -1    0    0    0  501 -0.00000000000E+00 -0.00000000000E+00 -0.53760834411E+02  0.53760834411E+02  0.00000000000E+00 0.  1.
          5    1    1    2  502    0  0.32234790931E+01  0.81052971007E+02  0.83496262093E+03  0.83890681442E+03  0.47000000000E+01 0.  1.
         -5    1    1    2    0  502  0.57214214195E+02  0.10912244486E+03  0.41047161457E+03  0.42859095959E+03  0.47000000000E+01 0.  1.
        -11    1    1    2    0    0 -0.80350325640E+02 -0.11482919858E+03  0.15211972905E+03  0.20683890263E+03  0.00000000000E+00 0.  1.
         11    1    1    2    0    0  0.19912632351E+02 -0.75346217285E+02  0.83423161878E+02  0.11416211860E+03  0.00000000000E+00 0. -1.
<mgrwt>
<rscale>  0 0.23099499E+03</rscale>
<asrwt>0</asrwt>
<pdfrwt beam="1">  1        1 0.23611350E+00 0.23546586E+03</pdfrwt>
<pdfrwt beam="2">  1       -1 0.82708988E-02 0.23546586E+03</pdfrwt>
<totfact> 0.55853103E+02</totfact>
</mgrwt>
</event>
<event>
 6    1  0.1190675E-005  0.1310121E+03  0.7546771E-02  0.1241381E+00
          2   -1    0    0  501    0  0.00000000000E+00  0.00000000000E+00  0.55678932191E+03  0.55678932191E+03  0.00000000000E+00 0.  1.
         -2   -1    0    0    0  501 -0.00000000000E+00 -0.00000000000E+00 -0.29743744257E+02  0.29743744257E+02  0.00000000000E+00 0. -1.
          5    1    1    2  502    0  0.73909046114E+02  0.79084109011E+01  0.15414508776E+03  0.17119546764E+03  0.47000000000E+01 0. -1.
         -5    1    1    2    0  502 -0.34705067771E+02 -0.84475356870E+01  0.27937981974E+03  0.28169305328E+03  0.47000000000E+01 0. -1.
        -11    1    1    2    0    0 -0.43655971287E+02 -0.30180012126E+02  0.87025944156E+02  0.10193229085E+03  0.00000000000E+00 0.  1.
         11    1    1    2    0    0  0.44519929437E+01  0.30719136911E+02  0.64947260051E+01  0.31712254408E+02  0.00000000000E+00 0. -1.
<mgrwt>
<rscale>  0 0.12104633E+03</rscale>
<asrwt>0</asrwt>
<pdfrwt beam="1">  1        2 0.85659888E-01 0.13101209E+03</pdfrwt>
<pdfrwt beam="2">  1       -2 0.45759611E-02 0.13101209E+03</pdfrwt>
<totfact> 0.11705519E+04</totfact>
</mgrwt>
</event>
<event>
 6    1  0.1190675E-005  0.1537013E+03  0.7546771E-02  0.1218429E+00
          1   -1    0    0  501    0  0.00000000000E+00  0.00000000000E+00  0.50677154049E+03  0.50677154049E+03  0.00000000000E+00 0. -1.
         -1   -1    0    0    0  501 -0.00000000000E+00 -0.00000000000E+00 -0.83094787603E+02  0.83094787603E+02  0.00000000000E+00 0.  1.
          5    1    1    2  502    0 -0.45743249587E+01 -0.61272734607E+02  0.42666154633E+03  0.43108866555E+03  0.47000000000E+01 0. -1.
         -5    1    1    2    0  502  0.12302980901E+02  0.41312678171E+02  0.35750308639E+02  0.56198534540E+02  0.47000000000E+01 0.  1.
        -11    1    1    2    0    0 -0.21481505494E+02 -0.22949687546E+02  0.12960737238E+02  0.34001822694E+02  0.00000000000E+00 0.  1.
         11    1    1    2    0    0  0.13752849552E+02  0.42909743983E+02 -0.51695839320E+02  0.68577305302E+02  0.00000000000E+00 0. -1.
<mgrwt>
<rscale>  0 0.13627665E+03</rscale>
<asrwt>0</asrwt>
<pdfrwt beam="1">  1        1 0.77964850E-01 0.15370131E+03</pdfrwt>
<pdfrwt beam="2">  1       -1 0.12783814E-01 0.15370131E+03</pdfrwt>
<totfact> 0.18155399E+03</totfact>
</mgrwt>
</event>
<event>
 6    1  0.1190675E-005  0.1995258E+03  0.7546771E-02  0.1156381E+00
          1   -1    0    0  501    0  0.00000000000E+00  0.00000000000E+00  0.76777066359E+02  0.76777066359E+02  0.00000000000E+00 0. -1.
         -1   -1    0    0    0  501 -0.00000000000E+00 -0.00000000000E+00 -0.46787701280E+03  0.46787701280E+03  0.00000000000E+00 0.  1.
          5    1    1    2  502    0  0.16379462347E+02  0.20156563803E+02 -0.10250712466E+03  0.10585071779E+03  0.47000000000E+01 0.  1.
         -5    1    1    2    0  502 -0.13250735565E+03  0.83283268897E+02 -0.15987317553E+03  0.22377628211E+03  0.47000000000E+01 0.  1.
        -11    1    1    2    0    0  0.64550057152E+01 -0.44912915724E+02 -0.51706559796E+02  0.68792480864E+02  0.00000000000E+00 0.  1.
         11    1    1    2    0    0  0.10967288759E+03 -0.58526916976E+02 -0.77013086462E+02  0.14623459840E+03  0.00000000000E+00 0. -1.
<mgrwt>
<rscale>  0 0.19232472E+03</rscale>
<asrwt>0</asrwt>
<pdfrwt beam="1">  1        1 0.11811857E-01 0.19952578E+03</pdfrwt>
<pdfrwt beam="2">  1       -1 0.71981078E-01 0.19952578E+03</pdfrwt>
<totfact> 0.10326149E+03</totfact>
</mgrwt>
</event>
<event>
 6    1  0.1190675E-005  0.1310892E+03  0.7546771E-02  0.1232373E+00
         -2   -1    0    0    0  501 -0.00000000000E+00  0.00000000000E+00  0.16045089242E+02  0.16045089242E+02  0.00000000000E+00 0.  1.
          2   -1    0    0  501    0  0.00000000000E+00 -0.00000000000E+00 -0.95335031060E+03  0.95335031060E+03  0.00000000000E+00 0. -1.
          5    1    1    2  502    0  0.48763389520E+02  0.16909122392E+02 -0.17303111763E+03  0.18062570207E+03  0.47000000000E+01 0. -1.
         -5    1    1    2    0  502 -0.54399181639E+02  0.54147747050E+02 -0.38379608891E+03  0.39142403776E+03  0.47000000000E+01 0.  1.
        -11    1    1    2    0    0 -0.96519689967E+01  0.55650624448E+01 -0.25550035431E+01  0.11430593538E+02  0.00000000000E+00 0.  1.
         11    1    1    2    0    0  0.15287761116E+02 -0.76621931887E+02 -0.37792301127E+03  0.38591506648E+03  0.00000000000E+00 0. -1.
<mgrwt>
<rscale>  0 0.12674097E+03</rscale>
<asrwt>0</asrwt>
<pdfrwt beam="2">  1        2 0.14666935E+00 0.13108916E+03</pdfrwt>
<pdfrwt beam="1">  1       -2 0.24684741E-02 0.13108916E+03</pdfrwt>
<totfact> 0.15175727E+04</totfact>
</mgrwt>
</event>
<event>
 6    1  0.1190675E-005  0.1373859E+03  0.7546771E-02  0.1230432E+00
          1   -1    0    0  501    0  0.00000000000E+00  0.00000000000E+00  0.61010957119E+03  0.61010957119E+03  0.00000000000E+00 0. -1.
         -1   -1    0    0    0  501 -0.00000000000E+00 -0.00000000000E+00 -0.24222519681E+02  0.24222519681E+02  0.00000000000E+00 0.  1.
          5    1    1    2  502    0  0.28567045767E+02 -0.43740914678E+02  0.19542027985E+03  0.20233763737E+03  0.47000000000E+01 0. -1.
         -5    1    1    2    0  502  0.15927964099E+02  0.79386370828E+02  0.17989204651E+03  0.19733001371E+03  0.47000000000E+01 0. -1.
        -11    1    1    2    0    0 -0.47124892433E+02  0.50819291776E+01  0.49636585198E+02  0.68632150491E+02  0.00000000000E+00 0.  1.
         11    1    1    2    0    0  0.26298825677E+01 -0.40727385327E+02  0.16093813995E+03  0.16603228930E+03  0.00000000000E+00 0. -1.
<mgrwt>
<rscale>  0 0.12801468E+03</rscale>
<asrwt>0</asrwt>
<pdfrwt beam="1">  1        1 0.93862999E-01 0.13738591E+03</pdfrwt>
<pdfrwt beam="2">  1       -1 0.37265420E-02 0.13738591E+03</pdfrwt>
<totfact> 0.89962145E+03</totfact>
</mgrwt>
</event>
<event>
 6    1  0.1190675E-005  0.3012127E+03  0.7546771E-02  0.1084636E+00
         -2   -1    0    0    0  501 -0.00000000000E+00  0.00000000000E+00  0.13637671970E+02  0.13637671970E+02  0.00000000000E+00 0.  1.
          2   -1    0    0  501    0  0.00000000000E+00 -0.00000000000E+00 -0.16632070970E+04  0.16632070970E+04  0.00000000000E+00 0. -1.
          5    1    1    2  502    0  0.20087431027E+02  0.26469473824E+02 -0.46321365903E+03  0.46442773587E+03  0.47000000000E+01 0.  1.
         -5    1    1    2    0  502 -0.90515371852E+02 -0.60381653928E+02 -0.80824471385E+03  0.81554925305E+03  0.47000000000E+01 0.  1.
        -11    1    1    2    0    0  0.44090597779E+02 -0.21470360586E+02 -0.91959898984E+02  0.10421890528E+03  0.00000000000E+00 0.  1.
         11    1    1    2    0    0  0.26337343046E+02  0.55382540691E+02 -0.28615115311E+03  0.29264887473E+03  0.00000000000E+00 0. -1.
<mgrwt>
<rscale>  0 0.30121270E+03</rscale>
<asrwt>0</asrwt>
<pdfrwt beam="2">  1        2 0.25587785E+00 0.30121270E+03</pdfrwt>
<pdfrwt beam="1">  1       -2 0.20981047E-02 0.30121270E+03</pdfrwt>
<totfact> 0.80592036E+03</totfact>
</mgrwt>
</event>
<event>
 6    1  0.1190675E-005  0.1282474E+03  0.7546771E-02  0.1247581E+00
          1   -1    0    0  501    0  0.00000000000E+00  0.00000000000E+00  0.94910960453E+02  0.94910960453E+02  0.00000000000E+00 0. -1.
         -1   -1    0    0    0  501 -0.00000000000E+00 -0.00000000000E+00 -0.13205913947E+03  0.13205913947E+03  0.00000000000E+00 0.  1.
          5    1    1    2  502    0 -0.42689279227E+02 -0.23900625558E+02  0.17422049310E+02  0.52146258400E+02  0.47000000000E+01 0.  1.
         -5    1    1    2    0  502  0.56415457923E+02  0.49052669546E+02 -0.13729960613E+02  0.76154252020E+02  0.47000000000E+01 0.  1.
        -11    1    1    2    0    0  0.33769588329E+02  0.27504798186E+01 -0.22240202285E+02  0.40528716151E+02  0.00000000000E+00 0.  1.
         11    1    1    2    0    0 -0.47495767025E+02 -0.27902523806E+02 -0.18600065429E+02  0.58140873352E+02  0.00000000000E+00 0. -1.
<mgrwt>
<rscale>  0 0.11732228E+03</rscale>
<asrwt>0</asrwt>
<pdfrwt beam="1">  1        1 0.14601686E-01 0.12824738E+03</pdfrwt>
<pdfrwt beam="2">  1       -1 0.20316791E-01 0.12824738E+03</pdfrwt>
<totfact> 0.71528971E+03</totfact>
</mgrwt>
</event>
<event>
 6    1  0.1190675E-005  0.3873813E+03  0.7546771E-02  0.1048239E+00
         -1   -1    0    0    0  501 -0.00000000000E+00  0.00000000000E+00  0.40545518088E+03  0.40545518088E+03  0.00000000000E+00 0.  1.
          1   -1    0    0  501    0  0.00000000000E+00 -0.00000000000E+00 -0.92528283883E+02  0.92528283883E+02  0.00000000000E+00 0. -1.
          5    1    1    2  502    0  0.15363192770E+02  0.52291916932E+01 -0.68808686701E+01  0.18243039536E+02  0.47000000000E+01 0.  1.
         -5    1    1    2    0  502 -0.12003356172E+03 -0.10507323680E+03  0.16866554232E+03  0.23220378162E+03  0.47000000000E+01 0.  1.
        -11    1    1    2    0    0  0.88822181509E+02  0.52619564361E+01  0.31919233981E+02  0.94529919134E+02  0.00000000000E+00 0. -1.
         11    1    1    2    0    0  0.15848187444E+02  0.94582088668E+02  0.11922298936E+03  0.15300672448E+03  0.00000000000E+00 0.  1.
<mgrwt>
<rscale>  0 0.38738132E+03</rscale>
<asrwt>0</asrwt>
<pdfrwt beam="2">  1        1 0.14235121E-01 0.38738132E+03</pdfrwt>
<pdfrwt beam="1">  1       -1 0.62377719E-01 0.38738132E+03</pdfrwt>
<totfact> 0.10804554E+03</totfact>
</mgrwt>
</event>
<event>
 6    1  0.1190675E-005  0.1918857E+03  0.7546771E-02  0.1161658E+00
         -2   -1    0    0    0  501 -0.00000000000E+00  0.00000000000E+00  0.21851034427E+03  0.21851034427E+03  0.00000000000E+00 0.  1.
          2   -1    0    0  501    0  0.00000000000E+00 -0.00000000000E+00 -0.15272428288E+03  0.15272428288E+03  0.00000000000E+00 0. -1.
          5    1    1    2  502    0  0.37070400571E+02 -0.32250445555E+02  0.26986850942E+02  0.56255541600E+02  0.47000000000E+01 0.  1.
         -5    1    1    2    0  502  0.92527130120E+02  0.98954503724E+02 -0.12771433597E+02  0.13615602496E+03  0.47000000000E+01 0.  1.
        -11    1    1    2    0    0 -0.11213950552E+02  0.12449526189E+02  0.30589822110E+02  0.34878082029E+02  0.00000000000E+00 0.  1.
         11    1    1    2    0    0 -0.11838358014E+03 -0.79153584357E+02  0.20980821935E+02  0.14394497856E+03  0.00000000000E+00 0. -1.
<mgrwt>
<rscale>  0 0.18649796E+03</rscale>
<asrwt>0</asrwt>
<pdfrwt beam="2">  1        2 0.23496044E-01 0.19188573E+03</pdfrwt>
<pdfrwt beam="1">  1       -2 0.33616976E-01 0.19188573E+03</pdfrwt>
<totfact> 0.18860362E+03</totfact>
</mgrwt>
</event>
<event>
 6    1  0.1190675E-005  0.1378749E+03  0.7546771E-02  0.1228289E+00
          4   -1    0    0  501    0  0.00000000000E+00  0.00000000000E+00  0.35513913380E+02  0.35513913380E+02  0.00000000000E+00 0. -1.
         -4   -1    0    0    0  501 -0.00000000000E+00 -0.00000000000E+00 -0.42350390713E+03  0.42350390713E+03  0.00000000000E+00 0.  1.
          5    1    1    2  502    0  0.82191612049E+02 -0.28257784521E+02 -0.21918629789E+03  0.23583614367E+03  0.47000000000E+01 0. -1.
         -5    1    1    2    0  502 -0.25422329796E+02  0.15566909323E+02 -0.10308470221E+02  0.31890093704E+02  0.47000000000E+01 0. -1.
        -11    1    1    2    0    0 -0.44626453291E+02  0.50360386268E+02 -0.10588295460E+03  0.12545472854E+03  0.00000000000E+00 0. -1.
         11    1    1    2    0    0 -0.12142828962E+02 -0.37669511071E+02 -0.52612271042E+02  0.65836854601E+02  0.00000000000E+00 0.  1.
<mgrwt>
<rscale>  0 0.12943972E+03</rscale>
<asrwt>0</asrwt>
<pdfrwt beam="1">  1        4 0.54636788E-02 0.13787491E+03</pdfrwt>
<pdfrwt beam="2">  1       -4 0.65154449E-01 0.13787491E+03</pdfrwt>
<totfact> 0.76480269E+02</totfact>
</mgrwt>
</event>
<event>
 6    1  0.1190675E-005  0.1833770E+03  0.7546771E-02  0.1170415E+00
          1   -1    0    0  501    0  0.00000000000E+00  0.00000000000E+00  0.56182609471E+03  0.56182609471E+03  0.00000000000E+00 0. -1.
         -1   -1    0    0    0  501 -0.00000000000E+00 -0.00000000000E+00 -0.77315702263E+02  0.77315702263E+02  0.00000000000E+00 0.  1.
          5    1    1    2  502    0  0.15998061923E+02 -0.15483431718E+03  0.40993013169E+03  0.43851386138E+03  0.47000000000E+01 0.  1.
         -5    1    1    2    0  502 -0.15053799766E+01  0.21424674278E+02  0.23866750032E+02  0.32449878180E+02  0.47000000000E+01 0.  1.
        -11    1    1    2    0    0  0.42127035013E+01  0.11956468560E+03  0.69419388674E+02  0.13832032546E+03  0.00000000000E+00 0. -1.
         11    1    1    2    0    0 -0.18705385448E+02  0.13844957305E+02 -0.18705877942E+02  0.29857731948E+02  0.00000000000E+00 0.  1.
<mgrwt>
<rscale>  0 0.17732728E+03</rscale>
<asrwt>0</asrwt>
<pdfrwt beam="1">  1        1 0.86434781E-01 0.18337696E+03</pdfrwt>
<pdfrwt beam="2">  1       -1 0.11894724E-01 0.18337696E+03</pdfrwt>
<totfact> 0.17766849E+03</totfact>
</mgrwt>
</event>
<event>
 6    1  0.1190675E-005  0.1283888E+03  0.7546771E-02  0.1246942E+00
         -1   -1    0    0    0  501 -0.00000000000E+00  0.00000000000E+00  0.28295365377E+02  0.28295365377E+02  0.00000000000E+00 0.  1.
          1   -1    0    0  501    0  0.00000000000E+00 -0.00000000000E+00 -0.62707038768E+03  0.62707038768E+03  0.00000000000E+00 0. -1.
          5    1    1    2  502    0 -0.50044608728E+02  0.28764938474E+02 -0.36062670503E+03  0.36524730653E+03  0.47000000000E+01 0. -1.
         -5    1    1    2    0  502  0.59897745639E+02 -0.11449370387E+01 -0.15819598140E+03  0.16922502576E+03  0.47000000000E+01 0. -1.
        -11    1    1    2    0    0 -0.59661392611E+01  0.81309535860E+01  0.15724917254E+02  0.18681012995E+02  0.00000000000E+00 0.  1.
         11    1    1    2    0    0 -0.38869976498E+01 -0.35750955021E+02 -0.95677253130E+02  0.10221240777E+03  0.00000000000E+00 0. -1.
<mgrwt>
<rscale>  0 0.11769912E+03</rscale>
<asrwt>0</asrwt>
<pdfrwt beam="2">  1        1 0.96472368E-01 0.12838884E+03</pdfrwt>
<pdfrwt beam="1">  1       -1 0.43531331E-02 0.12838884E+03</pdfrwt>
<totfact> 0.68684806E+03</totfact>
</mgrwt>
</event>
<event>
 6    1  0.1190675E-005  0.4453682E+03  0.7546771E-02  0.1029112E+00
          2   -1    0    0  501    0  0.00000000000E+00  0.00000000000E+00  0.47405845758E+03  0.47405845758E+03  0.00000000000E+00 0. -1.
         -2   -1    0    0    0  501 -0.00000000000E+00 -0.00000000000E+00 -0.10460358047E+03  0.10460358047E+03  0.00000000000E+00 0.  1.
          5    1    1    2  502    0 -0.47070443469E+02  0.26400751137E+02  0.42371273148E+02  0.68775294235E+02  0.47000000000E+01 0.  1.
         -5    1    1    2    0  502 -0.97053561675E+02 -0.96649288596E+02  0.29175766718E+03  0.32234314818E+03  0.47000000000E+01 0.  1.
        -11    1    1    2    0    0  0.69547463255E+02  0.34514714009E+02  0.63373169577E+02  0.10022112427E+03  0.00000000000E+00 0. -1.
         11    1    1    2    0    0  0.74576541889E+02  0.35733823449E+02 -0.28047232797E+02  0.87322471369E+02  0.00000000000E+00 0.  1.
<mgrwt>
<rscale>  0 0.44536822E+03</rscale>
<asrwt>0</asrwt>
<pdfrwt beam="1">  1        2 0.72932069E-01 0.44536822E+03</pdfrwt>
<pdfrwt beam="2">  1       -2 0.16092859E-01 0.44536822E+03</pdfrwt>
<totfact> 0.20242836E+03</totfact>
</mgrwt>
</event>
<event>
 6    1  0.1190675E-005  0.1528825E+03  0.7546771E-02  0.1205376E+00
         -1   -1    0    0    0  501 -0.00000000000E+00  0.00000000000E+00  0.14248095961E+03  0.14248095961E+03  0.00000000000E+00 0.  1.
          1   -1    0    0  501    0  0.00000000000E+00 -0.00000000000E+00 -0.13789078577E+03  0.13789078577E+03  0.00000000000E+00 0. -1.
          5    1    1    2  502    0  0.98800259701E+02 -0.38926819213E+02  0.53754667829E+01  0.10643201687E+03  0.47000000000E+01 0. -1.
         -5    1    1    2    0  502 -0.38680467579E+02 -0.25366738612E+02 -0.11523862392E+01  0.46508794803E+02  0.47000000000E+01 0. -1.
        -11    1    1    2    0    0 -0.37084348354E+02  0.74975483173E+02  0.29583229156E+02  0.88722823541E+02  0.00000000000E+00 0.  1.
         11    1    1    2    0    0 -0.23035443768E+02 -0.10681925348E+02 -0.29216135857E+02  0.38708110173E+02  0.00000000000E+00 0. -1.
<mgrwt>
<rscale>  0 0.14607860E+03</rscale>
<asrwt>0</asrwt>
<pdfrwt beam="2">  1        1 0.21213967E-01 0.15288250E+03</pdfrwt>
<pdfrwt beam="1">  1       -1 0.21920148E-01 0.15288250E+03</pdfrwt>
<totfact> 0.39629329E+03</totfact>
</mgrwt>
</event>
<event>
 6    1  0.1190675E-005  0.1329297E+03  0.7546771E-02  0.1236556E+00
          1   -1    0    0  501    0  0.00000000000E+00  0.00000000000E+00  0.10485001402E+03  0.10485001402E+03  0.00000000000E+00 0. -1.
         -1   -1    0    0    0  501 -0.00000000000E+00 -0.00000000000E+00 -0.13249503793E+03  0.13249503793E+03  0.00000000000E+00 0.  1.
          5    1    1    2  502    0  0.11293189178E+02  0.27567545198E+02 -0.61101202448E+02  0.68139214925E+02  0.47000000000E+01 0. -1.
         -5    1    1    2    0  502  0.22270163637E+02  0.27231332582E+01  0.60600882354E+02  0.64791454570E+02  0.47000000000E+01 0. -1.
        -11    1    1    2    0    0  0.90984879284E+01 -0.10919918851E+02  0.28393523466E+02  0.31752468961E+02  0.00000000000E+00 0. -1.
         11    1    1    2    0    0 -0.42661840743E+02 -0.19370759605E+02 -0.55538227285E+02  0.72661913498E+02  0.00000000000E+00 0.  1.
<mgrwt>
<rscale>  0 0.12405316E+03</rscale>
<asrwt>0</asrwt>
<pdfrwt beam="1">  1        1 0.16130772E-01 0.13292973E+03</pdfrwt>
<pdfrwt beam="2">  1       -1 0.20383852E-01 0.13292973E+03</pdfrwt>
<totfact> 0.62732213E+03</totfact>
</mgrwt>
</event>
<event>
 6    1  0.1190675E-005  0.1248572E+03  0.7546771E-02  0.1250312E+00
          1   -1    0    0  501    0  0.00000000000E+00  0.00000000000E+00  0.33005953949E+03  0.33005953949E+03  0.00000000000E+00 0. -1.
         -1   -1    0    0    0  501 -0.00000000000E+00 -0.00000000000E+00 -0.36942453545E+02  0.36942453545E+02  0.00000000000E+00 0.  1.
          5    1    1    2  502    0 -0.72340480294E+01  0.57628170511E+02  0.65143120168E+02  0.87401679576E+02  0.47000000000E+01 0.  1.
         -5    1    1    2    0  502  0.11689410715E+02 -0.60345658854E+02  0.13637737879E+03  0.14966335661E+03  0.47000000000E+01 0.  1.
        -11    1    1    2    0    0  0.38777540080E+01 -0.33499112687E+02  0.29930367900E+01  0.33855365840E+02  0.00000000000E+00 0.  1.
         11    1    1    2    0    0 -0.83331166939E+01  0.36216601030E+02  0.88603550198E+02  0.96081591013E+02  0.00000000000E+00 0. -1.
<mgrwt>
<rscale>  0 0.11573032E+03</rscale>
<asrwt>0</asrwt>
<pdfrwt beam="1">  1        1 0.50778389E-01 0.12485720E+03</pdfrwt>
<pdfrwt beam="2">  1       -1 0.56834546E-02 0.12485720E+03</pdfrwt>
<totfact> 0.10574016E+04</totfact>
</mgrwt>
</event>
<event>
 6    1  0.1190675E-005  0.1431923E+03  0.7546771E-02  0.1218767E+00
          2   -1    0    0  501    0  0.00000000000E+00  0.00000000000E+00  0.64110902928E+03  0.64110902928E+03  0.00000000000E+00 0. -1.
         -2   -1    0    0    0  501 -0.00000000000E+00 -0.00000000000E+00 -0.39062520542E+02  0.39062520542E+02  0.00000000000E+00 0.  1.
          5    1    1    2  502    0  0.73355946432E+01 -0.87317353429E+02  0.36676062940E+03  0.37711215896E+03  0.47000000000E+01 0.  1.
         -5    1    1    2    0  502  0.39274921548E+02  0.35279899389E+02  0.14850787954E+03  0.15768281786E+03  0.47000000000E+01 0.  1.
        -11    1    1    2    0    0 -0.46182184619E+02 -0.10504741857E+02  0.62194844148E+02  0.78175075416E+02  0.00000000000E+00 0. -1.
         11    1    1    2    0    0 -0.42833157247E+00  0.62542195898E+02  0.24583155651E+02  0.67201497583E+02  0.00000000000E+00 0.  1.
<mgrwt>
<rscale>  0 0.13603409E+03</rscale>
<asrwt>0</asrwt>
<pdfrwt beam="1">  1        2 0.98632151E-01 0.14319229E+03</pdfrwt>
<pdfrwt beam="2">  1       -2 0.60096190E-02 0.14319229E+03</pdfrwt>
<totfact> 0.66513544E+03</totfact>
</mgrwt>
</event>
<event>
 6    1  0.1190675E-005  0.1307061E+03  0.7546771E-02  0.1241628E+00
          1   -1    0    0  501    0  0.00000000000E+00  0.00000000000E+00  0.49977712325E+02  0.49977712325E+02  0.00000000000E+00 0. -1.
         -1   -1    0    0    0  501 -0.00000000000E+00 -0.00000000000E+00 -0.29125075064E+03  0.29125075064E+03  0.00000000000E+00 0.  1.
          5    1    1    2  502    0 -0.12834243030E+01 -0.61792077343E+02 -0.10164884625E+03  0.11905665015E+03  0.47000000000E+01 0. -1.
         -5    1    1    2    0  502 -0.20271617551E+01  0.23747444833E+02  0.23028212330E+02  0.33472960491E+02  0.47000000000E+01 0. -1.
        -11    1    1    2    0    0  0.81510365412E+01  0.65658517163E+02 -0.98153238536E+02  0.11837034471E+03  0.00000000000E+00 0.  1.
         11    1    1    2    0    0 -0.48404504831E+01 -0.27613884653E+02 -0.64499165861E+02  0.70328507614E+02  0.00000000000E+00 0. -1.
<mgrwt>
<rscale>  0 0.12089493E+03</rscale>
<asrwt>0</asrwt>
<pdfrwt beam="1">  1        1 0.76888789E-02 0.13070608E+03</pdfrwt>
<pdfrwt beam="2">  1       -1 0.44807807E-01 0.13070608E+03</pdfrwt>
<totfact> 0.44046429E+03</totfact>
</mgrwt>
</event>
<event>
 6    1  0.1190675E-005  0.1379517E+03  0.7546771E-02  0.1227653E+00
         -2   -1    0    0    0  501 -0.00000000000E+00  0.00000000000E+00  0.14593250250E+02  0.14593250250E+02  0.00000000000E+00 0. -1.
          2   -1    0    0  501    0  0.00000000000E+00 -0.00000000000E+00 -0.14632724780E+04  0.14632724780E+04  0.00000000000E+00 0.  1.
          5    1    1    2  502    0 -0.31598491549E+02  0.27732501224E+02 -0.10261070689E+04  0.10269787550E+04  0.47000000000E+01 0.  1.
         -5    1    1    2    0  502 -0.25427183886E+02 -0.40138480656E+02 -0.15580363096E+03  0.16295551765E+03  0.47000000000E+01 0.  1.
        -11    1    1    2    0    0  0.24199727473E+02  0.33519790750E+02 -0.23201970986E+03  0.23567424328E+03  0.00000000000E+00 0.  1.
         11    1    1    2    0    0  0.32825947962E+02 -0.21113811318E+02 -0.34748817971E+02  0.52257212309E+02  0.00000000000E+00 0. -1.
<mgrwt>
<rscale>  0 0.12986721E+03</rscale>
<asrwt>0</asrwt>
<pdfrwt beam="2">  1        2 0.22511886E+00 0.13795170E+03</pdfrwt>
<pdfrwt beam="1">  1       -2 0.22451152E-02 0.13795170E+03</pdfrwt>
<totfact> 0.90875397E+03</totfact>
</mgrwt>
</event>
<event>
 6    1  0.1190675E-005  0.4653201E+03  0.7546771E-02  0.1023815E+00
          2   -1    0    0  501    0  0.00000000000E+00  0.00000000000E+00  0.36935439722E+04  0.36935439722E+04  0.00000000000E+00 0. -1.
         -2   -1    0    0    0  501 -0.00000000000E+00 -0.00000000000E+00 -0.90242484979E+02  0.90242484979E+02  0.00000000000E+00 0.  1.
          5    1    1    2  502    0  0.13518182588E+03  0.15883550355E+03  0.14715360501E+04  0.14862514189E+04  0.47000000000E+01 0.  1.
         -5    1    1    2    0  502  0.23865872438E+03  0.88432802834E+02  0.14770709679E+04  0.14988459165E+04  0.47000000000E+01 0.  1.
        -11    1    1    2    0    0 -0.25521989772E+03 -0.17247208384E+03  0.51915451071E+03  0.60365985612E+03  0.00000000000E+00 0.  1.
         11    1    1    2    0    0 -0.11862065254E+03 -0.74796222542E+02  0.13553995848E+03  0.19502926565E+03  0.00000000000E+00 0. -1.
<mgrwt>
<rscale>  0 0.46334519E+03</rscale>
<asrwt>0</asrwt>
<pdfrwt beam="1">  1        2 0.56823742E+00 0.46532006E+03</pdfrwt>
<pdfrwt beam="2">  1       -2 0.13883462E-01 0.46532006E+03</pdfrwt>
<totfact> 0.27225099E+01</totfact>
</mgrwt>
</event>
<event>
 6    1  0.1190675E-005  0.1272968E+03  0.7546771E-02  0.1242160E+00
         -2   -1    0    0    0  501 -0.00000000000E+00  0.00000000000E+00  0.20151677854E+02  0.20151677854E+02  0.00000000000E+00 0.  1.
          2   -1    0    0  501    0  0.00000000000E+00 -0.00000000000E+00 -0.69594166881E+03  0.69594166881E+03  0.00000000000E+00 0. -1.
          5    1    1    2  502    0  0.61803403967E+02  0.32000060261E+02 -0.33659281124E+03  0.34374478204E+03  0.47000000000E+01 0. -1.
         -5    1    1    2    0  502 -0.37788176697E+02 -0.33798304431E+02 -0.12225528069E+03  0.13243381493E+03  0.47000000000E+01 0. -1.
        -11    1    1    2    0    0 -0.61996331676E+01 -0.36944099108E+02 -0.17886739614E+03  0.18274804325E+03  0.00000000000E+00 0. -1.
         11    1    1    2    0    0 -0.17815594103E+02  0.38742343278E+02 -0.38074502890E+02  0.57166706449E+02  0.00000000000E+00 0.  1.
<mgrwt>
<rscale>  0 0.12056953E+03</rscale>
<asrwt>0</asrwt>
<pdfrwt beam="2">  1        2 0.10706794E+00 0.12729684E+03</pdfrwt>
<pdfrwt beam="1">  1       -2 0.31002583E-02 0.12729684E+03</pdfrwt>
<totfact> 0.16094120E+04</totfact>
</mgrwt>
</event>
<event>
 6    1  0.1190675E-005  0.1407200E+03  0.7546771E-02  0.1223466E+00
         -1   -1    0    0    0  501 -0.00000000000E+00  0.00000000000E+00  0.65212707308E+02  0.65212707308E+02  0.00000000000E+00 0.  1.
          1   -1    0    0  501    0  0.00000000000E+00 -0.00000000000E+00 -0.18847113970E+04  0.18847113970E+04  0.00000000000E+00 0. -1.
          5    1    1    2  502    0  0.15377321608E+02 -0.64078031251E+02 -0.91218784515E+03  0.91457706671E+03  0.47000000000E+01 0. -1.
         -5    1    1    2    0  502 -0.69127257579E+02  0.27221107881E+02 -0.92022629824E+03  0.92323241734E+03  0.47000000000E+01 0.  1.
        -11    1    1    2    0    0 -0.20915202277E+02  0.29737390177E+02  0.35704397177E+01  0.36530892415E+02  0.00000000000E+00 0. -1.
         11    1    1    2    0    0  0.74665138249E+02  0.71195331933E+01  0.93450140161E+01  0.75583727809E+02  0.00000000000E+00 0.  1.
<mgrwt>
<rscale>  0 0.13272633E+03</rscale>
<asrwt>0</asrwt>
<pdfrwt beam="2">  1        1 0.28995567E+00 0.14071996E+03</pdfrwt>
<pdfrwt beam="1">  1       -1 0.10032722E-01 0.14071996E+03</pdfrwt>
<totfact> 0.25250336E+02</totfact>
</mgrwt>
</event>
<event>
 6    1  0.1190675E-005  0.1272273E+03  0.7546771E-02  0.1246736E+00
          1   -1    0    0  501    0  0.00000000000E+00  0.00000000000E+00  0.53629074860E+03  0.53629074860E+03  0.00000000000E+00 0. -1.
         -1   -1    0    0    0  501 -0.00000000000E+00 -0.00000000000E+00 -0.27871670904E+02  0.27871670904E+02  0.00000000000E+00 0.  1.
          5    1    1    2  502    0  0.31069399701E+02  0.28051815013E+02  0.47991618579E+02  0.63855284645E+02  0.47000000000E+01 0.  1.
         -5    1    1    2    0  502 -0.17527717445E+02 -0.47626043063E+02  0.35785431718E+03  0.36146543843E+03  0.47000000000E+01 0.  1.
        -11    1    1    2    0    0  0.91262967106E+01  0.12107283340E+02 -0.13524004060E+02  0.20316847377E+02  0.00000000000E+00 0.  1.
         11    1    1    2    0    0 -0.22667978967E+02  0.74669447112E+01  0.11609714600E+03  0.11852484905E+03  0.00000000000E+00 0. -1.
<mgrwt>
<rscale>  0 0.11782083E+03</rscale>
<asrwt>0</asrwt>
<pdfrwt beam="1">  1        1 0.82506261E-01 0.12722733E+03</pdfrwt>
<pdfrwt beam="2">  1       -1 0.42879498E-02 0.12722733E+03</pdfrwt>
<totfact> 0.86634233E+03</totfact>
</mgrwt>
</event>
<event>
 6    1  0.1190675E-005  0.1374422E+03  0.7546771E-02  0.1236702E+00
          2   -1    0    0  501    0  0.00000000000E+00  0.00000000000E+00  0.83801312850E+03  0.83801312850E+03  0.00000000000E+00 0. -1.
         -2   -1    0    0    0  501 -0.00000000000E+00 -0.00000000000E+00 -0.26350308203E+02  0.26350308203E+02  0.00000000000E+00 0.  1.
          5    1    1    2  502    0  0.58098349496E+02  0.36080123586E+02  0.18351872243E+03  0.19590407095E+03  0.47000000000E+01 0. -1.
         -5    1    1    2    0  502 -0.21079391553E+02  0.74452370802E+01  0.54424965513E+03  0.54472887698E+03  0.47000000000E+01 0. -1.
        -11    1    1    2    0    0 -0.45155175527E+02 -0.10447201868E+02  0.18322168361E+02  0.49838095441E+02  0.00000000000E+00 0.  1.
         11    1    1    2    0    0  0.81362175841E+01 -0.33078158798E+02  0.65572274381E+02  0.73892393340E+02  0.00000000000E+00 0. -1.
<mgrwt>
<rscale>  0 0.12396083E+03</rscale>
<asrwt>0</asrwt>
<pdfrwt beam="1">  1        2 0.12892508E+00 0.13744218E+03</pdfrwt>
<pdfrwt beam="2">  1       -2 0.40538942E-02 0.13744218E+03</pdfrwt>
<totfact> 0.86723604E+03</totfact>
</mgrwt>
</event>
<event>
 6    1  0.1190675E-005  0.1366313E+03  0.7546771E-02  0.1230185E+00
         -1   -1    0    0    0  501 -0.00000000000E+00  0.00000000000E+00  0.59638281715E+02  0.59638281715E+02  0.00000000000E+00 0.  1.
          1   -1    0    0  501    0  0.00000000000E+00 -0.00000000000E+00 -0.24747108468E+03  0.24747108468E+03  0.00000000000E+00 0. -1.
          5    1    1    2  502    0  0.32077450566E+02 -0.16398354346E+02 -0.57241343064E+01  0.36779404204E+02  0.47000000000E+01 0. -1.
         -5    1    1    2    0  502 -0.86477472445E+02  0.25353803223E+02 -0.10996349583E+03  0.14225058521E+03  0.47000000000E+01 0. -1.
        -11    1    1    2    0    0  0.15005653709E+02  0.40012647103E+02 -0.24948019595E+02  0.49483181518E+02  0.00000000000E+00 0. -1.
         11    1    1    2    0    0  0.39394368170E+02 -0.48968095980E+02 -0.47197153230E+02  0.78596195458E+02  0.00000000000E+00 0.  1.
<mgrwt>
<rscale>  0 0.12817755E+03</rscale>
<asrwt>0</asrwt>
<pdfrwt beam="2">  1        1 0.38072474E-01 0.13663129E+03</pdfrwt>
<pdfrwt beam="1">  1       -1 0.91751204E-02 0.13663129E+03</pdfrwt>
<totfact> 0.74069632E+03</totfact>
</mgrwt>
</event>
<event>
 6    1  0.1190675E-005  0.1494643E+03  0.7546771E-02  0.1210559E+00
         -3   -1    0    0    0  501 -0.00000000000E+00  0.00000000000E+00  0.13702968686E+03  0.13702968686E+03  0.00000000000E+00 0.  1.
          3   -1    0    0  501    0  0.00000000000E+00 -0.00000000000E+00 -0.14082147134E+03  0.14082147134E+03  0.00000000000E+00 0. -1.
          5    1    1    2  502    0 -0.40350032857E+02 -0.34903215244E+02  0.54621130437E+02  0.76497826611E+02  0.47000000000E+01 0.  1.
         -5    1    1    2    0  502 -0.37993040948E+02  0.58943566422E+02 -0.27378912888E+02  0.75428840996E+02  0.47000000000E+01 0.  1.
        -11    1    1    2    0    0  0.80664358602E+00  0.28410317039E+02 -0.66222147617E+01  0.29183051871E+02  0.00000000000E+00 0.  1.
         11    1    1    2    0    0  0.77536430219E+02 -0.52450668217E+02 -0.24411787273E+02  0.96741438719E+02  0.00000000000E+00 0. -1.
<mgrwt>
<rscale>  0 0.14207871E+03</rscale>
<asrwt>0</asrwt>
<pdfrwt beam="2">  1        3 0.21664842E-01 0.14946429E+03</pdfrwt>
<pdfrwt beam="1">  1       -3 0.21081490E-01 0.14946429E+03</pdfrwt>
<totfact> 0.93101970E+02</totfact>
</mgrwt>
</event>
<event>
 6    1  0.1190675E-005  0.2853234E+03  0.7546771E-02  0.1092816E+00
          1   -1    0    0  501    0  0.00000000000E+00  0.00000000000E+00  0.20335764660E+03  0.20335764660E+03  0.00000000000E+00 0. -1.
         -1   -1    0    0    0  501 -0.00000000000E+00 -0.00000000000E+00 -0.10008161615E+03  0.10008161615E+03  0.00000000000E+00 0.  1.
          5    1    1    2  502    0 -0.14665130804E+02  0.24428016162E+02 -0.14415991909E+02  0.32275452868E+02  0.47000000000E+01 0. -1.
         -5    1    1    2    0  502  0.10319708776E+03 -0.49415241360E+02  0.60804714360E+02  0.12965650115E+03  0.47000000000E+01 0. -1.
        -11    1    1    2    0    0 -0.81744218560E+02 -0.19356163622E+02  0.29965847850E+02  0.89189295185E+02  0.00000000000E+00 0.  1.
         11    1    1    2    0    0 -0.67877383981E+01  0.44343388819E+02  0.26921460154E+02  0.52318013546E+02  0.00000000000E+00 0. -1.
<mgrwt>
<rscale>  0 0.28532341E+03</rscale>
<asrwt>0</asrwt>
<pdfrwt beam="1">  1        1 0.31285792E-01 0.28532341E+03</pdfrwt>
<pdfrwt beam="2">  1       -1 0.15397172E-01 0.28532341E+03</pdfrwt>
<totfact> 0.44045317E+03</totfact>
</mgrwt>
</event>
<event>
 6    1  0.1190675E-005  0.1378562E+03  0.7546771E-02  0.1231735E+00
         -3   -1    0    0    0  501 -0.00000000000E+00  0.00000000000E+00  0.83508922770E+02  0.83508922770E+02  0.00000000000E+00 0.  1.
          3   -1    0    0  501    0  0.00000000000E+00 -0.00000000000E+00 -0.21052845364E+03  0.21052845364E+03  0.00000000000E+00 0. -1.
          5    1    1    2  502    0 -0.53222364858E+02  0.64341027662E+02 -0.81082898620E+02  0.11648568328E+03  0.47000000000E+01 0. -1.
         -5    1    1    2    0  502  0.15808435121E+02 -0.51634065166E+02 -0.55159593390E+02  0.77334688527E+02  0.47000000000E+01 0.  1.
        -11    1    1    2    0    0  0.30152184717E+02 -0.49266983587E+02 -0.94462120903E+01  0.58528803488E+02  0.00000000000E+00 0.  1.
         11    1    1    2    0    0  0.72617450206E+01  0.36560021091E+02  0.18669173228E+02  0.41688201112E+02  0.00000000000E+00 0. -1.
<mgrwt>
<rscale>  0 0.12715787E+03</rscale>
<asrwt>0</asrwt>
<pdfrwt beam="2">  1        3 0.32388993E-01 0.13785616E+03</pdfrwt>
<pdfrwt beam="1">  1       -3 0.12847526E-01 0.13785616E+03</pdfrwt>
<totfact> 0.10401746E+03</totfact>
</mgrwt>
</event>
<event>
 6    1  0.1190675E-005  0.1382622E+03  0.7546771E-02  0.1227271E+00
         -2   -1    0    0    0  501 -0.00000000000E+00  0.00000000000E+00  0.29602131153E+02  0.29602131153E+02  0.00000000000E+00 0.  1.
          2   -1    0    0  501    0  0.00000000000E+00 -0.00000000000E+00 -0.55544387440E+03  0.55544387440E+03  0.00000000000E+00 0. -1.
          5    1    1    2  502    0  0.16791572648E+02 -0.82961934363E+02 -0.10183076327E+03  0.13249993892E+03  0.47000000000E+01 0. -1.
         -5    1    1    2    0  502 -0.39475560886E+02  0.28410811097E+02 -0.11124805390E+03  0.12150602286E+03  0.47000000000E+01 0. -1.
        -11    1    1    2    0    0 -0.12739235772E+02  0.17997783685E+01 -0.10408893922E+01  0.12907779861E+02  0.00000000000E+00 0.  1.
         11    1    1    2    0    0  0.35423224010E+02  0.52751344898E+02 -0.31172203669E+03  0.31813226392E+03  0.00000000000E+00 0. -1.
<mgrwt>
<rscale>  0 0.13012486E+03</rscale>
<asrwt>0</asrwt>
<pdfrwt beam="2">  1        2 0.85452902E-01 0.13826224E+03</pdfrwt>
<pdfrwt beam="1">  1       -2 0.45541741E-02 0.13826224E+03</pdfrwt>
<totfact> 0.11866584E+04</totfact>
</mgrwt>
</event>
<event>
 6    1  0.1190675E-005  0.1370722E+03  0.7546771E-02  0.1228617E+00
          2   -1    0    0  501    0  0.00000000000E+00  0.00000000000E+00  0.15261212315E+03  0.15261212315E+03  0.00000000000E+00 0. -1.
         -2   -1    0    0    0  501 -0.00000000000E+00 -0.00000000000E+00 -0.99261221969E+02  0.99261221969E+02  0.00000000000E+00 0.  1.
          5    1    1    2  502    0 -0.14993712949E+01 -0.77300705184E+02  0.13172315098E+02  0.78570013499E+02  0.47000000000E+01 0.  1.
         -5    1    1    2    0  502  0.42916397667E+02  0.39246230001E+02  0.26840097589E+02  0.64222773193E+02  0.47000000000E+01 0.  1.
        -11    1    1    2    0    0 -0.11120677355E+02 -0.20976211738E+02 -0.23317423198E+02  0.33277216655E+02  0.00000000000E+00 0.  1.
         11    1    1    2    0    0 -0.30296349017E+02  0.59030686921E+02  0.36655911692E+02  0.75803341774E+02  0.00000000000E+00 0. -1.
<mgrwt>
<rscale>  0 0.12922038E+03</rscale>
<asrwt>0</asrwt>
<pdfrwt beam="1">  1        2 0.23478788E-01 0.13707220E+03</pdfrwt>
<pdfrwt beam="2">  1       -2 0.15270957E-01 0.13707220E+03</pdfrwt>
<totfact> 0.72767578E+03</totfact>
</mgrwt>
</event>
<event>
 6    1  0.1190675E-005  0.1262197E+03  0.7546771E-02  0.1249410E+00
         -2   -1    0    0    0  501 -0.00000000000E+00  0.00000000000E+00  0.13859883157E+02  0.13859883157E+02  0.00000000000E+00 0. -1.
          2   -1    0    0  501    0  0.00000000000E+00 -0.00000000000E+00 -0.17291196187E+04  0.17291196187E+04  0.00000000000E+00 0.  1.
          5    1    1    2  502    0  0.65844941935E+02  0.49305040498E+01 -0.10021369541E+04  0.10043208805E+04  0.47000000000E+01 0. -1.
         -5    1    1    2    0  502 -0.55779624859E+02  0.94766824330E+01 -0.54162855203E+03  0.54459595338E+03  0.47000000000E+01 0. -1.
        -11    1    1    2    0    0  0.19684250993E+02  0.18425993310E+02 -0.13194740401E+03  0.13467406725E+03  0.00000000000E+00 0.  1.
         11    1    1    2    0    0 -0.29749568069E+02 -0.32833179793E+02 -0.39546825399E+02  0.59388600714E+02  0.00000000000E+00 0. -1.
<mgrwt>
<rscale>  0 0.11625255E+03</rscale>
<asrwt>0</asrwt>
<pdfrwt beam="2">  1        2 0.26601838E+00 0.12621973E+03</pdfrwt>
<pdfrwt beam="1">  1       -2 0.21322899E-02 0.12621973E+03</pdfrwt>
<totfact> 0.71214775E+03</totfact>
</mgrwt>
</event>
<event>
 6    1  0.1241370E-005  0.3103435E+03  0.7546771E-02  0.1081656E+00
         -1   -1    0    0    0  501 -0.00000000000E+00  0.00000000000E+00  0.23453265660E+03  0.23453265660E+03  0.00000000000E+00 0.  1.
          1   -1    0    0  501    0  0.00000000000E+00 -0.00000000000E+00 -0.40947932614E+03  0.40947932614E+03  0.00000000000E+00 0. -1.
          5    1    1    2  502    0  0.36723237712E+02 -0.72600916237E+02 -0.72000135128E+02  0.10874556858E+03  0.47000000000E+01 0. -1.
         -5    1    1    2    0  502  0.21428961156E+03 -0.60371301755E+02 -0.77994685467E+02  0.23594489327E+03  0.47000000000E+01 0. -1.
        -11    1    1    2    0    0 -0.78092531308E+02  0.44720101738E+02  0.34355836219E+02  0.96325772397E+02  0.00000000000E+00 0.  1.
         11    1    1    2    0    0 -0.17292031797E+03  0.88252116254E+02 -0.59307685164E+02  0.20299574850E+03  0.00000000000E+00 0. -1.
<mgrwt>
<rscale>  0 0.30728254E+03</rscale>
<asrwt>0</asrwt>
<pdfrwt beam="2">  1        1 0.62996820E-01 0.31034347E+03</pdfrwt>
<pdfrwt beam="1">  1       -1 0.36081947E-01 0.31034347E+03</pdfrwt>
<totfact> 0.43743729E+02</totfact>
</mgrwt>
</event>
<event>
 6    1  0.1190675E-005  0.1268985E+03  0.7546771E-02  0.1258200E+00
          1   -1    0    0  501    0  0.00000000000E+00  0.00000000000E+00  0.10416880911E+04  0.10416880911E+04  0.00000000000E+00 0. -1.
         -1   -1    0    0    0  501 -0.00000000000E+00 -0.00000000000E+00 -0.10563181976E+02  0.10563181976E+02  0.00000000000E+00 0.  1.
          5    1    1    2  502    0 -0.48168744576E+02  0.42661345302E+02  0.61162442415E+03  0.61501767825E+03  0.47000000000E+01 0. -1.
         -5    1    1    2    0  502  0.42873494609E+02 -0.21495599908E+02  0.16453303381E+03  0.17144505409E+03  0.47000000000E+01 0. -1.
        -11    1    1    2    0    0  0.29525007467E+02 -0.35761685949E+02  0.17143810085E+03  0.17759968094E+03  0.00000000000E+00 0.  1.
         11    1    1    2    0    0 -0.24229757501E+02  0.14595940556E+02  0.83529350293E+02  0.88188859782E+02  0.00000000000E+00 0. -1.
<mgrwt>
<rscale>  0 0.11128984E+03</rscale>
<asrwt>0</asrwt>
<pdfrwt beam="1">  1        1 0.16025962E+00 0.12689850E+03</pdfrwt>
<pdfrwt beam="2">  1       -1 0.16251057E-02 0.12689850E+03</pdfrwt>
<totfact> 0.13229176E+04</totfact>
</mgrwt>
</event>
<event>
 6    1  0.1190675E-005  0.1285287E+03  0.7546771E-02  0.1246758E+00
         -1   -1    0    0    0  501 -0.00000000000E+00  0.00000000000E+00  0.42817004658E+02  0.42817004658E+02  0.00000000000E+00 0.  1.
          1   -1    0    0  501    0  0.00000000000E+00 -0.00000000000E+00 -0.49400334772E+03  0.49400334772E+03  0.00000000000E+00 0. -1.
          5    1    1    2  502    0 -0.30815925547E+02  0.65506733107E+02 -0.20997649646E+03  0.22215528897E+03  0.47000000000E+01 0. -1.
         -5    1    1    2    0  502  0.14722873912E+02 -0.52517089972E+02 -0.21261168246E+03  0.21954640802E+03  0.47000000000E+01 0.  1.
        -11    1    1    2    0    0  0.23008137882E+02  0.19792616595E+02 -0.47711449523E+02  0.56546480847E+02  0.00000000000E+00 0. -1.
         11    1    1    2    0    0 -0.69150862473E+01 -0.32782259730E+02  0.19113285386E+02  0.38572174544E+02  0.00000000000E+00 0.  1.
<mgrwt>
<rscale>  0 0.11780753E+03</rscale>
<asrwt>0</asrwt>
<pdfrwt beam="2">  1        1 0.76000508E-01 0.12852867E+03</pdfrwt>
<pdfrwt beam="1">  1       -1 0.65872321E-02 0.12852867E+03</pdfrwt>
<totfact> 0.51120327E+03</totfact>
</mgrwt>
</event>
<event>
 6    1  0.1190675E-005  0.2392382E+03  0.7546771E-02  0.1122908E+00
         -2   -1    0    0    0  501 -0.00000000000E+00  0.00000000000E+00  0.47345298514E+03  0.47345298514E+03  0.00000000000E+00 0.  1.
          2   -1    0    0  501    0  0.00000000000E+00 -0.00000000000E+00 -0.15155152285E+03  0.15155152285E+03  0.00000000000E+00 0. -1.
          5    1    1    2  502    0 -0.10397171889E+03  0.54648493968E+02  0.25335112173E+02  0.12025196102E+03  0.47000000000E+01 0.  1.
         -5    1    1    2    0  502 -0.99864852300E+02 -0.62447125064E+02 -0.17202109134E+02  0.11912445052E+03  0.47000000000E+01 0.  1.
        -11    1    1    2    0    0  0.54908491105E+02 -0.10376704450E+02  0.27174026695E+02  0.62137316626E+02  0.00000000000E+00 0. -1.
         11    1    1    2    0    0  0.14892808008E+03  0.18175335546E+02  0.28659443256E+03  0.32349077982E+03  0.00000000000E+00 0.  1.
<mgrwt>
<rscale>  0 0.23538239E+03</rscale>
<asrwt>0</asrwt>
<pdfrwt beam="2">  1        2 0.23315619E-01 0.23923821E+03</pdfrwt>
<pdfrwt beam="1">  1       -2 0.72838920E-01 0.23923821E+03</pdfrwt>
<totfact> 0.40858878E+02</totfact>
</mgrwt>
</event>
<event>
 6    1  0.1190675E-005  0.1456510E+03  0.7546771E-02  0.1216120E+00
         -1   -1    0    0    0  501 -0.00000000000E+00  0.00000000000E+00  0.91490693178E+02  0.91490693178E+02  0.00000000000E+00 0.  1.
          1   -1    0    0  501    0  0.00000000000E+00 -0.00000000000E+00 -0.31787203916E+03  0.31787203916E+03  0.00000000000E+00 0. -1.
          5    1    1    2  502    0 -0.69433017046E+02  0.72805584953E+02 -0.14410200016E+03  0.17580976511E+03  0.47000000000E+01 0.  1.
         -5    1    1    2    0  502  0.20038890196E+01 -0.40499089109E+02 -0.10635128197E+03  0.11391609617E+03  0.47000000000E+01 0.  1.
        -11    1    1    2    0    0  0.85181663196E+02 -0.43042010167E+02  0.13616765102E+02  0.96405117478E+02  0.00000000000E+00 0.  1.
         11    1    1    2    0    0 -0.17752535170E+02  0.10735514323E+02  0.10455171050E+02  0.23231753580E+02  0.00000000000E+00 0. -1.
<mgrwt>
<rscale>  0 0.13794563E+03</rscale>
<asrwt>0</asrwt>
<pdfrwt beam="2">  1        1 0.48903390E-01 0.14565105E+03</pdfrwt>
<pdfrwt beam="1">  1       -1 0.14075492E-01 0.14565105E+03</pdfrwt>
<totfact> 0.28205920E+03</totfact>
</mgrwt>
</event>
<event>
 6    1  0.1190675E-005  0.3716590E+03  0.7546771E-02  0.1054060E+00
         -1   -1    0    0    0  501 -0.00000000000E+00  0.00000000000E+00  0.12905094631E+02  0.12905094631E+02  0.00000000000E+00 0.  1.
          1   -1    0    0  501    0  0.00000000000E+00 -0.00000000000E+00 -0.26758888717E+04  0.26758888717E+04  0.00000000000E+00 0. -1.
          5    1    1    2  502    0  0.86795312675E+02  0.16210613956E+02 -0.76355257821E+03  0.76865521529E+03  0.47000000000E+01 0.  1.
         -5    1    1    2    0  502  0.16454482202E+01 -0.70423902564E+01 -0.15287669508E+04  0.15287912816E+04  0.47000000000E+01 0.  1.
        -11    1    1    2    0    0 -0.30225636020E+02  0.34279608576E+02 -0.84055755682E+02  0.95676803355E+02  0.00000000000E+00 0.  1.
         11    1    1    2    0    0 -0.58215124875E+02 -0.43447832275E+02 -0.28660849234E+03  0.29567066607E+03  0.00000000000E+00 0. -1.
<mgrwt>
<rscale>  0 0.37165898E+03</rscale>
<asrwt>0</asrwt>
<pdfrwt beam="2">  1        1 0.41167524E+00 0.37165898E+03</pdfrwt>
<pdfrwt beam="1">  1       -1 0.19853990E-02 0.37165898E+03</pdfrwt>
<totfact> 0.82766788E+02</totfact>
</mgrwt>
</event>
<event>
 6    1  0.1190675E-005  0.2933101E+03  0.7546771E-02  0.1088633E+00
          2   -1    0    0  501    0  0.00000000000E+00  0.00000000000E+00  0.82774835774E+03  0.82774835774E+03  0.00000000000E+00 0.  1.
         -2   -1    0    0    0  501 -0.00000000000E+00 -0.00000000000E+00 -0.25983390491E+02  0.25983390491E+02  0.00000000000E+00 0. -1.
          5    1    1    2  502    0  0.43535106904E+01  0.16214653178E+02  0.61156058595E+01  0.18475894242E+02  0.47000000000E+01 0. -1.
         -5    1    1    2    0  502 -0.72899388746E+02 -0.86720670308E+02  0.47071534833E+03  0.48417953766E+03  0.47000000000E+01 0. -1.
        -11    1    1    2    0    0  0.27952622036E+01  0.65148422211E+02  0.13307395092E+03  0.14819179066E+03  0.00000000000E+00 0. -1.
         11    1    1    2    0    0  0.65750615852E+02  0.53575949183E+01  0.19186006215E+03  0.20288452567E+03  0.00000000000E+00 0.  1.
<mgrwt>
<rscale>  0 0.29331013E+03</rscale>
<asrwt>0</asrwt>
<pdfrwt beam="1">  1        2 0.12734588E+00 0.29331013E+03</pdfrwt>
<pdfrwt beam="2">  1       -2 0.39974453E-02 0.29331013E+03</pdfrwt>
<totfact> 0.93341818E+03</totfact>
</mgrwt>
</event>
<event>
 6    1  0.1190675E-005  0.3294604E+03  0.7546771E-02  0.1071376E+00
         -1   -1    0    0    0  501 -0.00000000000E+00  0.00000000000E+00  0.39411604895E+02  0.39411604895E+02  0.00000000000E+00 0.  1.
          1   -1    0    0  501    0  0.00000000000E+00 -0.00000000000E+00 -0.68852929914E+03  0.68852929914E+03  0.00000000000E+00 0. -1.
          5    1    1    2  502    0  0.23331193124E+02  0.12024932097E+03 -0.29353921447E+03  0.31810627815E+03  0.47000000000E+01 0. -1.
         -5    1    1    2    0  502 -0.10374454710E-01 -0.24681265171E+01  0.11650585473E+02  0.12803042529E+02  0.47000000000E+01 0. -1.
        -11    1    1    2    0    0  0.34392828351E+02 -0.34193874245E+02 -0.13904597012E+03  0.14726122872E+03  0.00000000000E+00 0. -1.
         11    1    1    2    0    0 -0.57713647021E+02 -0.83587320210E+02 -0.22818309514E+03  0.24977035464E+03  0.00000000000E+00 0.  1.
<mgrwt>
<rscale>  0 0.32946044E+03</rscale>
<asrwt>0</asrwt>
<pdfrwt beam="2">  1        1 0.10592759E+00 0.32946044E+03</pdfrwt>
<pdfrwt beam="1">  1       -1 0.60633238E-02 0.32946044E+03</pdfrwt>
<totfact> 0.38062281E+03</totfact>
</mgrwt>
</event>
<event>
 6    1  0.1190675E-005  0.1281098E+03  0.7546771E-02  0.1244962E+00
         -1   -1    0    0    0  501 -0.00000000000E+00  0.00000000000E+00  0.55979715135E+02  0.55979715135E+02  0.00000000000E+00 0.  1.
          1   -1    0    0  501    0  0.00000000000E+00 -0.00000000000E+00 -0.22449200370E+03  0.22449200370E+03  0.00000000000E+00 0. -1.
          5    1    1    2  502    0  0.20753019943E+02 -0.97311168551E+00  0.23506303259E+02  0.31721776054E+02  0.47000000000E+01 0. -1.
         -5    1    1    2    0  502 -0.14820410120E+02 -0.26453286960E+02 -0.13396074039E+03  0.13742994911E+03  0.47000000000E+01 0. -1.
        -11    1    1    2    0    0 -0.21483781225E+02 -0.65432647780E+01  0.16538743400E+02  0.27890808574E+02  0.00000000000E+00 0.  1.
         11    1    1    2    0    0  0.15551171402E+02  0.33969663423E+02 -0.74596594837E+02  0.83429185100E+02  0.00000000000E+00 0. -1.
<mgrwt>
<rscale>  0 0.11887655E+03</rscale>
<asrwt>0</asrwt>
<pdfrwt beam="2">  1        1 0.34537231E-01 0.12810981E+03</pdfrwt>
<pdfrwt beam="1">  1       -1 0.86122639E-02 0.12810981E+03</pdfrwt>
<totfact> 0.91540352E+03</totfact>
</mgrwt>
</event>
<event>
 6    1  0.1190675E-005  0.1276742E+03  0.7546771E-02  0.1245748E+00
          1   -1    0    0  501    0  0.00000000000E+00  0.00000000000E+00  0.85408436202E+03  0.85408436202E+03  0.00000000000E+00 0. -1.
         -1   -1    0    0    0  501 -0.00000000000E+00 -0.00000000000E+00 -0.14470193746E+02  0.14470193746E+02  0.00000000000E+00 0.  1.
          5    1    1    2  502    0 -0.44171874920E+02  0.31691532951E+02  0.85680016355E+02  0.10158082003E+03  0.47000000000E+01 0.  1.
         -5    1    1    2    0  502  0.30203032001E+02 -0.97708334956E+01  0.37787400593E+03  0.37923415812E+03  0.47000000000E+01 0.  1.
        -11    1    1    2    0    0  0.51514249325E+02 -0.22415739491E+02  0.24827902041E+03  0.25455579985E+03  0.00000000000E+00 0.  1.
         11    1    1    2    0    0 -0.37545406406E+02  0.49504003503E+00  0.12778112559E+03  0.13318377778E+03  0.00000000000E+00 0. -1.
<mgrwt>
<rscale>  0 0.11840706E+03</rscale>
<asrwt>0</asrwt>
<pdfrwt beam="1">  1        1 0.13139755E+00 0.12767424E+03</pdfrwt>
<pdfrwt beam="2">  1       -1 0.22261843E-02 0.12767424E+03</pdfrwt>
<totfact> 0.11631391E+04</totfact>
</mgrwt>
</event>
<event>
 6    1  0.1190675E-005  0.1470522E+03  0.7546771E-02  0.1213147E+00
          1   -1    0    0  501    0  0.00000000000E+00  0.00000000000E+00  0.27083898274E+03  0.27083898274E+03  0.00000000000E+00 0. -1.
         -1   -1    0    0    0  501 -0.00000000000E+00 -0.00000000000E+00 -0.70036779919E+02  0.70036779919E+02  0.00000000000E+00 0.  1.
          5    1    1    2  502    0 -0.29359817088E+02  0.38212647000E+02  0.30080951984E+02  0.57001394040E+02  0.47000000000E+01 0.  1.
         -5    1    1    2    0  502 -0.27035920796E+02 -0.91306037485E+02  0.11781629278E+03  0.15156022677E+03  0.47000000000E+01 0.  1.
        -11    1    1    2    0    0 -0.86443215881E+01  0.14504305859E+02 -0.20746839900E+02  0.26749402797E+02  0.00000000000E+00 0.  1.
         11    1    1    2    0    0  0.65040059473E+02  0.38589084626E+02  0.73651797957E+02  0.10556473905E+03  0.00000000000E+00 0. -1.
<mgrwt>
<rscale>  0 0.14013553E+03</rscale>
<asrwt>0</asrwt>
<pdfrwt beam="1">  1        1 0.41667535E-01 0.14705222E+03</pdfrwt>
<pdfrwt beam="2">  1       -1 0.10774889E-01 0.14705222E+03</pdfrwt>
<totfact> 0.52062321E+03</totfact>
</mgrwt>
</event>
<event>
 6    1  0.1190675E-005  0.1261098E+03  0.7546771E-02  0.1248730E+00
          2   -1    0    0  501    0  0.00000000000E+00  0.00000000000E+00  0.65306820122E+03  0.65306820122E+03  0.00000000000E+00 0. -1.
         -2   -1    0    0    0  501 -0.00000000000E+00 -0.00000000000E+00 -0.19283638556E+02  0.19283638556E+02  0.00000000000E+00 0.  1.
          5    1    1    2  502    0 -0.51497798237E+02 -0.19126109566E+02  0.99568675785E+02  0.11381494844E+03  0.47000000000E+01 0.  1.
         -5    1    1    2    0  502  0.48473037281E+02  0.26856126076E+01  0.34019373935E+03  0.34367239946E+03  0.47000000000E+01 0.  1.
        -11    1    1    2    0    0  0.28266326537E+02 -0.78360103682E+01  0.15964413970E+02  0.33395370754E+02  0.00000000000E+00 0.  1.
         11    1    1    2    0    0 -0.25241565580E+02  0.24276507326E+02  0.17805773355E+03  0.18146912112E+03  0.00000000000E+00 0. -1.
<mgrwt>
<rscale>  0 0.11664884E+03</rscale>
<asrwt>0</asrwt>
<pdfrwt beam="1">  1        2 0.10047201E+00 0.12610984E+03</pdfrwt>
<pdfrwt beam="2">  1       -2 0.29667141E-02 0.12610984E+03</pdfrwt>
<totfact> 0.18481158E+04</totfact>
</mgrwt>
</event>
<event>
 6    1  0.1190675E-005  0.1329354E+03  0.7546771E-02  0.1229507E+00
          1   -1    0    0  501    0  0.00000000000E+00  0.00000000000E+00  0.64709048819E+03  0.64709048819E+03  0.00000000000E+00 0. -1.
         -1   -1    0    0    0  501 -0.00000000000E+00 -0.00000000000E+00 -0.33717639279E+02  0.33717639279E+02  0.00000000000E+00 0.  1.
          5    1    1    2  502    0 -0.57856124651E+02 -0.76463587179E+01  0.13502526149E+03  0.14717237920E+03  0.47000000000E+01 0. -1.
         -5    1    1    2    0  502  0.72242641015E+01  0.60991685933E+02  0.36812122618E+03  0.37323920334E+03  0.47000000000E+01 0.  1.
        -11    1    1    2    0    0  0.60917979196E+02 -0.58726834894E+01  0.34004656168E+02  0.70012893397E+02  0.00000000000E+00 0.  1.
         11    1    1    2    0    0 -0.10286118646E+02 -0.47472643726E+02  0.76221705082E+02  0.90383651534E+02  0.00000000000E+00 0. -1.
<mgrwt>
<rscale>  0 0.12862691E+03</rscale>
<asrwt>0</asrwt>
<pdfrwt beam="1">  1        1 0.99552373E-01 0.13293542E+03</pdfrwt>
<pdfrwt beam="2">  1       -1 0.51873296E-02 0.13293542E+03</pdfrwt>
<totfact> 0.50871621E+03</totfact>
</mgrwt>
</event>
<event>
 6    1  0.1190675E-005  0.1360744E+03  0.7546771E-02  0.1230922E+00
         -2   -1    0    0    0  501 -0.00000000000E+00  0.00000000000E+00  0.23576055729E+02  0.23576055729E+02  0.00000000000E+00 0.  1.
          2   -1    0    0  501    0  0.00000000000E+00 -0.00000000000E+00 -0.67306104834E+03  0.67306104834E+03  0.00000000000E+00 0. -1.
          5    1    1    2  502    0  0.75886921243E+02  0.36951523628E+02 -0.29648546520E+03  0.30830173692E+03  0.47000000000E+01 0.  1.
         -5    1    1    2    0  502 -0.22836473965E+02 -0.45817194851E+02 -0.16409554389E+03  0.17195975521E+03  0.47000000000E+01 0.  1.
        -11    1    1    2    0    0  0.22410072836E+02  0.13104872975E+02 -0.77673826840E+02  0.81897328627E+02  0.00000000000E+00 0. -1.
         11    1    1    2    0    0 -0.75460520114E+02 -0.42392017511E+01 -0.11123015669E+03  0.13447828332E+03  0.00000000000E+00 0.  1.
<mgrwt>
<rscale>  0 0.12769155E+03</rscale>
<asrwt>0</asrwt>
<pdfrwt beam="2">  1        2 0.10354784E+00 0.13607437E+03</pdfrwt>
<pdfrwt beam="1">  1       -2 0.36270858E-02 0.13607437E+03</pdfrwt>
<totfact> 0.13347975E+04</totfact>
</mgrwt>
</event>
<event>
 6    1  0.1190675E-005  0.2785023E+03  0.7546771E-02  0.1096510E+00
          1   -1    0    0  501    0  0.00000000000E+00  0.00000000000E+00  0.59444873613E+03  0.59444873613E+03  0.00000000000E+00 0. -1.
         -1   -1    0    0    0  501 -0.00000000000E+00 -0.00000000000E+00 -0.32619930245E+02  0.32619930245E+02  0.00000000000E+00 0.  1.
          5    1    1    2  502    0  0.35721455802E+02 -0.56778859101E+01  0.84479192582E+02  0.92016763539E+02  0.47000000000E+01 0. -1.
         -5    1    1    2    0  502 -0.91679338831E+02  0.65529968092E+02  0.29725005939E+03  0.31792918346E+03  0.47000000000E+01 0. -1.
        -11    1    1    2    0    0 -0.93572902694E+01 -0.42708183602E+02  0.11620465754E+03  0.12415744143E+03  0.00000000000E+00 0. -1.
         11    1    1    2    0    0  0.65315173299E+02 -0.17143898579E+02  0.63894896365E+02  0.92965277943E+02  0.00000000000E+00 0.  1.
<mgrwt>
<rscale>  0 0.27850225E+03</rscale>
<asrwt>0</asrwt>
<pdfrwt beam="1">  1        1 0.91453644E-01 0.27850225E+03</pdfrwt>
<pdfrwt beam="2">  1       -1 0.50184513E-02 0.27850225E+03</pdfrwt>
<totfact> 0.62164840E+03</totfact>
</mgrwt>
</event>
<event>
 6    1  0.1190675E-005  0.1500617E+03  0.7546771E-02  0.1209775E+00
         -1   -1    0    0    0  501 -0.00000000000E+00  0.00000000000E+00  0.88447961361E+02  0.88447961361E+02  0.00000000000E+00 0.  1.
          1   -1    0    0  501    0  0.00000000000E+00 -0.00000000000E+00 -0.21451413889E+03  0.21451413889E+03  0.00000000000E+00 0. -1.
          5    1    1    2  502    0  0.11165827803E+03 -0.28337038328E+02 -0.71591692387E+02  0.13571300311E+03  0.47000000000E+01 0. -1.
         -5    1    1    2    0  502 -0.29315058143E+02  0.17996926832E+02 -0.19100639522E+02  0.39625578096E+02  0.47000000000E+01 0. -1.
        -11    1    1    2    0    0 -0.81264975614E+02 -0.23172321349E+02 -0.90350996504E+01  0.84985797425E+02  0.00000000000E+00 0.  1.
         11    1    1    2    0    0 -0.10782442692E+01  0.33512432846E+02 -0.26338745969E+02  0.42637721623E+02  0.00000000000E+00 0. -1.
<mgrwt>
<rscale>  0 0.14267425E+03</rscale>
<asrwt>0</asrwt>
<pdfrwt beam="2">  1        1 0.33002175E-01 0.15006172E+03</pdfrwt>
<pdfrwt beam="1">  1       -1 0.13607379E-01 0.15006172E+03</pdfrwt>
<totfact> 0.48506726E+03</totfact>
</mgrwt>
</event>
<event>
 6    1  0.1190675E-005  0.1617013E+03  0.7546771E-02  0.1194353E+00
         -2   -1    0    0    0  501 -0.00000000000E+00  0.00000000000E+00  0.57723389216E+03  0.57723389216E+03  0.00000000000E+00 0.  1.
          2   -1    0    0  501    0  0.00000000000E+00 -0.00000000000E+00 -0.38624665647E+02  0.38624665647E+02  0.00000000000E+00 0. -1.
          5    1    1    2  502    0  0.30239565808E+02 -0.43784360215E+02  0.23163986256E+03  0.23771961944E+03  0.47000000000E+01 0.  1.
         -5    1    1    2    0  502 -0.42433972909E+02 -0.58059716343E+02  0.52331227497E+02  0.89063011907E+02  0.47000000000E+01 0.  1.
        -11    1    1    2    0    0  0.11682737256E+02  0.30295149986E+02  0.18967368269E+03  0.19243281521E+03  0.00000000000E+00 0.  1.
         11    1    1    2    0    0  0.51166984516E+00  0.71548926572E+02  0.64964453759E+02  0.96643111249E+02  0.00000000000E+00 0. -1.
<mgrwt>
<rscale>  0 0.15509073E+03</rscale>
<asrwt>0</asrwt>
<pdfrwt beam="2">  1        2 0.59422567E-02 0.16170129E+03</pdfrwt>
<pdfrwt beam="1">  1       -2 0.88805208E-01 0.16170129E+03</pdfrwt>
<totfact> 0.13763970E+03</totfact>
</mgrwt>
</event>
<event>
 6    1  0.1190675E-005  0.1293090E+03  0.7546771E-02  0.1242583E+00
         -1   -1    0    0    0  501 -0.00000000000E+00  0.00000000000E+00  0.12972373228E+02  0.12972373228E+02  0.00000000000E+00 0.  1.
          1   -1    0    0  501    0  0.00000000000E+00 -0.00000000000E+00 -0.98629060026E+03  0.98629060026E+03  0.00000000000E+00 0. -1.
          5    1    1    2  502    0  0.29924157755E+02  0.61569328385E+02 -0.19340711301E+03  0.20521851471E+03  0.47000000000E+01 0. -1.
         -5    1    1    2    0  502 -0.81814663239E+00 -0.45984330581E+02 -0.36774332786E+03  0.37063792737E+03  0.47000000000E+01 0. -1.
        -11    1    1    2    0    0  0.31259104657E+02 -0.16587493974E+01 -0.88745485776E+02  0.94104433047E+02  0.00000000000E+00 0.  1.
         11    1    1    2    0    0 -0.60365115780E+02 -0.13926248406E+02 -0.32342230039E+03  0.32930209836E+03  0.00000000000E+00 0. -1.
<mgrwt>
<rscale>  0 0.12031215E+03</rscale>
<asrwt>0</asrwt>
<pdfrwt beam="2">  1        1 0.15173701E+00 0.12930903E+03</pdfrwt>
<pdfrwt beam="1">  1       -1 0.19957497E-02 0.12930903E+03</pdfrwt>
<totfact> 0.10815123E+04</totfact>
</mgrwt>
</event>
<event>
 6    1  0.1190675E-005  0.1520458E+03  0.7546771E-02  0.1219459E+00
          1   -1    0    0  501    0  0.00000000000E+00  0.00000000000E+00  0.58537573297E+03  0.58537573297E+03  0.00000000000E+00 0. -1.
         -1   -1    0    0    0  501 -0.00000000000E+00 -0.00000000000E+00 -0.26803990957E+02  0.26803990957E+02  0.00000000000E+00 0.  1.
          5    1    1    2  502    0  0.48586620301E+02  0.44398565518E+02  0.33294747073E+03  0.33942304070E+03  0.47000000000E+01 0. -1.
         -5    1    1    2    0  502 -0.21804819142E+02 -0.47643512004E+02  0.49886543638E+02  0.72499045580E+02  0.47000000000E+01 0.  1.
        -11    1    1    2    0    0  0.30685432009E+02 -0.14890404348E+02  0.46566423929E+02  0.57721328092E+02  0.00000000000E+00 0.  1.
         11    1    1    2    0    0 -0.57467233168E+02  0.18135350833E+02  0.12917130371E+03  0.14253630955E+03  0.00000000000E+00 0. -1.
<mgrwt>
<rscale>  0 0.13554031E+03</rscale>
<asrwt>0</asrwt>
<pdfrwt beam="1">  1        1 0.90057795E-01 0.15204579E+03</pdfrwt>
<pdfrwt beam="2">  1       -1 0.41236914E-02 0.15204579E+03</pdfrwt>
<totfact> 0.82536910E+03</totfact>
</mgrwt>
</event>
<event>
 6    1  0.1190675E-005  0.1411640E+03  0.7546771E-02  0.1222801E+00
         -1   -1    0    0    0  501 -0.00000000000E+00  0.00000000000E+00  0.18599497806E+03  0.18599497806E+03  0.00000000000E+00 0.  1.
          1   -1    0    0  501    0  0.00000000000E+00 -0.00000000000E+00 -0.21090832733E+03  0.21090832733E+03  0.00000000000E+00 0. -1.
          5    1    1    2  502    0 -0.73216772233E+02 -0.10861813266E+02 -0.71679882786E+02  0.10314441487E+03  0.47000000000E+01 0. -1.
         -5    1    1    2    0  502  0.44256089536E+02 -0.47986441982E+02 -0.93637127818E+02  0.11424229419E+03  0.47000000000E+01 0. -1.
        -11    1    1    2    0    0 -0.32106024846E+01  0.56417759375E+02  0.28961670504E+02  0.63498424387E+02  0.00000000000E+00 0. -1.
         11    1    1    2    0    0  0.32171285181E+02  0.24304958727E+01  0.11144199083E+03  0.11601817194E+03  0.00000000000E+00 0.  1.
<mgrwt>
<rscale>  0 0.13318741E+03</rscale>
<asrwt>0</asrwt>
<pdfrwt beam="2">  1        1 0.32447435E-01 0.14116397E+03</pdfrwt>
<pdfrwt beam="1">  1       -1 0.28614612E-01 0.14116397E+03</pdfrwt>
<totfact> 0.14938334E+03</totfact>
</mgrwt>
</event>
<event>
 6    1  0.1190675E-005  0.1356287E+03  0.7546771E-02  0.1231330E+00
          1   -1    0    0  501    0  0.00000000000E+00  0.00000000000E+00  0.16078218189E+03  0.16078218189E+03  0.00000000000E+00 0. -1.
         -1   -1    0    0    0  501 -0.00000000000E+00 -0.00000000000E+00 -0.97576739426E+02  0.97576739426E+02  0.00000000000E+00 0.  1.
          5    1    1    2  502    0  0.17211507946E+02  0.34372892369E+02  0.21210721227E+02  0.44155593424E+02  0.47000000000E+01 0. -1.
         -5    1    1    2    0  502 -0.19075005334E+02 -0.86974440279E+02 -0.20426547954E+02  0.91475368005E+02  0.47000000000E+01 0. -1.
        -11    1    1    2    0    0  0.37401522161E+02  0.55727579177E+01  0.13339638546E+01  0.37837930048E+02  0.00000000000E+00 0.  1.
         11    1    1    2    0    0 -0.35538024773E+02  0.47028789991E+02  0.61087305332E+02  0.84890029836E+02  0.00000000000E+00 0. -1.
<mgrwt>
<rscale>  0 0.12742352E+03</rscale>
<asrwt>0</asrwt>
<pdfrwt beam="1">  1        1 0.24735720E-01 0.13562869E+03</pdfrwt>
<pdfrwt beam="2">  1       -1 0.15011806E-01 0.13562869E+03</pdfrwt>
<totfact> 0.59266196E+03</totfact>
</mgrwt>
</event>
<event>
 6    1  0.1190675E-005  0.2952227E+03  0.7546771E-02  0.1087653E+00
          1   -1    0    0  501    0  0.00000000000E+00  0.00000000000E+00  0.97887592909E+02  0.97887592909E+02  0.00000000000E+00 0. -1.
         -1   -1    0    0    0  501 -0.00000000000E+00 -0.00000000000E+00 -0.22259318294E+03  0.22259318294E+03  0.00000000000E+00 0.  1.
          5    1    1    2  502    0 -0.25364856360E+02 -0.12135997545E+03 -0.18425809850E+02  0.12543213323E+03  0.47000000000E+01 0. -1.
         -5    1    1    2    0  502  0.43740627206E+01  0.25122444917E+02 -0.32687032714E+02  0.41722916616E+02  0.47000000000E+01 0. -1.
        -11    1    1    2    0    0  0.85943683747E+01  0.47164621258E+02  0.15901943956E+02  0.50509766261E+02  0.00000000000E+00 0. -1.
         11    1    1    2    0    0  0.12396425265E+02  0.49072909274E+02 -0.89494691424E+02  0.10281595974E+03  0.00000000000E+00 0.  1.
<mgrwt>
<rscale>  0 0.29522270E+03</rscale>
<asrwt>0</asrwt>
<pdfrwt beam="1">  1        1 0.15059630E-01 0.29522270E+03</pdfrwt>
<pdfrwt beam="2">  1       -1 0.34245105E-01 0.29522270E+03</pdfrwt>
<totfact> 0.30064292E+03</totfact>
</mgrwt>
</event>
<event>
 6    1  0.1190675E-005  0.1251429E+03  0.7546771E-02  0.1249679E+00
          1   -1    0    0  501    0  0.00000000000E+00  0.00000000000E+00  0.58177650381E+03  0.58177650381E+03  0.00000000000E+00 0. -1.
         -1   -1    0    0    0  501 -0.00000000000E+00 -0.00000000000E+00 -0.27201417036E+02  0.27201417036E+02  0.00000000000E+00 0.  1.
          5    1    1    2  502    0 -0.26291947304E+02 -0.30901712874E+02  0.39800767719E+03  0.40009796732E+03  0.47000000000E+01 0.  1.
         -5    1    1    2    0  502  0.32208560714E+02  0.30856665443E+02  0.61320149759E+02  0.75972205128E+02  0.47000000000E+01 0.  1.
        -11    1    1    2    0    0  0.12341861166E+02 -0.22037041051E+02  0.10063191887E+03  0.10375324482E+03  0.00000000000E+00 0. -1.
         11    1    1    2    0    0 -0.18258474577E+02  0.22082088482E+02 -0.53846590485E+01  0.29154503574E+02  0.00000000000E+00 0.  1.
<mgrwt>
<rscale>  0 0.11609654E+03</rscale>
<asrwt>0</asrwt>
<pdfrwt beam="1">  1        1 0.89504069E-01 0.12514294E+03</pdfrwt>
<pdfrwt beam="2">  1       -1 0.41848338E-02 0.12514294E+03</pdfrwt>
<totfact> 0.80466649E+03</totfact>
</mgrwt>
</event>
<event>
 6    1  0.1190675E-005  0.1798446E+03  0.7546771E-02  0.1174050E+00
         -1   -1    0    0    0  501 -0.00000000000E+00  0.00000000000E+00  0.28829544793E+02  0.28829544793E+02  0.00000000000E+00 0.  1.
          1   -1    0    0  501    0  0.00000000000E+00 -0.00000000000E+00 -0.13720212261E+04  0.13720212261E+04  0.00000000000E+00 0. -1.
          5    1    1    2  502    0 -0.10710199486E+03  0.27949778791E+02 -0.83266763370E+03  0.84000565811E+03  0.47000000000E+01 0.  1.
         -5    1    1    2    0  502  0.12298147369E+02  0.59968836259E+02 -0.24564381272E+03  0.25320047092E+03  0.47000000000E+01 0.  1.
        -11    1    1    2    0    0  0.44136065375E+01 -0.21642869565E+02 -0.13186575914E+03  0.13370292502E+03  0.00000000000E+00 0. -1.
         11    1    1    2    0    0  0.90390240957E+02 -0.66275745485E+02 -0.13301447577E+03  0.17394171686E+03  0.00000000000E+00 0.  1.
<mgrwt>
<rscale>  0 0.17369310E+03</rscale>
<asrwt>0</asrwt>
<pdfrwt beam="2">  1        1 0.21108009E+00 0.17984456E+03</pdfrwt>
<pdfrwt beam="1">  1       -1 0.44353167E-02 0.17984456E+03</pdfrwt>
<totfact> 0.18369880E+03</totfact>
</mgrwt>
</event>
<event>
 6    1  0.1190675E-005  0.1867122E+03  0.7546771E-02  0.1166895E+00
         -1   -1    0    0    0  501 -0.00000000000E+00  0.00000000000E+00  0.86392262821E+02  0.86392262821E+02  0.00000000000E+00 0.  1.
          1   -1    0    0  501    0  0.00000000000E+00 -0.00000000000E+00 -0.40503383606E+03  0.40503383606E+03  0.00000000000E+00 0. -1.
          5    1    1    2  502    0  0.16113381284E+02  0.71918572924E+02 -0.80080658467E+02  0.10893541228E+03  0.47000000000E+01 0. -1.
         -5    1    1    2    0  502  0.11005615219E+03 -0.14325991769E+02 -0.17225490152E+03  0.20496690409E+03  0.47000000000E+01 0. -1.
        -11    1    1    2    0    0 -0.11066687035E+03 -0.29840650041E+02 -0.83097865384E+02  0.14157286399E+03  0.00000000000E+00 0.  1.
         11    1    1    2    0    0 -0.15502663129E+02 -0.27751931114E+02  0.16791852130E+02  0.35950918523E+02  0.00000000000E+00 0. -1.
<mgrwt>
<rscale>  0 0.18094103E+03</rscale>
<asrwt>0</asrwt>
<pdfrwt beam="2">  1        1 0.62312899E-01 0.18671216E+03</pdfrwt>
<pdfrwt beam="1">  1       -1 0.13291117E-01 0.18671216E+03</pdfrwt>
<totfact> 0.22944152E+03</totfact>
</mgrwt>
</event>
<event>
 6    1  0.1190675E-005  0.1288411E+03  0.7546771E-02  0.1243163E+00
          1   -1    0    0  501    0  0.00000000000E+00  0.00000000000E+00  0.47433240454E+03  0.47433240454E+03  0.00000000000E+00 0. -1.
         -1   -1    0    0    0  501 -0.00000000000E+00 -0.00000000000E+00 -0.42094708779E+02  0.42094708779E+02  0.00000000000E+00 0.  1.
          5    1    1    2  502    0 -0.40290395302E+02  0.86292862177E+01  0.59619291015E+02  0.72624585337E+02  0.47000000000E+01 0.  1.
         -5    1    1    2    0  502  0.71436765280E+02 -0.61005742143E+01  0.33049168479E+03  0.33821187465E+03  0.47000000000E+01 0.  1.
        -11    1    1    2    0    0  0.12655474901E+02  0.36074219814E+02  0.13300038090E+02  0.40477171262E+02  0.00000000000E+00 0.  1.
         11    1    1    2    0    0 -0.43801844880E+02 -0.38602931817E+02  0.28826681864E+02  0.65113482068E+02  0.00000000000E+00 0. -1.
<mgrwt>
<rscale>  0 0.11995976E+03</rscale>
<asrwt>0</asrwt>
<pdfrwt beam="1">  1        1 0.72974213E-01 0.12884108E+03</pdfrwt>
<pdfrwt beam="2">  1       -1 0.64761094E-02 0.12884108E+03</pdfrwt>
<totfact> 0.55272902E+03</totfact>
</mgrwt>
</event>
<event>
 6    1  0.1190675E-005  0.1453756E+03  0.7546771E-02  0.1220280E+00
          1   -1    0    0  501    0  0.00000000000E+00  0.00000000000E+00  0.12364311932E+03  0.12364311932E+03  0.00000000000E+00 0. -1.
         -1   -1    0    0    0  501 -0.00000000000E+00 -0.00000000000E+00 -0.13236248392E+03  0.13236248392E+03  0.00000000000E+00 0.  1.
          5    1    1    2  502    0 -0.62101751810E+02  0.12457633913E+02  0.62234896890E+02  0.88921834279E+02  0.47000000000E+01 0. -1.
         -5    1    1    2    0  502  0.15078873946E+02  0.23389314388E+02 -0.49531366652E+02  0.57007707808E+02  0.47000000000E+01 0.  1.
        -11    1    1    2    0    0  0.37555373443E+02 -0.63642807566E+02 -0.29583859043E+02  0.79599106435E+02  0.00000000000E+00 0.  1.
         11    1    1    2    0    0  0.94675044213E+01  0.27795859265E+02  0.81609642118E+01  0.30476954722E+02  0.00000000000E+00 0. -1.
<mgrwt>
<rscale>  0 0.13495706E+03</rscale>
<asrwt>0</asrwt>
<pdfrwt beam="1">  1        1 0.19022018E-01 0.14537555E+03</pdfrwt>
<pdfrwt beam="2">  1       -1 0.20363459E-01 0.14537555E+03</pdfrwt>
<totfact> 0.51151433E+03</totfact>
</mgrwt>
</event>
<event>
 6    1  0.1190675E-005  0.1256070E+03  0.7546771E-02  0.1249129E+00
         -1   -1    0    0    0  501 -0.00000000000E+00  0.00000000000E+00  0.20553425870E+03  0.20553425870E+03  0.00000000000E+00 0.  1.
          1   -1    0    0  501    0  0.00000000000E+00 -0.00000000000E+00 -0.71290621552E+02  0.71290621552E+02  0.00000000000E+00 0. -1.
          5    1    1    2  502    0 -0.52025771159E+02  0.31730584835E+01 -0.32747856229E+02  0.61735413276E+02  0.47000000000E+01 0. -1.
         -5    1    1    2    0  502  0.42315733238E+02  0.40804523790E+01  0.48803951612E+02  0.64893659659E+02  0.47000000000E+01 0. -1.
        -11    1    1    2    0    0 -0.31832395850E+02 -0.64723971851E+01  0.99442044240E+02  0.10461316128E+03  0.00000000000E+00 0.  1.
         11    1    1    2    0    0  0.41542433771E+02 -0.78111367736E+00  0.18745497527E+02  0.45582646037E+02  0.00000000000E+00 0. -1.
<mgrwt>
<rscale>  0 0.11641599E+03</rscale>
<asrwt>0</asrwt>
<pdfrwt beam="2">  1        1 0.10967788E-01 0.12560702E+03</pdfrwt>
<pdfrwt beam="1">  1       -1 0.31620655E-01 0.12560702E+03</pdfrwt>
<totfact> 0.50144208E+03</totfact>
</mgrwt>
</event>
<event>
 6    1  0.1190675E-005  0.1321646E+03  0.7546771E-02  0.1237495E+00
          2   -1    0    0  501    0  0.00000000000E+00  0.00000000000E+00  0.16831481314E+04  0.16831481314E+04  0.00000000000E+00 0. -1.
         -2   -1    0    0    0  501 -0.00000000000E+00 -0.00000000000E+00 -0.10289842106E+02  0.10289842106E+02  0.00000000000E+00 0.  1.
          5    1    1    2  502    0  0.10675516022E+02 -0.42800461810E+02  0.53281569618E+03  0.53465923939E+03  0.47000000000E+01 0. -1.
         -5    1    1    2    0  502 -0.29801548752E+02  0.81217074083E+02  0.78441595225E+03  0.78918617675E+03  0.47000000000E+01 0. -1.
        -11    1    1    2    0    0  0.36059342388E+02  0.18705704742E+02  0.16137888248E+03  0.16641311029E+03  0.00000000000E+00 0.  1.
         11    1    1    2    0    0 -0.16933309658E+02 -0.57122317015E+02  0.19424775835E+03  0.20317944704E+03  0.00000000000E+00 0. -1.
<mgrwt>
<rscale>  0 0.12346066E+03</rscale>
<asrwt>0</asrwt>
<pdfrwt beam="1">  1        2 0.25894565E+00 0.13216456E+03</pdfrwt>
<pdfrwt beam="2">  1       -2 0.15830540E-02 0.13216456E+03</pdfrwt>
<totfact> 0.11586249E+04</totfact>
</mgrwt>
</event>
<event>
 6    1  0.1190675E-005  0.1297543E+03  0.7546771E-02  0.1240779E+00
         -1   -1    0    0    0  501 -0.00000000000E+00  0.00000000000E+00  0.27929315968E+02  0.27929315968E+02  0.00000000000E+00 0.  1.
          1   -1    0    0  501    0  0.00000000000E+00 -0.00000000000E+00 -0.67152284828E+03  0.67152284828E+03  0.00000000000E+00 0. -1.
          5    1    1    2  502    0 -0.82718008855E+01  0.48831078252E+02 -0.44252658471E+03  0.44531423183E+03  0.47000000000E+01 0. -1.
         -5    1    1    2    0  502  0.39274657797E+02 -0.32875667203E+02 -0.99269909544E+02  0.11180301060E+03  0.47000000000E+01 0. -1.
        -11    1    1    2    0    0  0.58981374083E+01 -0.44135983636E+02 -0.78823571990E+02  0.90531367921E+02  0.00000000000E+00 0. -1.
         11    1    1    2    0    0 -0.36900994320E+02  0.28180572586E+02 -0.22973466069E+02  0.51803553897E+02  0.00000000000E+00 0.  1.
<mgrwt>
<rscale>  0 0.12141632E+03</rscale>
<asrwt>0</asrwt>
<pdfrwt beam="2">  1        1 0.10331120E+00 0.12975431E+03</pdfrwt>
<pdfrwt beam="1">  1       -1 0.42968182E-02 0.12975431E+03</pdfrwt>
<totfact> 0.63689220E+03</totfact>
</mgrwt>
</event>
<event>
 6    1  0.1190675E-005  0.2378587E+03  0.7546771E-02  0.1121228E+00
         -1   -1    0    0    0  501 -0.00000000000E+00  0.00000000000E+00  0.15008232604E+03  0.15008232604E+03  0.00000000000E+00 0.  1.
          1   -1    0    0  501    0  0.00000000000E+00 -0.00000000000E+00 -0.94242866015E+02  0.94242866015E+02  0.00000000000E+00 0. -1.
          5    1    1    2  502    0 -0.13843919294E+01  0.55344931869E+02  0.78927560079E+02  0.96522680053E+02  0.47000000000E+01 0.  1.
         -5    1    1    2    0  502 -0.46733911703E+01 -0.76495950922E+01 -0.41353475567E+02  0.42574133362E+02  0.47000000000E+01 0.  1.
        -11    1    1    2    0    0 -0.30463235994E+02  0.12624313156E+02  0.83899522587E+01  0.34026068371E+02  0.00000000000E+00 0.  1.
         11    1    1    2    0    0  0.36521019094E+02 -0.60319649932E+02  0.98754232567E+01  0.71202310272E+02  0.00000000000E+00 0. -1.
<mgrwt>
<rscale>  0 0.23785869E+03</rscale>
<asrwt>0</asrwt>
<pdfrwt beam="2">  1        1 0.14498902E-01 0.23785869E+03</pdfrwt>
<pdfrwt beam="1">  1       -1 0.23089589E-01 0.23785869E+03</pdfrwt>
<totfact> 0.61021291E+03</totfact>
</mgrwt>
</event>
<event>
 6    1  0.1190675E-005  0.1253093E+03  0.7546771E-02  0.1249793E+00
          1   -1    0    0  501    0  0.00000000000E+00  0.00000000000E+00  0.20015908941E+03  0.20015908941E+03  0.00000000000E+00 0. -1.
         -1   -1    0    0    0  501 -0.00000000000E+00 -0.00000000000E+00 -0.60354218695E+02  0.60354218695E+02  0.00000000000E+00 0.  1.
          5    1    1    2  502    0 -0.60064184901E+02 -0.12144443771E+02  0.77433554958E+02  0.98859694799E+02  0.47000000000E+01 0.  1.
         -5    1    1    2    0  502  0.56633423308E+02  0.40540515025E+01  0.21867569541E+02  0.61025081457E+02  0.47000000000E+01 0.  1.
        -11    1    1    2    0    0  0.30314648978E+02  0.41746938660E+01  0.59888962326E+02  0.67253950219E+02  0.00000000000E+00 0. -1.
         11    1    1    2    0    0 -0.26883887386E+02  0.39156984021E+01 -0.19385216114E+02  0.33374581626E+02  0.00000000000E+00 0.  1.
<mgrwt>
<rscale>  0 0.11603060E+03</rscale>
<asrwt>0</asrwt>
<pdfrwt beam="1">  1        1 0.30793706E-01 0.12530933E+03</pdfrwt>
<pdfrwt beam="2">  1       -1 0.92852645E-02 0.12530933E+03</pdfrwt>
<totfact> 0.93983285E+03</totfact>
</mgrwt>
</event>
<event>
 6    1  0.1190675E-005  0.8514155E+03  0.7546771E-02  0.1006415E+00
          2   -1    0    0  501    0  0.00000000000E+00  0.00000000000E+00  0.16176151833E+04  0.16176151833E+04  0.00000000000E+00 0. -1.
         -2   -1    0    0    0  501 -0.00000000000E+00 -0.00000000000E+00 -0.16595693276E+03  0.16595693276E+03  0.00000000000E+00 0.  1.
          5    1    1    2  502    0  0.70924532856E+02  0.29159815214E+03  0.14077840583E+04  0.14394227372E+04  0.47000000000E+01 0. -1.
         -5    1    1    2    0  502 -0.45680592004E+02 -0.20663389506E+03  0.69941689210E+01  0.21179067844E+03  0.47000000000E+01 0.  1.
        -11    1    1    2    0    0 -0.56159621814E+02 -0.33738780952E+02  0.82579154090E+01  0.66033337257E+02  0.00000000000E+00 0. -1.
         11    1    1    2    0    0  0.30915680961E+02 -0.51225476123E+02  0.28622107947E+02  0.66325363147E+02  0.00000000000E+00 0.  1.
<mgrwt>
<rscale>  0 0.52924519E+03</rscale>
<asrwt>0</asrwt>
<pdfrwt beam="1">  1        2 0.24886386E+00 0.85141548E+03</pdfrwt>
<pdfrwt beam="2">  1       -2 0.25531837E-01 0.85141548E+03</pdfrwt>
<totfact> 0.15182826E+02</totfact>
</mgrwt>
</event>
<event>
 6    1  0.1190675E-005  0.1352981E+03  0.7546771E-02  0.1232057E+00
          2   -1    0    0  501    0  0.00000000000E+00  0.00000000000E+00  0.80903814432E+03  0.80903814432E+03  0.00000000000E+00 0. -1.
         -2   -1    0    0    0  501 -0.00000000000E+00 -0.00000000000E+00 -0.17904360121E+02  0.17904360121E+02  0.00000000000E+00 0.  1.
          5    1    1    2  502    0  0.92154042346E+01  0.55685101434E+02  0.11528608821E+03  0.12844736794E+03  0.47000000000E+01 0. -1.
         -5    1    1    2    0  502  0.42546832235E+02 -0.56536206687E+02  0.30248912483E+03  0.31069009679E+03  0.47000000000E+01 0. -1.
        -11    1    1    2    0    0 -0.37494566939E+02 -0.43991132044E+02  0.20430931124E+03  0.21232841757E+03  0.00000000000E+00 0. -1.
         11    1    1    2    0    0 -0.14267669531E+02  0.44842237297E+02  0.16904925992E+03  0.17547662215E+03  0.00000000000E+00 0.  1.
<mgrwt>
<rscale>  0 0.12694740E+03</rscale>
<asrwt>0</asrwt>
<pdfrwt beam="1">  1        2 0.12446738E+00 0.13529813E+03</pdfrwt>
<pdfrwt beam="2">  1       -2 0.27545176E-02 0.13529813E+03</pdfrwt>
<totfact> 0.16018416E+04</totfact>
</mgrwt>
</event>
<event>
 6    1  0.1190675E-005  0.1366528E+03  0.7546771E-02  0.1229862E+00
         -1   -1    0    0    0  501 -0.00000000000E+00  0.00000000000E+00  0.27364988637E+02  0.27364988637E+02  0.00000000000E+00 0.  1.
          1   -1    0    0  501    0  0.00000000000E+00 -0.00000000000E+00 -0.55013718266E+03  0.55013718266E+03  0.00000000000E+00 0. -1.
          5    1    1    2  502    0 -0.86981210904E+02  0.20708625167E+02 -0.20428602496E+03  0.22304584327E+03  0.47000000000E+01 0.  1.
         -5    1    1    2    0  502  0.44224569487E+02  0.14187208569E+02 -0.12769664566E+03  0.13596180620E+03  0.47000000000E+01 0.  1.
        -11    1    1    2    0    0 -0.25941371080E+02  0.36203948875E+01 -0.32912093422E+02  0.42062666179E+02  0.00000000000E+00 0.  1.
         11    1    1    2    0    0  0.68698012497E+02 -0.38516228624E+02 -0.15787742998E+03  0.17643185564E+03  0.00000000000E+00 0. -1.
<mgrwt>
<rscale>  0 0.12839168E+03</rscale>
<asrwt>0</asrwt>
<pdfrwt beam="2">  1        1 0.84636492E-01 0.13665284E+03</pdfrwt>
<pdfrwt beam="1">  1       -1 0.42099981E-02 0.13665284E+03</pdfrwt>
<totfact> 0.86451325E+03</totfact>
</mgrwt>
</event>
<event>
 6    1  0.1190675E-005  0.1524384E+03  0.7546771E-02  0.1206475E+00
         -2   -1    0    0    0  501 -0.00000000000E+00  0.00000000000E+00  0.15867531983E+03  0.15867531983E+03  0.00000000000E+00 0. -1.
          2   -1    0    0  501    0  0.00000000000E+00 -0.00000000000E+00 -0.18658315320E+03  0.18658315320E+03  0.00000000000E+00 0.  1.
          5    1    1    2  502    0  0.22041823704E+02  0.60030183477E+02 -0.38843788604E+02  0.74969292604E+02  0.47000000000E+01 0. -1.
         -5    1    1    2    0  502 -0.87230858015E+02 -0.20446091060E+01 -0.77440186211E+02  0.11675819225E+03  0.47000000000E+01 0. -1.
        -11    1    1    2    0    0 -0.54345667850E+01 -0.20040980653E+02  0.67591221883E+02  0.70708901118E+02  0.00000000000E+00 0. -1.
         11    1    1    2    0    0  0.70623601095E+02 -0.37944593718E+02  0.20784919553E+02  0.82822087060E+02  0.00000000000E+00 0.  1.
<mgrwt>
<rscale>  0 0.14521792E+03</rscale>
<asrwt>0</asrwt>
<pdfrwt beam="2">  1        2 0.28705100E-01 0.15243840E+03</pdfrwt>
<pdfrwt beam="1">  1       -2 0.24411588E-01 0.15243840E+03</pdfrwt>
<totfact> 0.26584143E+03</totfact>
</mgrwt>
</event>
<event>
 6    1  0.1190675E-005  0.1311345E+03  0.7546771E-02  0.1241090E+00
         -2   -1    0    0    0  501 -0.00000000000E+00  0.00000000000E+00  0.12254262501E+03  0.12254262501E+03  0.00000000000E+00 0.  1.
          2   -1    0    0  501    0  0.00000000000E+00 -0.00000000000E+00 -0.11570156458E+03  0.11570156458E+03  0.00000000000E+00 0. -1.
          5    1    1    2  502    0 -0.19903027527E+02 -0.11477983274E+01 -0.64517534357E+02  0.67690842699E+02  0.47000000000E+01 0. -1.
         -5    1    1    2    0  502  0.57484549671E+02 -0.11455934169E+02  0.32651171566E+02  0.67259950069E+02  0.47000000000E+01 0. -1.
        -11    1    1    2    0    0  0.25335985174E+02  0.19963416289E+02  0.15940711981E+02  0.35979944874E+02  0.00000000000E+00 0. -1.
         11    1    1    2    0    0 -0.62917507318E+02 -0.73596837924E+01  0.22766711233E+02  0.67313451947E+02  0.00000000000E+00 0.  1.
<mgrwt>
<rscale>  0 0.12122475E+03</rscale>
<asrwt>0</asrwt>
<pdfrwt beam="2">  1        2 0.17800241E-01 0.13113448E+03</pdfrwt>
<pdfrwt beam="1">  1       -2 0.18852711E-01 0.13113448E+03</pdfrwt>
<totfact> 0.69910644E+03</totfact>
</mgrwt>
</event>
<event>
 6    1  0.1190675E-005  0.1646884E+03  0.7546771E-02  0.1190846E+00
          1   -1    0    0  501    0  0.00000000000E+00  0.00000000000E+00  0.20573190314E+04  0.20573190314E+04  0.00000000000E+00 0. -1.
         -1   -1    0    0    0  501 -0.00000000000E+00 -0.00000000000E+00 -0.11506205253E+02  0.11506205253E+02  0.00000000000E+00 0.  1.
          5    1    1    2  502    0  0.53387454017E+02  0.11588322700E+03  0.11067468151E+04  0.11140869559E+04  0.47000000000E+01 0. -1.
         -5    1    1    2    0  502 -0.28251556781E+02 -0.13657421385E+02  0.14390458828E+03  0.14736110799E+03  0.47000000000E+01 0. -1.
        -11    1    1    2    0    0 -0.13120314179E+02  0.16217854868E+02  0.11670867173E+03  0.11855832116E+03  0.00000000000E+00 0.  1.
         11    1    1    2    0    0 -0.12015583057E+02 -0.11844366048E+03  0.67845275099E+03  0.68881885156E+03  0.00000000000E+00 0. -1.
<mgrwt>
<rscale>  0 0.15811149E+03</rscale>
<asrwt>0</asrwt>
<pdfrwt beam="1">  1        1 0.31651033E+00 0.16468845E+03</pdfrwt>
<pdfrwt beam="2">  1       -1 0.17701871E-02 0.16468845E+03</pdfrwt>
<totfact> 0.25388469E+03</totfact>
</mgrwt>
</event>
<event>
 6    1  0.1190675E-005  0.1505549E+03  0.7546771E-02  0.1211298E+00
          2   -1    0    0  501    0  0.00000000000E+00  0.00000000000E+00  0.62864256209E+03  0.62864256209E+03  0.00000000000E+00 0. -1.
         -2   -1    0    0    0  501 -0.00000000000E+00 -0.00000000000E+00 -0.58418716229E+02  0.58418716229E+02  0.00000000000E+00 0.  1.
          5    1    1    2  502    0 -0.13377450697E+02  0.92196404681E+01  0.43107104548E+03  0.43140270538E+03  0.47000000000E+01 0. -1.
         -5    1    1    2    0  502 -0.42219836144E+02 -0.56845419091E+02  0.11580728225E+03  0.13582095883E+03  0.47000000000E+01 0.  1.
        -11    1    1    2    0    0  0.63448995758E+02  0.69615729353E+02  0.18677810487E+02  0.96025962326E+02  0.00000000000E+00 0.  1.
         11    1    1    2    0    0 -0.78517089177E+01 -0.21989950730E+02  0.46677076468E+01  0.23811651784E+02  0.00000000000E+00 0. -1.
<mgrwt>
<rscale>  0 0.14152043E+03</rscale>
<asrwt>0</asrwt>
<pdfrwt beam="1">  1        2 0.96714235E-01 0.15055491E+03</pdfrwt>
<pdfrwt beam="2">  1       -2 0.89874953E-02 0.15055491E+03</pdfrwt>
<totfact> 0.36710807E+03</totfact>
</mgrwt>
</event>
<event>
 6    1  0.1190675E-005  0.1222582E+03  0.7546771E-02  0.1249055E+00
         -2   -1    0    0    0  501 -0.00000000000E+00  0.00000000000E+00  0.28034555396E+03  0.28034555396E+03  0.00000000000E+00 0.  1.
          2   -1    0    0  501    0  0.00000000000E+00 -0.00000000000E+00 -0.65446296262E+02  0.65446296262E+02  0.00000000000E+00 0. -1.
          5    1    1    2  502    0  0.42507966011E+02  0.61725089932E+02 -0.12582475327E+02  0.76140150951E+02  0.47000000000E+01 0. -1.
         -5    1    1    2    0  502 -0.31136343384E+02 -0.19749400347E+02  0.29147192212E+02  0.47235151183E+02  0.47000000000E+01 0.  1.
        -11    1    1    2    0    0  0.14885124807E+02 -0.21154257118E+02  0.51841351999E+01  0.26380765579E+02  0.00000000000E+00 0. -1.
         11    1    1    2    0    0 -0.26256747433E+02 -0.20821432467E+02  0.19315040561E+03  0.19603578251E+03  0.00000000000E+00 0.  1.
<mgrwt>
<rscale>  0 0.11645907E+03</rscale>
<asrwt>0</asrwt>
<pdfrwt beam="2">  1        2 0.10068661E-01 0.12225823E+03</pdfrwt>
<pdfrwt beam="1">  1       -2 0.43130085E-01 0.12225823E+03</pdfrwt>
<totfact> 0.31162294E+03</totfact>
</mgrwt>
</event>
<event>
 6    1  0.1190675E-005  0.2266374E+03  0.7546771E-02  0.1132149E+00
          2   -1    0    0  501    0  0.00000000000E+00  0.00000000000E+00  0.85011015730E+03  0.85011015730E+03  0.00000000000E+00 0. -1.
         -2   -1    0    0    0  501 -0.00000000000E+00 -0.00000000000E+00 -0.56298987213E+02  0.56298987213E+02  0.00000000000E+00 0.  1.
          5    1    1    2  502    0  0.10958072484E+03 -0.15391859858E+03  0.31011639922E+03  0.36317095329E+03  0.47000000000E+01 0. -1.
         -5    1    1    2    0  502 -0.32082979051E+02 -0.18513004907E+02  0.71823841237E+02  0.80949385825E+02  0.47000000000E+01 0. -1.
        -11    1    1    2    0    0 -0.27216951716E+02  0.13835486300E+02  0.14206746274E+03  0.14531120779E+03  0.00000000000E+00 0.  1.
         11    1    1    2    0    0 -0.50280794075E+02  0.15859611718E+03  0.26980346689E+03  0.31697759761E+03  0.00000000000E+00 0. -1.
<mgrwt>
<rscale>  0 0.22234156E+03</rscale>
<asrwt>0</asrwt>
<pdfrwt beam="1">  1        2 0.13078617E+00 0.22663744E+03</pdfrwt>
<pdfrwt beam="2">  1       -2 0.86613833E-02 0.22663744E+03</pdfrwt>
<totfact> 0.27209600E+03</totfact>
</mgrwt>
</event>
<event>
 6    1  0.1190675E-005  0.1313170E+03  0.7546771E-02  0.1239033E+00
         -1   -1    0    0    0  501 -0.00000000000E+00  0.00000000000E+00  0.20690294187E+02  0.20690294187E+02  0.00000000000E+00 0.  1.
          1   -1    0    0  501    0  0.00000000000E+00 -0.00000000000E+00 -0.76308732821E+03  0.76308732821E+03  0.00000000000E+00 0. -1.
          5    1    1    2  502    0 -0.11516760086E+02  0.19973288736E+02 -0.53657671625E+03  0.53709238540E+03  0.47000000000E+01 0. -1.
         -5    1    1    2    0  502 -0.28610974337E+02 -0.16980511265E+02 -0.31821338811E+02  0.46277567125E+02  0.47000000000E+01 0. -1.
        -11    1    1    2    0    0  0.35166681708E+02  0.25027782785E+02 -0.16501503471E+03  0.17056684054E+03  0.00000000000E+00 0. -1.
         11    1    1    2    0    0  0.49610527145E+01 -0.28020560256E+02 -0.89839442558E+01  0.29840829336E+02  0.00000000000E+00 0.  1.
<mgrwt>
<rscale>  0 0.12249744E+03</rscale>
<asrwt>0</asrwt>
<pdfrwt beam="2">  1        1 0.11739805E+00 0.13131699E+03</pdfrwt>
<pdfrwt beam="1">  1       -1 0.31831221E-02 0.13131699E+03</pdfrwt>
<totfact> 0.82249133E+03</totfact>
</mgrwt>
</event>
<event>
 6    1  0.1190675E-005  0.1378018E+03  0.7546771E-02  0.1227722E+00
         -1   -1    0    0    0  501 -0.00000000000E+00  0.00000000000E+00  0.18971947430E+02  0.18971947430E+02  0.00000000000E+00 0.  1.
          1   -1    0    0  501    0  0.00000000000E+00 -0.00000000000E+00 -0.80662511581E+03  0.80662511581E+03  0.00000000000E+00 0. -1.
          5    1    1    2  502    0  0.38565811141E+02  0.34110787940E+02 -0.25692067536E+03  0.26207096572E+03  0.47000000000E+01 0.  1.
         -5    1    1    2    0  502 -0.80495294775E+02  0.59614189088E+01 -0.22126888273E+03  0.23557809631E+03  0.47000000000E+01 0.  1.
        -11    1    1    2    0    0  0.54007853710E+02  0.71257799985E+01 -0.21331027741E+03  0.22015653398E+03  0.00000000000E+00 0. -1.
         11    1    1    2    0    0 -0.12078370076E+02 -0.47197986847E+02 -0.96153332870E+02  0.10779146723E+03  0.00000000000E+00 0.  1.
<mgrwt>
<rscale>  0 0.12982081E+03</rscale>
<asrwt>0</asrwt>
<pdfrwt beam="2">  1        1 0.12409619E+00 0.13780180E+03</pdfrwt>
<pdfrwt beam="1">  1       -1 0.29187607E-02 0.13780180E+03</pdfrwt>
<totfact> 0.86137434E+03</totfact>
</mgrwt>
</event>
<event>
 6    1  0.1190675E-005  0.1279173E+03  0.7546771E-02  0.1244975E+00
         -1   -1    0    0    0  501 -0.00000000000E+00  0.00000000000E+00  0.91574739819E+02  0.91574739819E+02  0.00000000000E+00 0.  1.
          1   -1    0    0  501    0  0.00000000000E+00 -0.00000000000E+00 -0.13614124215E+03  0.13614124215E+03  0.00000000000E+00 0. -1.
          5    1    1    2  502    0  0.15585962067E+02  0.43326726061E+02  0.38605056776E+02  0.60270787396E+02  0.47000000000E+01 0.  1.
         -5    1    1    2    0  502  0.50910339964E+01 -0.25746946296E+02 -0.65117974286E+02  0.70365221849E+02  0.47000000000E+01 0.  1.
        -11    1    1    2    0    0  0.34966208197E+02  0.20494479689E+01  0.11045727931E+01  0.35043630430E+02  0.00000000000E+00 0.  1.
         11    1    1    2    0    0 -0.55643204261E+02 -0.19629227734E+02 -0.19158157610E+02  0.62036342291E+02  0.00000000000E+00 0. -1.
<mgrwt>
<rscale>  0 0.11886902E+03</rscale>
<asrwt>0</asrwt>
<pdfrwt beam="2">  1        1 0.20944806E-01 0.12791729E+03</pdfrwt>
<pdfrwt beam="1">  1       -1 0.14088422E-01 0.12791729E+03</pdfrwt>
<totfact> 0.80376857E+03</totfact>
</mgrwt>
</event>
<event>
 6    1  0.1190675E-005  0.2157417E+03  0.7546771E-02  0.1140357E+00
         -3   -1    0    0    0  501 -0.00000000000E+00  0.00000000000E+00  0.17288762224E+03  0.17288762224E+03  0.00000000000E+00 0.  1.
          3   -1    0    0  501    0  0.00000000000E+00 -0.00000000000E+00 -0.33595105411E+03  0.33595105411E+03  0.00000000000E+00 0. -1.
          5    1    1    2  502    0  0.33528432705E+02  0.12824253575E+03 -0.68539902955E+02  0.14929873433E+03  0.47000000000E+01 0.  1.
         -5    1    1    2    0  502  0.43321430818E+02  0.30014338943E+02 -0.14457946002E+03  0.15395751742E+03  0.47000000000E+01 0.  1.
        -11    1    1    2    0    0 -0.94448726040E+01 -0.11508017238E+03  0.49246804125E+02  0.12553047203E+03  0.00000000000E+00 0. -1.
         11    1    1    2    0    0 -0.67404990919E+02 -0.43176702318E+02  0.80912697260E+00  0.80051952570E+02  0.00000000000E+00 0.  1.
<mgrwt>
<rscale>  0 0.21153362E+03</rscale>
<asrwt>0</asrwt>
<pdfrwt beam="2">  1        3 0.51684777E-01 0.21574172E+03</pdfrwt>
<pdfrwt beam="1">  1       -3 0.26598096E-01 0.21574172E+03</pdfrwt>
<totfact> 0.12333158E+02</totfact>
</mgrwt>
</event>
<event>
 6    1  0.1190675E-005  0.2507751E+03  0.7546771E-02  0.1115255E+00
         -2   -1    0    0    0  501 -0.00000000000E+00  0.00000000000E+00  0.45452548776E+02  0.45452548776E+02  0.00000000000E+00 0.  1.
          2   -1    0    0  501    0  0.00000000000E+00 -0.00000000000E+00 -0.14796391656E+04  0.14796391656E+04  0.00000000000E+00 0. -1.
          5    1    1    2  502    0  0.13276455170E+03 -0.41088275815E+02 -0.36857780092E+03  0.39393699740E+03  0.47000000000E+01 0. -1.
         -5    1    1    2    0  502  0.82932235213E+02  0.13956615872E+02 -0.63199968038E+03  0.63758782043E+03  0.47000000000E+01 0. -1.
        -11    1    1    2    0    0 -0.13472658690E+03  0.25254103389E+02 -0.17334611529E+03  0.22099298324E+03  0.00000000000E+00 0.  1.
         11    1    1    2    0    0 -0.80970200010E+02  0.18775565544E+01 -0.26026302028E+03  0.27257391334E+03  0.00000000000E+00 0. -1.
<mgrwt>
<rscale>  0 0.24693876E+03</rscale>
<asrwt>0</asrwt>
<pdfrwt beam="2">  1        2 0.22763681E+00 0.25077511E+03</pdfrwt>
<pdfrwt beam="1">  1       -2 0.69926994E-02 0.25077511E+03</pdfrwt>
<totfact> 0.16354705E+03</totfact>
</mgrwt>
</event>
<event>
 6    1  0.1190675E-005  0.1312957E+03  0.7546771E-02  0.1238377E+00
         -2   -1    0    0    0  501 -0.00000000000E+00  0.00000000000E+00  0.28827920883E+02  0.28827920883E+02  0.00000000000E+00 0.  1.
          2   -1    0    0  501    0  0.00000000000E+00 -0.00000000000E+00 -0.49138072047E+03  0.49138072047E+03  0.00000000000E+00 0. -1.
          5    1    1    2  502    0 -0.12921046338E+02  0.53376821397E+02 -0.14661074937E+03  0.15662962788E+03  0.47000000000E+01 0.  1.
         -5    1    1    2    0  502  0.53082243369E+02 -0.53902726019E+02 -0.17070763034E+03  0.18677904992E+03  0.47000000000E+01 0.  1.
        -11    1    1    2    0    0 -0.36471922144E+01 -0.11632594782E+02  0.10679130950E+02  0.16206884656E+02  0.00000000000E+00 0.  1.
         11    1    1    2    0    0 -0.36514004816E+02  0.12158499404E+02 -0.15591355083E+03  0.16059307889E+03  0.00000000000E+00 0. -1.
<mgrwt>
<rscale>  0 0.12290721E+03</rscale>
<asrwt>0</asrwt>
<pdfrwt beam="2">  1        2 0.75597033E-01 0.13129572E+03</pdfrwt>
<pdfrwt beam="1">  1       -2 0.44350648E-02 0.13129572E+03</pdfrwt>
<totfact> 0.14083721E+04</totfact>
</mgrwt>
</event>
<event>
 6    1  0.1190675E-005  0.1953965E+03  0.7546771E-02  0.1157952E+00
         -2   -1    0    0    0  501 -0.00000000000E+00  0.00000000000E+00  0.29870090496E+02  0.29870090496E+02  0.00000000000E+00 0.  1.
          2   -1    0    0  501    0  0.00000000000E+00 -0.00000000000E+00 -0.14881778991E+04  0.14881778991E+04  0.00000000000E+00 0. -1.
          5    1    1    2  502    0 -0.18377167309E+02 -0.54953730968E+02 -0.38131540368E+03  0.38572160934E+03  0.47000000000E+01 0. -1.
         -5    1    1    2    0  502  0.12762427661E+03 -0.48093178407E+02 -0.73271946602E+03  0.74531927096E+03  0.47000000000E+01 0. -1.
        -11    1    1    2    0    0 -0.58042013570E+02  0.10767905580E+03 -0.27272119366E+03  0.29889881878E+03  0.00000000000E+00 0. -1.
         11    1    1    2    0    0 -0.51205095733E+02 -0.46321464204E+01 -0.71551745237E+02  0.88108290506E+02  0.00000000000E+00 0.  1.
<mgrwt>
<rscale>  0 0.19056578E+03</rscale>
<asrwt>0</asrwt>
<pdfrwt beam="2">  1        2 0.22895040E+00 0.19539647E+03</pdfrwt>
<pdfrwt beam="1">  1       -2 0.45953994E-02 0.19539647E+03</pdfrwt>
<totfact> 0.30771686E+03</totfact>
</mgrwt>
</event>
<event>
 6    1  0.1190675E-005  0.2215000E+03  0.7546771E-02  0.1138163E+00
          2   -1    0    0  501    0  0.00000000000E+00  0.00000000000E+00  0.71376681593E+03  0.71376681593E+03  0.00000000000E+00 0. -1.
         -2   -1    0    0    0  501 -0.00000000000E+00 -0.00000000000E+00 -0.69357955500E+02  0.69357955500E+02  0.00000000000E+00 0.  1.
          5    1    1    2  502    0 -0.15232755973E+03  0.69542565335E+02  0.33711334816E+03  0.37644037158E+03  0.47000000000E+01 0. -1.
         -5    1    1    2    0  502 -0.28689444729E+02 -0.43637851784E+02  0.14280951528E+03  0.15213150234E+03  0.47000000000E+01 0. -1.
        -11    1    1    2    0    0  0.30612363751E+02  0.12599393550E+02  0.78736603517E+01  0.34027284047E+02  0.00000000000E+00 0.  1.
         11    1    1    2    0    0  0.15040464071E+03 -0.38504107102E+02  0.15661233664E+03  0.22052561347E+03  0.00000000000E+00 0. -1.
<mgrwt>
<rscale>  0 0.21435460E+03</rscale>
<asrwt>0</asrwt>
<pdfrwt beam="1">  1        2 0.10981027E+00 0.22150005E+03</pdfrwt>
<pdfrwt beam="2">  1       -2 0.10670455E-01 0.22150005E+03</pdfrwt>
<totfact> 0.24346503E+03</totfact>
</mgrwt>
</event>
<event>
 6    1  0.1190675E-005  0.1346364E+03  0.7546771E-02  0.1232318E+00
         -2   -1    0    0    0  501 -0.00000000000E+00  0.00000000000E+00  0.25936383391E+03  0.25936383391E+03  0.00000000000E+00 0.  1.
          2   -1    0    0  501    0  0.00000000000E+00 -0.00000000000E+00 -0.62165971740E+02  0.62165971740E+02  0.00000000000E+00 0. -1.
          5    1    1    2  502    0  0.72448779276E+02  0.19636278275E+02 -0.71973063951E+01  0.75553294187E+02  0.47000000000E+01 0.  1.
         -5    1    1    2    0  502 -0.27869494899E+02  0.30703909513E+01  0.65041095184E+02  0.70982886031E+02  0.47000000000E+01 0.  1.
        -11    1    1    2    0    0  0.12130694886E+02 -0.16176199807E+02 -0.40716039270E+01  0.20625255323E+02  0.00000000000E+00 0. -1.
         11    1    1    2    0    0 -0.56709979263E+02 -0.65304694197E+01  0.14342567731E+03  0.15436837011E+03  0.00000000000E+00 0.  1.
<mgrwt>
<rscale>  0 0.12677674E+03</rscale>
<asrwt>0</asrwt>
<pdfrwt beam="2">  1        2 0.95639958E-02 0.13463636E+03</pdfrwt>
<pdfrwt beam="1">  1       -2 0.39902128E-01 0.13463636E+03</pdfrwt>
<totfact> 0.38732001E+03</totfact>
</mgrwt>
</event>
<event>
 6    1  0.1190675E-005  0.3069446E+03  0.7546771E-02  0.1081820E+00
          1   -1    0    0  501    0  0.00000000000E+00  0.00000000000E+00  0.31235889611E+02  0.31235889611E+02  0.00000000000E+00 0. -1.
         -1   -1    0    0    0  501 -0.00000000000E+00 -0.00000000000E+00 -0.75406032123E+03  0.75406032123E+03  0.00000000000E+00 0.  1.
          5    1    1    2  502    0 -0.74791376327E+02  0.74835949971E+02 -0.14842879306E+03  0.18233860258E+03  0.47000000000E+01 0.  1.
         -5    1    1    2    0  502 -0.93646765387E+01 -0.64728578017E+01 -0.23433931611E+03  0.23466273698E+03  0.47000000000E+01 0.  1.
        -11    1    1    2    0    0  0.71727949031E+02 -0.32476234389E+02 -0.11087687647E+03  0.13599002246E+03  0.00000000000E+00 0. -1.
         11    1    1    2    0    0  0.12428103834E+02 -0.35886857780E+02 -0.22917944598E+03  0.23230484882E+03  0.00000000000E+00 0.  1.
<mgrwt>
<rscale>  0 0.30694459E+03</rscale>
<asrwt>0</asrwt>
<pdfrwt beam="1">  1        1 0.48055218E-02 0.30694459E+03</pdfrwt>
<pdfrwt beam="2">  1       -1 0.11600927E+00 0.30694459E+03</pdfrwt>
<totfact> 0.12629279E+03</totfact>
</mgrwt>
</event>
<event>
 6    1  0.1190675E-005  0.2850609E+03  0.7546771E-02  0.1137831E+00
          1   -1    0    0  501    0  0.00000000000E+00  0.00000000000E+00  0.21286045751E+04  0.21286045751E+04  0.00000000000E+00 0. -1.
         -1   -1    0    0    0  501 -0.00000000000E+00 -0.00000000000E+00 -0.17003384281E+02  0.17003384281E+02  0.00000000000E+00 0.  1.
          5    1    1    2  502    0 -0.99884419620E+02 -0.10657311865E+03  0.70622476093E+03  0.72118668169E+03  0.47000000000E+01 0. -1.
         -5    1    1    2    0  502  0.80486328646E+02  0.10431196687E+03  0.10066319870E+04  0.10152285865E+04  0.47000000000E+01 0.  1.
        -11    1    1    2    0    0  0.25166878294E+02 -0.39690899243E+02  0.16152930459E+03  0.16822739220E+03  0.00000000000E+00 0. -1.
         11    1    1    2    0    0 -0.57687873200E+01  0.41952051024E+02  0.23721513830E+03  0.24096529902E+03  0.00000000000E+00 0.  1.
<mgrwt>
<rscale>  0 0.21478598E+03</rscale>
<asrwt>0</asrwt>
<pdfrwt beam="1">  1        1 0.32747742E+00 0.28506095E+03</pdfrwt>
<pdfrwt beam="2">  1       -1 0.26159070E-02 0.28506095E+03</pdfrwt>
<totfact> 0.12830959E+03</totfact>
</mgrwt>
</event>
<event>
 6    1  0.1190675E-005  0.3906626E+03  0.7546771E-02  0.1066356E+00
          2   -1    0    0  501    0  0.00000000000E+00  0.00000000000E+00  0.19220372174E+04  0.19220372174E+04  0.00000000000E+00 0. -1.
         -2   -1    0    0    0  501 -0.00000000000E+00 -0.00000000000E+00 -0.64396842316E+02  0.64396842316E+02  0.00000000000E+00 0.  1.
          5    1    1    2  502    0 -0.43957321624E+02  0.21682497428E+03  0.11866756324E+04  0.12071315016E+04  0.47000000000E+01 0. -1.
         -5    1    1    2    0  502  0.14430733556E+03 -0.35670628139E+02  0.39488028740E+03  0.42195915938E+03  0.47000000000E+01 0.  1.
        -11    1    1    2    0    0 -0.91009380429E+02 -0.80352956702E+02  0.18431193914E+03  0.22070386469E+03  0.00000000000E+00 0. -1.
         11    1    1    2    0    0 -0.93406335106E+01 -0.10080138944E+03  0.91772516131E+02  0.13663953405E+03  0.00000000000E+00 0.  1.
<mgrwt>
<rscale>  0 0.34103378E+03</rscale>
<asrwt>0</asrwt>
<pdfrwt beam="1">  1        2 0.29569799E+00 0.39066258E+03</pdfrwt>
<pdfrwt beam="2">  1       -2 0.99072080E-02 0.39066258E+03</pdfrwt>
<totfact> 0.54202964E+02</totfact>
</mgrwt>
</event>
<event>
 6    1  0.1190675E-005  0.3895953E+03  0.7546771E-02  0.1048269E+00
         -1   -1    0    0    0  501 -0.00000000000E+00  0.00000000000E+00  0.55815832610E+03  0.55815832610E+03  0.00000000000E+00 0.  1.
          1   -1    0    0  501    0  0.00000000000E+00 -0.00000000000E+00 -0.32461198308E+03  0.32461198308E+03  0.00000000000E+00 0. -1.
          5    1    1    2  502    0 -0.38178236619E+02 -0.47918839117E+02  0.28932784488E+01  0.61516290150E+02  0.47000000000E+01 0. -1.
         -5    1    1    2    0  502  0.61793826107E+02 -0.32032387268E+03 -0.73143521876E+02  0.33436196726E+03  0.47000000000E+01 0. -1.
        -11    1    1    2    0    0  0.37987896204E+01  0.31526797807E+03  0.28315131990E+03  0.42377234308E+03  0.00000000000E+00 0.  1.
         11    1    1    2    0    0 -0.27414379108E+02  0.52974733728E+02  0.20645266551E+02  0.63119708700E+02  0.00000000000E+00 0. -1.
<mgrwt>
<rscale>  0 0.38729837E+03</rscale>
<asrwt>0</asrwt>
<pdfrwt beam="2">  1        1 0.49940305E-01 0.38959530E+03</pdfrwt>
<pdfrwt beam="1">  1       -1 0.85870512E-01 0.38959530E+03</pdfrwt>
<totfact> 0.11077517E+02</totfact>
</mgrwt>
</event>
<event>
 6    1  0.1190675E-005  0.3246832E+03  0.7546771E-02  0.1073514E+00
         -2   -1    0    0    0  501 -0.00000000000E+00  0.00000000000E+00  0.35981258664E+02  0.35981258664E+02  0.00000000000E+00 0.  1.
          2   -1    0    0  501    0  0.00000000000E+00 -0.00000000000E+00 -0.73245883982E+03  0.73245883982E+03  0.00000000000E+00 0. -1.
          5    1    1    2  502    0  0.69823363942E+01 -0.40669279984E+01 -0.25666250638E+03  0.25683267921E+03  0.47000000000E+01 0.  1.
         -5    1    1    2    0  502 -0.96473896036E+02  0.64658399091E+02 -0.24140881277E+03  0.26793324928E+03  0.47000000000E+01 0.  1.
        -11    1    1    2    0    0  0.89777144990E+02 -0.15192720058E+02 -0.16050448377E+03  0.18453304261E+03  0.00000000000E+00 0. -1.
         11    1    1    2    0    0 -0.28558534840E+00 -0.45398751035E+02 -0.37901778231E+02  0.59141127379E+02  0.00000000000E+00 0.  1.
<mgrwt>
<rscale>  0 0.32468317E+03</rscale>
<asrwt>0</asrwt>
<pdfrwt beam="2">  1        2 0.11268596E+00 0.32468317E+03</pdfrwt>
<pdfrwt beam="1">  1       -2 0.55355790E-02 0.32468317E+03</pdfrwt>
<totfact> 0.66614454E+03</totfact>
</mgrwt>
</event>
<event>
 6    1  0.1190675E-005  0.1384755E+03  0.7546771E-02  0.1228244E+00
         -2   -1    0    0    0  501 -0.00000000000E+00  0.00000000000E+00  0.28887010597E+02  0.28887010597E+02  0.00000000000E+00 0. -1.
          2   -1    0    0  501    0  0.00000000000E+00 -0.00000000000E+00 -0.10511844317E+04  0.10511844317E+04  0.00000000000E+00 0.  1.
          5    1    1    2  502    0  0.49342813605E+02 -0.35186207911E+02 -0.20872632667E+03  0.21739722153E+03  0.47000000000E+01 0.  1.
         -5    1    1    2    0  502  0.90740400743E+01  0.46936641217E+02 -0.71945591727E+03  0.72105776010E+03  0.47000000000E+01 0.  1.
        -11    1    1    2    0    0 -0.21564718278E+02 -0.88603453677E+00  0.14769233822E+02  0.26152483616E+02  0.00000000000E+00 0. -1.
         11    1    1    2    0    0 -0.36852135401E+02 -0.10864398769E+02 -0.10888441099E+03  0.11546397707E+03  0.00000000000E+00 0.  1.
<mgrwt>
<rscale>  0 0.12947031E+03</rscale>
<asrwt>0</asrwt>
<pdfrwt beam="2">  1        2 0.16172069E+00 0.13847554E+03</pdfrwt>
<pdfrwt beam="1">  1       -2 0.44441553E-02 0.13847554E+03</pdfrwt>
<totfact> 0.55886060E+03</totfact>
</mgrwt>
</event>
<event>
 6    1  0.1190675E-005  0.1126538E+03  0.7546771E-02  0.1264829E+00
          1   -1    0    0  501    0  0.00000000000E+00  0.00000000000E+00  0.47875000966E+03  0.47875000966E+03  0.00000000000E+00 0. -1.
         -1   -1    0    0    0  501 -0.00000000000E+00 -0.00000000000E+00 -0.23179382019E+02  0.23179382019E+02  0.00000000000E+00 0.  1.
          5    1    1    2  502    0 -0.18512763807E+02  0.21026483895E+02  0.29238935314E+03  0.29376599408E+03  0.47000000000E+01 0. -1.
         -5    1    1    2    0  502  0.15216530348E+01 -0.21046578004E+02  0.23224273427E+01  0.21742988350E+02  0.47000000000E+01 0.  1.
        -11    1    1    2    0    0  0.19695797093E+02  0.42184210841E+02  0.11499499136E+03  0.12406159803E+03  0.00000000000E+00 0.  1.
         11    1    1    2    0    0 -0.27046863208E+01 -0.42164116732E+02  0.45863855794E+02  0.62358811215E+02  0.00000000000E+00 0. -1.
<mgrwt>
<rscale>  0 0.10773151E+03</rscale>
<asrwt>0</asrwt>
<pdfrwt beam="1">  1        1 0.73653841E-01 0.11265383E+03</pdfrwt>
<pdfrwt beam="2">  1       -1 0.35660591E-02 0.11265383E+03</pdfrwt>
<totfact> 0.13031299E+04</totfact>
</mgrwt>
</event>
<event>
 6    1  0.1190675E-005  0.1302969E+03  0.7546771E-02  0.1237220E+00
         -1   -1    0    0    0  501 -0.00000000000E+00  0.00000000000E+00  0.52723899285E+02  0.52723899285E+02  0.00000000000E+00 0.  1.
          1   -1    0    0  501    0  0.00000000000E+00 -0.00000000000E+00 -0.26930295548E+03  0.26930295548E+03  0.00000000000E+00 0. -1.
          5    1    1    2  502    0  0.20598379765E+02 -0.17960073821E+02 -0.12619333216E+03  0.12920411983E+03  0.47000000000E+01 0. -1.
         -5    1    1    2    0  502 -0.25011421313E+01 -0.14025093008E+02  0.29470526324E+02  0.33069031852E+02  0.47000000000E+01 0. -1.
        -11    1    1    2    0    0  0.10925443247E+02  0.45610556841E+02 -0.13699212469E+02  0.48860583580E+02  0.00000000000E+00 0.  1.
         11    1    1    2    0    0 -0.29022680881E+02 -0.13625390012E+02 -0.10615703790E+03  0.11089311950E+03  0.00000000000E+00 0. -1.
<mgrwt>
<rscale>  0 0.12363394E+03</rscale>
<asrwt>0</asrwt>
<pdfrwt beam="2">  1        1 0.41431224E-01 0.13029687E+03</pdfrwt>
<pdfrwt beam="1">  1       -1 0.81113691E-02 0.13029687E+03</pdfrwt>
<totfact> 0.80139744E+03</totfact>
</mgrwt>
</event>
<event>
 6    1  0.1190675E-005  0.1253737E+03  0.7546771E-02  0.1248887E+00
          3   -1    0    0  501    0  0.00000000000E+00  0.00000000000E+00  0.47935564745E+02  0.47935564745E+02  0.00000000000E+00 0. -1.
         -3   -1    0    0    0  501 -0.00000000000E+00 -0.00000000000E+00 -0.25535577828E+03  0.25535577828E+03  0.00000000000E+00 0.  1.
          5    1    1    2  502    0 -0.38518221551E+01 -0.25319593525E+02 -0.12344301185E+03  0.12615936558E+03  0.47000000000E+01 0. -1.
         -5    1    1    2    0  502 -0.24934808980E+01  0.18136284396E+02  0.26340635090E+02  0.32420075811E+02  0.47000000000E+01 0. -1.
        -11    1    1    2    0    0  0.47641232758E+01  0.33016661417E+02 -0.11380776587E+03  0.11859597115E+03  0.00000000000E+00 0.  1.
         11    1    1    2    0    0  0.15811797773E+01 -0.25833352287E+02  0.34899290883E+01  0.26115930481E+02  0.00000000000E+00 0. -1.
<mgrwt>
<rscale>  0 0.11655721E+03</rscale>
<asrwt>0</asrwt>
<pdfrwt beam="1">  1        3 0.73747023E-02 0.12537371E+03</pdfrwt>
<pdfrwt beam="2">  1       -3 0.39285504E-01 0.12537371E+03</pdfrwt>
<totfact> 0.17740314E+03</totfact>
</mgrwt>
</event>
<event>
 6    1  0.1190675E-005  0.1515908E+03  0.7546771E-02  0.1209664E+00
         -1   -1    0    0    0  501 -0.00000000000E+00  0.00000000000E+00  0.23402421149E+03  0.23402421149E+03  0.00000000000E+00 0.  1.
          1   -1    0    0  501    0  0.00000000000E+00 -0.00000000000E+00 -0.88075547470E+02  0.88075547470E+02  0.00000000000E+00 0. -1.
          5    1    1    2  502    0  0.49151842872E+02  0.41545801116E+02 -0.42313879973E+02  0.77165482480E+02  0.47000000000E+01 0.  1.
         -5    1    1    2    0  502 -0.42349476250E+01  0.31505139696E+02  0.69875907777E+02  0.76910604576E+02  0.47000000000E+01 0.  1.
        -11    1    1    2    0    0 -0.36925816543E+02 -0.33010230358E+01  0.79613896837E+02  0.87822464382E+02  0.00000000000E+00 0.  1.
         11    1    1    2    0    0 -0.79910787036E+01 -0.69749917777E+02  0.38772739375E+02  0.80201207518E+02  0.00000000000E+00 0. -1.
<mgrwt>
<rscale>  0 0.14275916E+03</rscale>
<asrwt>0</asrwt>
<pdfrwt beam="2">  1        1 0.13550084E-01 0.15159082E+03</pdfrwt>
<pdfrwt beam="1">  1       -1 0.36003725E-01 0.15159082E+03</pdfrwt>
<totfact> 0.30781600E+03</totfact>
</mgrwt>
</event>
<event>
 6    1  0.1190675E-005  0.1307407E+03  0.7546771E-02  0.1239581E+00
          2   -1    0    0  501    0  0.00000000000E+00  0.00000000000E+00  0.49407632353E+03  0.49407632353E+03  0.00000000000E+00 0.  1.
         -2   -1    0    0    0  501 -0.00000000000E+00 -0.00000000000E+00 -0.28231229891E+02  0.28231229891E+02  0.00000000000E+00 0. -1.
          5    1    1    2  502    0  0.18983958886E+02 -0.75442137207E+02  0.22486517505E+03  0.23798811675E+03  0.47000000000E+01 0.  1.
         -5    1    1    2    0  502 -0.31432890912E+02  0.39192957572E+02  0.95109937861E+02  0.10766663752E+03  0.47000000000E+01 0.  1.
        -11    1    1    2    0    0 -0.32807541074E+02  0.31445753027E+02  0.10895713115E+03  0.11805433733E+03  0.00000000000E+00 0. -1.
         11    1    1    2    0    0  0.45256473099E+02  0.48034266088E+01  0.36912849579E+02  0.58598461828E+02  0.00000000000E+00 0.  1.
<mgrwt>
<rscale>  0 0.12215655E+03</rscale>
<asrwt>0</asrwt>
<pdfrwt beam="1">  1        2 0.76011736E-01 0.13074072E+03</pdfrwt>
<pdfrwt beam="2">  1       -2 0.43432665E-02 0.13074072E+03</pdfrwt>
<totfact> 0.14438187E+04</totfact>
</mgrwt>
</event>
<event>
 6    1  0.1190675E-005  0.1310643E+03  0.7546771E-02  0.1240214E+00
          2   -1    0    0  501    0  0.00000000000E+00  0.00000000000E+00  0.12308857597E+04  0.12308857597E+04  0.00000000000E+00 0. -1.
         -2   -1    0    0    0  501 -0.00000000000E+00 -0.00000000000E+00 -0.12682279567E+02  0.12682279567E+02  0.00000000000E+00 0.  1.
          5    1    1    2  502    0  0.48844084438E+01  0.41823833524E+02  0.12172766790E+03  0.12889067316E+03  0.47000000000E+01 0. -1.
         -5    1    1    2    0  502  0.34372126897E+02 -0.45326298397E+02  0.81020561119E+03  0.81221372732E+03  0.47000000000E+01 0. -1.
        -11    1    1    2    0    0 -0.48319511936E+02 -0.15705545414E+02  0.27239807088E+03  0.27709591915E+03  0.00000000000E+00 0. -1.
         11    1    1    2    0    0  0.90629765956E+01  0.19208010286E+02  0.13872130143E+02  0.25367719618E+02  0.00000000000E+00 0.  1.
<mgrwt>
<rscale>  0 0.12176448E+03</rscale>
<asrwt>0</asrwt>
<pdfrwt beam="1">  1        2 0.18936695E+00 0.13106432E+03</pdfrwt>
<pdfrwt beam="2">  1       -2 0.19511209E-02 0.13106432E+03</pdfrwt>
<totfact> 0.14793144E+04</totfact>
</mgrwt>
</event>
<event>
 6    1  0.1190675E-005  0.3413786E+03  0.7546771E-02  0.1066210E+00
          2   -1    0    0  501    0  0.00000000000E+00  0.00000000000E+00  0.50531227252E+03  0.50531227252E+03  0.00000000000E+00 0.  1.
         -2   -1    0    0    0  501 -0.00000000000E+00 -0.00000000000E+00 -0.57657097586E+02  0.57657097586E+02  0.00000000000E+00 0. -1.
          5    1    1    2  502    0  0.27517406576E+02 -0.17084810648E+02  0.81234234384E+02  0.87579616667E+02  0.47000000000E+01 0. -1.
         -5    1    1    2    0  502 -0.11604212125E+03  0.36174052822E+02  0.31258648933E+03  0.33542024285E+03  0.47000000000E+01 0. -1.
        -11    1    1    2    0    0  0.55537645204E+02 -0.56475507969E+02  0.36151378874E+02  0.87067991993E+02  0.00000000000E+00 0.  1.
         11    1    1    2    0    0  0.32987069472E+02  0.37386265795E+02  0.17683072351E+02  0.52901518600E+02  0.00000000000E+00 0. -1.
<mgrwt>
<rscale>  0 0.34137861E+03</rscale>
<asrwt>0</asrwt>
<pdfrwt beam="1">  1        2 0.77740347E-01 0.34137861E+03</pdfrwt>
<pdfrwt beam="2">  1       -2 0.88703231E-02 0.34137861E+03</pdfrwt>
<totfact> 0.49562353E+03</totfact>
</mgrwt>
</event>
<event>
 6    1  0.1190675E-005  0.1225552E+03  0.7546771E-02  0.1248714E+00
          2   -1    0    0  501    0  0.00000000000E+00  0.00000000000E+00  0.53639915254E+03  0.53639915254E+03  0.00000000000E+00 0. -1.
         -2   -1    0    0    0  501 -0.00000000000E+00 -0.00000000000E+00 -0.23348939123E+02  0.23348939123E+02  0.00000000000E+00 0.  1.
          5    1    1    2  502    0  0.39600191259E+02  0.71121379737E+02  0.19509347367E+03  0.21144734397E+03  0.47000000000E+01 0. -1.
         -5    1    1    2    0  502 -0.27852735965E+02 -0.29590534435E+02  0.10776262941E+03  0.11526599206E+03  0.47000000000E+01 0.  1.
        -11    1    1    2    0    0 -0.28435065491E+01 -0.66147458390E+02  0.10114656840E+03  0.12088920581E+03  0.00000000000E+00 0.  1.
         11    1    1    2    0    0 -0.89039487447E+01  0.24616613089E+02  0.10904754194E+03  0.11214554983E+03  0.00000000000E+00 0. -1.
<mgrwt>
<rscale>  0 0.11665838E+03</rscale>
<asrwt>0</asrwt>
<pdfrwt beam="1">  1        2 0.82522938E-01 0.12255523E+03</pdfrwt>
<pdfrwt beam="2">  1       -2 0.35921449E-02 0.12255523E+03</pdfrwt>
<totfact> 0.17384452E+04</totfact>
</mgrwt>
</event>
<event>
 6    1  0.1190675E-005  0.1940981E+03  0.7546771E-02  0.1159666E+00
         -1   -1    0    0    0  501 -0.00000000000E+00  0.00000000000E+00  0.45209392204E+02  0.45209392204E+02  0.00000000000E+00 0.  1.
          1   -1    0    0  501    0  0.00000000000E+00 -0.00000000000E+00 -0.76003873351E+03  0.76003873351E+03  0.00000000000E+00 0. -1.
          5    1    1    2  502    0  0.13435262354E+03  0.55874933133E+02 -0.27068598365E+03  0.30735261077E+03  0.47000000000E+01 0.  1.
         -5    1    1    2    0  502 -0.17700938355E+02  0.35992418075E+02 -0.16056149689E+03  0.16556225917E+03  0.47000000000E+01 0.  1.
        -11    1    1    2    0    0 -0.52595815470E+02  0.82631107800E+01 -0.70579169176E+02  0.88408245804E+02  0.00000000000E+00 0.  1.
         11    1    1    2    0    0 -0.64055869714E+02 -0.10013046199E+03 -0.21300269158E+03  0.24392500996E+03  0.00000000000E+00 0. -1.
<mgrwt>
<rscale>  0 0.18867072E+03</rscale>
<asrwt>0</asrwt>
<pdfrwt beam="2">  1        1 0.11692903E+00 0.19409813E+03</pdfrwt>
<pdfrwt beam="1">  1       -1 0.69552912E-02 0.19409813E+03</pdfrwt>
<totfact> 0.26371459E+03</totfact>
</mgrwt>
</event>
<event>
 6    1  0.1190675E-005  0.2352661E+03  0.7546771E-02  0.1125964E+00
         -2   -1    0    0    0  501 -0.00000000000E+00  0.00000000000E+00  0.43567249095E+02  0.43567249095E+02  0.00000000000E+00 0.  1.
          2   -1    0    0  501    0  0.00000000000E+00 -0.00000000000E+00 -0.11914762393E+04  0.11914762393E+04  0.00000000000E+00 0. -1.
          5    1    1    2  502    0 -0.16504690553E+03 -0.49440015231E+02 -0.40577074619E+03  0.44085914371E+03  0.47000000000E+01 0. -1.
         -5    1    1    2    0  502 -0.34169866133E+02  0.42983356468E+02 -0.24530483099E+03  0.25141936838E+03  0.47000000000E+01 0. -1.
        -11    1    1    2    0    0  0.73005212105E+02  0.12062439517E+02 -0.29910660509E+03  0.30812339193E+03  0.00000000000E+00 0.  1.
         11    1    1    2    0    0  0.12621155956E+03 -0.56057807542E+01 -0.19772680788E+03  0.23464158433E+03  0.00000000000E+00 0. -1.
<mgrwt>
<rscale>  0 0.23096257E+03</rscale>
<asrwt>0</asrwt>
<pdfrwt beam="2">  1        2 0.18330404E+00 0.23526609E+03</pdfrwt>
<pdfrwt beam="1">  1       -2 0.67026537E-02 0.23526609E+03</pdfrwt>
<totfact> 0.25154919E+03</totfact>
</mgrwt>
</event>
<event>
 6    1  0.1190675E-005  0.3324478E+03  0.7546771E-02  0.1070059E+00
         -1   -1    0    0    0  501 -0.00000000000E+00  0.00000000000E+00  0.25664056976E+03  0.25664056976E+03  0.00000000000E+00 0.  1.
          1   -1    0    0  501    0  0.00000000000E+00 -0.00000000000E+00 -0.10766178171E+03  0.10766178171E+03  0.00000000000E+00 0. -1.
          5    1    1    2  502    0 -0.60782269500E+02 -0.12030282927E+03  0.99681423449E+01  0.13523575296E+03  0.47000000000E+01 0. -1.
         -5    1    1    2    0  502 -0.73214916333E+01  0.27053198387E+02  0.48926319765E+02  0.56580513858E+02  0.47000000000E+01 0.  1.
        -11    1    1    2    0    0  0.54016486557E+02  0.14298649941E+01  0.37072877959E+02  0.65530325911E+02  0.00000000000E+00 0. -1.
         11    1    1    2    0    0  0.14087274577E+02  0.91819765888E+02  0.53011447979E+02  0.10695575875E+03  0.00000000000E+00 0.  1.
<mgrwt>
<rscale>  0 0.33244778E+03</rscale>
<asrwt>0</asrwt>
<pdfrwt beam="2">  1        1 0.16563351E-01 0.33244778E+03</pdfrwt>
<pdfrwt beam="1">  1       -1 0.39483164E-01 0.33244778E+03</pdfrwt>
<totfact> 0.20707125E+03</totfact>
</mgrwt>
</event>
<event>
 6    1  0.1190675E-005  0.1428873E+03  0.7546771E-02  0.1220627E+00
          1   -1    0    0  501    0  0.00000000000E+00  0.00000000000E+00  0.24492639295E+03  0.24492639295E+03  0.00000000000E+00 0. -1.
         -1   -1    0    0    0  501 -0.00000000000E+00 -0.00000000000E+00 -0.74829409079E+02  0.74829409079E+02  0.00000000000E+00 0.  1.
          5    1    1    2  502    0 -0.14727945386E+02  0.51397277927E+02  0.46139897063E+02  0.70778334641E+02  0.47000000000E+01 0.  1.
         -5    1    1    2    0  502  0.81733888619E+02 -0.33897589707E+02  0.99937722317E+02  0.13356314416E+03  0.47000000000E+01 0.  1.
        -11    1    1    2    0    0 -0.60713697005E+02 -0.26610807340E+02 -0.20619806156E+02  0.69422362947E+02  0.00000000000E+00 0.  1.
         11    1    1    2    0    0 -0.62922462276E+01  0.91111191201E+01  0.44639170645E+02  0.45991960277E+02  0.00000000000E+00 0. -1.
<mgrwt>
<rscale>  0 0.13471203E+03</rscale>
<asrwt>0</asrwt>
<pdfrwt beam="1">  1        1 0.37680983E-01 0.14288726E+03</pdfrwt>
<pdfrwt beam="2">  1       -1 0.11512217E-01 0.14288726E+03</pdfrwt>
<totfact> 0.53170058E+03</totfact>
</mgrwt>
</event>
<event>
 6    1  0.1190675E-005  0.1600142E+03  0.7546771E-02  0.1196442E+00
         -2   -1    0    0    0  501 -0.00000000000E+00  0.00000000000E+00  0.36390199753E+02  0.36390199753E+02  0.00000000000E+00 0.  1.
          2   -1    0    0  501    0  0.00000000000E+00 -0.00000000000E+00 -0.61823114705E+03  0.61823114705E+03  0.00000000000E+00 0. -1.
          5    1    1    2  502    0 -0.11348041263E+03 -0.34753124531E+02 -0.36640177289E+03  0.38517260143E+03  0.47000000000E+01 0.  1.
         -5    1    1    2    0  502  0.20029973306E+02 -0.57347456922E+00 -0.81665788736E+01  0.22142983409E+02  0.47000000000E+01 0.  1.
        -11    1    1    2    0    0 -0.23232583562E+01 -0.12202219360E+02  0.17313893446E+01  0.12541506917E+02  0.00000000000E+00 0.  1.
         11    1    1    2    0    0  0.95773697684E+02  0.47528818460E+02 -0.20900398488E+03  0.23476425505E+03  0.00000000000E+00 0. -1.
<mgrwt>
<rscale>  0 0.15332834E+03</rscale>
<asrwt>0</asrwt>
<pdfrwt beam="2">  1        2 0.95112481E-01 0.16001417E+03</pdfrwt>
<pdfrwt beam="1">  1       -2 0.55984925E-02 0.16001417E+03</pdfrwt>
<totfact> 0.77715828E+03</totfact>
</mgrwt>
</event>
<event>
 6    1  0.1190675E-005  0.1261736E+03  0.7546771E-02  0.1248925E+00
         -2   -1    0    0    0  501 -0.00000000000E+00  0.00000000000E+00  0.19634960789E+02  0.19634960789E+02  0.00000000000E+00 0.  1.
          2   -1    0    0  501    0  0.00000000000E+00 -0.00000000000E+00 -0.61903160710E+03  0.61903160710E+03  0.00000000000E+00 0. -1.
          5    1    1    2  502    0  0.13418419105E+02  0.63788220166E+02 -0.17554771526E+03  0.18731812869E+03  0.47000000000E+01 0. -1.
         -5    1    1    2    0  502 -0.26700563772E+02 -0.52922977008E+02 -0.21773358313E+03  0.22570725470E+03  0.47000000000E+01 0. -1.
        -11    1    1    2    0    0 -0.12389448016E+02  0.26578097993E+02 -0.23824647850E+02  0.37782371025E+02  0.00000000000E+00 0.  1.
         11    1    1    2    0    0  0.25671592684E+02 -0.37443341150E+02 -0.18229070007E+03  0.18785881347E+03  0.00000000000E+00 0. -1.
<mgrwt>
<rscale>  0 0.11653531E+03</rscale>
<asrwt>0</asrwt>
<pdfrwt beam="2">  1        2 0.95235624E-01 0.12617364E+03</pdfrwt>
<pdfrwt beam="1">  1       -2 0.30207635E-02 0.12617364E+03</pdfrwt>
<totfact> 0.19142948E+04</totfact>
</mgrwt>
</event>
<event>
 6    1  0.1190675E-005  0.1359709E+03  0.7546771E-02  0.1232441E+00
         -1   -1    0    0    0  501 -0.00000000000E+00  0.00000000000E+00  0.90782209017E+02  0.90782209017E+02  0.00000000000E+00 0.  1.
          1   -1    0    0  501    0  0.00000000000E+00 -0.00000000000E+00 -0.18513743014E+03  0.18513743014E+03  0.00000000000E+00 0. -1.
          5    1    1    2  502    0 -0.46467464243E+02 -0.34181320730E+02 -0.11710765752E+03  0.13062879227E+03  0.47000000000E+01 0. -1.
         -5    1    1    2    0  502 -0.11312721583E+01  0.40422760337E+02  0.10625749912E+02  0.42074646655E+02  0.47000000000E+01 0.  1.
        -11    1    1    2    0    0  0.72072247648E+02 -0.16160895769E+02  0.18303647820E+02  0.76096037719E+02  0.00000000000E+00 0.  1.
         11    1    1    2    0    0 -0.24473511246E+02  0.99194561615E+01 -0.61769613309E+01  0.27120162509E+02  0.00000000000E+00 0. -1.
<mgrwt>
<rscale>  0 0.12669715E+03</rscale>
<asrwt>0</asrwt>
<pdfrwt beam="2">  1        1 0.28482681E-01 0.13597088E+03</pdfrwt>
<pdfrwt beam="1">  1       -1 0.13966494E-01 0.13597088E+03</pdfrwt>
<totfact> 0.55619553E+03</totfact>
</mgrwt>
</event>
<event>
 6    1  0.1190675E-005  0.1540391E+03  0.7546771E-02  0.1271106E+00
         -2   -1    0    0    0  501 -0.00000000000E+00  0.00000000000E+00  0.88545840044E+01  0.88545840044E+01  0.00000000000E+00 0. -1.
          2   -1    0    0  501    0  0.00000000000E+00 -0.00000000000E+00 -0.13192153557E+04  0.13192153557E+04  0.00000000000E+00 0.  1.
          5    1    1    2  502    0  0.33273020226E+02  0.97358254941E+01 -0.61765599853E+02  0.70985628815E+02  0.47000000000E+01 0. -1.
         -5    1    1    2    0  502 -0.19907444807E+02  0.11881629677E+02 -0.11882324725E+04  0.11884679121E+04  0.47000000000E+01 0.  1.
        -11    1    1    2    0    0 -0.10763789517E+02 -0.28717569471E+01 -0.10604277193E+02  0.15380404661E+02  0.00000000000E+00 0. -1.
         11    1    1    2    0    0 -0.26017859012E+01 -0.18745698224E+02 -0.49758422137E+02  0.53235994077E+02  0.00000000000E+00 0.  1.
<mgrwt>
<rscale>  0 0.10450070E+03</rscale>
<asrwt>0</asrwt>
<pdfrwt beam="2">  1        2 0.20295613E+00 0.15403909E+03</pdfrwt>
<pdfrwt beam="1">  1       -2 0.13622442E-02 0.15403909E+03</pdfrwt>
<totfact> 0.22494713E+04</totfact>
</mgrwt>
</event>
<event>
 6    1  0.1190675E-005  0.3000439E+03  0.7546771E-02  0.1085219E+00
          1   -1    0    0  501    0  0.00000000000E+00  0.00000000000E+00  0.68950512264E+03  0.68950512264E+03  0.00000000000E+00 0. -1.
         -1   -1    0    0    0  501 -0.00000000000E+00 -0.00000000000E+00 -0.32641657803E+02  0.32641657803E+02  0.00000000000E+00 0.  1.
          5    1    1    2  502    0  0.53726193577E+02 -0.87671290016E+02  0.26585477857E+03  0.28508527190E+03  0.47000000000E+01 0. -1.
         -5    1    1    2    0  502 -0.25026495995E+02  0.14072686287E+02  0.24558319659E+03  0.24730055084E+03  0.47000000000E+01 0. -1.
        -11    1    1    2    0    0 -0.39960559229E+01  0.47579442590E+02  0.88611929994E+01  0.48562254493E+02  0.00000000000E+00 0.  1.
         11    1    1    2    0    0 -0.24703641659E+02  0.26019161139E+02  0.13656429669E+03  0.14119870321E+03  0.00000000000E+00 0. -1.
<mgrwt>
<rscale>  0 0.30004393E+03</rscale>
<asrwt>0</asrwt>
<pdfrwt beam="1">  1        1 0.10607770E+00 0.30004393E+03</pdfrwt>
<pdfrwt beam="2">  1       -1 0.50217940E-02 0.30004393E+03</pdfrwt>
<totfact> 0.50398211E+03</totfact>
</mgrwt>
</event>
<event>
 6    1  0.1190675E-005  0.1449259E+03  0.7546771E-02  0.1216496E+00
         -1   -1    0    0    0  501 -0.00000000000E+00  0.00000000000E+00  0.17214574249E+03  0.17214574249E+03  0.00000000000E+00 0.  1.
          1   -1    0    0  501    0  0.00000000000E+00 -0.00000000000E+00 -0.10833265912E+03  0.10833265912E+03  0.00000000000E+00 0. -1.
          5    1    1    2  502    0 -0.56378475335E+02 -0.87357968112E+02 -0.19011466846E+02  0.10579921051E+03  0.47000000000E+01 0.  1.
         -5    1    1    2    0  502  0.29787597736E+02  0.19005342974E+02  0.16199933420E+02  0.39153951056E+02  0.47000000000E+01 0.  1.
        -11    1    1    2    0    0  0.31660617772E+02  0.39038430587E+01  0.63190623696E+02  0.70786224871E+02  0.00000000000E+00 0.  1.
         11    1    1    2    0    0 -0.50697401735E+01  0.64448782079E+02  0.34339930949E+01  0.64739015172E+02  0.00000000000E+00 0. -1.
<mgrwt>
<rscale>  0 0.13767230E+03</rscale>
<asrwt>0</asrwt>
<pdfrwt beam="2">  1        1 0.16666563E-01 0.14492589E+03</pdfrwt>
<pdfrwt beam="1">  1       -1 0.26483960E-01 0.14492589E+03</pdfrwt>
<totfact> 0.39453656E+03</totfact>
</mgrwt>
</event>
<event>
 6    1  0.1560831E-005  0.2055727E+03  0.7546771E-02  0.1149320E+00
         -1   -1    0    0    0  501 -0.00000000000E+00  0.00000000000E+00  0.69937473831E+02  0.69937473831E+02  0.00000000000E+00 0.  1.
          1   -1    0    0  501    0  0.00000000000E+00 -0.00000000000E+00 -0.57904321201E+03  0.57904321201E+03  0.00000000000E+00 0. -1.
          5    1    1    2  502    0 -0.68451847477E+02 -0.45418302046E+02 -0.14805204022E+03  0.16938115065E+03  0.47000000000E+01 0. -1.
         -5    1    1    2    0  502  0.41705727332E+02 -0.11557637450E+03 -0.19343772434E+03  0.22921062199E+03  0.47000000000E+01 0. -1.
        -11    1    1    2    0    0  0.52977017142E+02  0.12958881169E+03 -0.10260860104E+03  0.17357519831E+03  0.00000000000E+00 0.  1.
         11    1    1    2    0    0 -0.26230896997E+02  0.31405864862E+02 -0.65007372577E+02  0.76813714885E+02  0.00000000000E+00 0. -1.
<mgrwt>
<rscale>  0 0.20049697E+03</rscale>
<asrwt>0</asrwt>
<pdfrwt beam="2">  1        1 0.89083573E-01 0.20557272E+03</pdfrwt>
<pdfrwt beam="1">  1       -1 0.10759611E-01 0.20557272E+03</pdfrwt>
<totfact> 0.19965906E+03</totfact>
</mgrwt>
</event>
<event>
 6    1  0.1190675E-005  0.1917273E+03  0.7546771E-02  0.1161682E+00
          2   -1    0    0  501    0  0.00000000000E+00  0.00000000000E+00  0.47768035949E+03  0.47768035949E+03  0.00000000000E+00 0. -1.
         -2   -1    0    0    0  501 -0.00000000000E+00 -0.00000000000E+00 -0.72798686734E+02  0.72798686734E+02  0.00000000000E+00 0.  1.
          5    1    1    2  502    0  0.59969840944E+02 -0.22991438690E+02  0.57502992602E+02  0.86334652568E+02  0.47000000000E+01 0.  1.
         -5    1    1    2    0  502 -0.25386750277E+02 -0.11820801331E+03  0.21780034740E+03  0.24915196734E+03  0.47000000000E+01 0.  1.
        -11    1    1    2    0    0  0.30569116482E+02  0.36609739074E+02  0.44689772255E+02  0.65359923667E+02  0.00000000000E+00 0. -1.
         11    1    1    2    0    0 -0.65152207149E+02  0.10458971293E+03  0.84888560505E+02  0.14963250266E+03  0.00000000000E+00 0.  1.
<mgrwt>
<rscale>  0 0.18647212E+03</rscale>
<asrwt>0</asrwt>
<pdfrwt beam="1">  1        2 0.73489284E-01 0.19172726E+03</pdfrwt>
<pdfrwt beam="2">  1       -2 0.11199798E-01 0.19172726E+03</pdfrwt>
<totfact> 0.35658362E+03</totfact>
</mgrwt>
</event>
<event>
 6    1  0.1190675E-005  0.2373674E+03  0.7546771E-02  0.1123945E+00
         -4   -1    0    0    0  501 -0.00000000000E+00  0.00000000000E+00  0.30452620951E+03  0.30452620951E+03  0.00000000000E+00 0.  1.
          4   -1    0    0  501    0  0.00000000000E+00 -0.00000000000E+00 -0.18191546952E+03  0.18191546952E+03  0.00000000000E+00 0. -1.
          5    1    1    2  502    0 -0.57743233327E+02  0.17347675303E+03 -0.17954242001E+02  0.18377407228E+03  0.47000000000E+01 0.  1.
         -5    1    1    2    0  502 -0.43267850374E+02  0.12069405402E+01  0.31952505292E+02  0.54005705031E+02  0.47000000000E+01 0.  1.
        -11    1    1    2    0    0  0.24254850511E+02 -0.40182344045E+02  0.77653808954E+02  0.90736060039E+02  0.00000000000E+00 0.  1.
         11    1    1    2    0    0  0.76756233190E+02 -0.13450134953E+03  0.30958667747E+02  0.15792584167E+03  0.00000000000E+00 0. -1.
<mgrwt>
<rscale>  0 0.23387089E+03</rscale>
<asrwt>0</asrwt>
<pdfrwt beam="2">  1        4 0.27986995E-01 0.23736738E+03</pdfrwt>
<pdfrwt beam="1">  1       -4 0.46850186E-01 0.23736738E+03</pdfrwt>
<totfact> 0.97600377E+01</totfact>
</mgrwt>
</event>
<event>
 6    1  0.1190675E-005  0.3135923E+03  0.7546771E-02  0.1078637E+00
          2   -1    0    0  501    0  0.00000000000E+00  0.00000000000E+00  0.44964697953E+03  0.44964697953E+03  0.00000000000E+00 0.  1.
         -2   -1    0    0    0  501 -0.00000000000E+00 -0.00000000000E+00 -0.54676289996E+02  0.54676289996E+02  0.00000000000E+00 0. -1.
          5    1    1    2  502    0 -0.34154985558E+00 -0.33544832239E+01 -0.13292561160E+02  0.14496599470E+02  0.47000000000E+01 0.  1.
         -5    1    1    2    0  502  0.19163529658E+02  0.11214010584E+03  0.25382232834E+03  0.27819149622E+03  0.47000000000E+01 0.  1.
        -11    1    1    2    0    0 -0.14520732065E+02 -0.32371602406E+02  0.12449235043E+03  0.12944928589E+03  0.00000000000E+00 0.  1.
         11    1    1    2    0    0 -0.43012477383E+01 -0.76414020210E+02  0.29948571929E+02  0.82185887946E+02  0.00000000000E+00 0. -1.
<mgrwt>
<rscale>  0 0.31359227E+03</rscale>
<asrwt>0</asrwt>
<pdfrwt beam="1">  1        2 0.69176456E-01 0.31359227E+03</pdfrwt>
<pdfrwt beam="2">  1       -2 0.84117372E-02 0.31359227E+03</pdfrwt>
<totfact> 0.61269244E+03</totfact>
</mgrwt>
</event>
<event>
 6    1  0.1190675E-005  0.1386535E+03  0.7546771E-02  0.1223727E+00
          1   -1    0    0  501    0  0.00000000000E+00  0.00000000000E+00  0.80635220260E+02  0.80635220260E+02  0.00000000000E+00 0. -1.
         -1   -1    0    0    0  501 -0.00000000000E+00 -0.00000000000E+00 -0.20969533890E+03  0.20969533890E+03  0.00000000000E+00 0.  1.
          5    1    1    2  502    0  0.24139979804E+02  0.26477641805E+02  0.18228032609E+02  0.40474131409E+02  0.47000000000E+01 0. -1.
         -5    1    1    2    0  502 -0.11166000948E+02 -0.85055464801E+02 -0.58393669562E+02  0.10387984556E+03  0.47000000000E+01 0. -1.
        -11    1    1    2    0    0 -0.28832977978E+02 -0.87075289031E+01 -0.67007538711E+02  0.73465447135E+02  0.00000000000E+00 0.  1.
         11    1    1    2    0    0  0.15858999122E+02  0.67285351898E+02 -0.21886942972E+02  0.72511135048E+02  0.00000000000E+00 0. -1.
<mgrwt>
<rscale>  0 0.13254529E+03</rscale>
<asrwt>0</asrwt>
<pdfrwt beam="1">  1        1 0.12405419E-01 0.13865350E+03</pdfrwt>
<pdfrwt beam="2">  1       -1 0.32260821E-01 0.13865350E+03</pdfrwt>
<totfact> 0.41492122E+03</totfact>
</mgrwt>
</event>
<event>
 6    1  0.1190675E-005  0.1466173E+03  0.7546771E-02  0.1214418E+00
         -2   -1    0    0    0  501 -0.00000000000E+00  0.00000000000E+00  0.12626971381E+03  0.12626971381E+03  0.00000000000E+00 0.  1.
          2   -1    0    0  501    0  0.00000000000E+00 -0.00000000000E+00 -0.19009173803E+03  0.19009173803E+03  0.00000000000E+00 0. -1.
          5    1    1    2  502    0 -0.34816905579E+02 -0.48371170195E+02  0.83591508906E+00  0.59789428615E+02  0.47000000000E+01 0. -1.
         -5    1    1    2    0  502  0.42014389407E+02 -0.27929475771E+02 -0.11622087702E+03  0.12678583040E+03  0.47000000000E+01 0. -1.
        -11    1    1    2    0    0 -0.29205626334E+02 -0.90979724623E+01  0.17540826057E+02  0.35262193512E+02  0.00000000000E+00 0.  1.
         11    1    1    2    0    0  0.22008142505E+02  0.85398618428E+02  0.34022111655E+02  0.94523999320E+02  0.00000000000E+00 0. -1.
<mgrwt>
<rscale>  0 0.13919395E+03</rscale>
<asrwt>0</asrwt>
<pdfrwt beam="2">  1        2 0.29244883E-01 0.14661732E+03</pdfrwt>
<pdfrwt beam="1">  1       -2 0.19426110E-01 0.14661732E+03</pdfrwt>
<totfact> 0.38477323E+03</totfact>
</mgrwt>
</event>
<event>
 6    1  0.1190675E-005  0.1477905E+03  0.7546771E-02  0.1222467E+00
          1   -1    0    0  501    0  0.00000000000E+00  0.00000000000E+00  0.10258862607E+03  0.10258862607E+03  0.00000000000E+00 0. -1.
         -1   -1    0    0    0  501 -0.00000000000E+00 -0.00000000000E+00 -0.26728659355E+03  0.26728659355E+03  0.00000000000E+00 0.  1.
          5    1    1    2  502    0  0.10914376420E+02  0.14707541506E+02  0.62618427297E+02  0.65410953417E+02  0.47000000000E+01 0. -1.
         -5    1    1    2    0  502 -0.38188535568E+02 -0.69571829629E+02 -0.31681580001E+02  0.85582803401E+02  0.47000000000E+01 0.  1.
        -11    1    1    2    0    0 -0.70872619854E+01 -0.17039199227E+02 -0.38413281831E+02  0.42616238850E+02  0.00000000000E+00 0. -1.
         11    1    1    2    0    0  0.34361421133E+02  0.71903487350E+02 -0.15722153295E+03  0.17626522396E+03  0.00000000000E+00 0.  1.
<mgrwt>
<rscale>  0 0.13342051E+03</rscale>
<asrwt>0</asrwt>
<pdfrwt beam="1">  1        1 0.15782866E-01 0.14779048E+03</pdfrwt>
<pdfrwt beam="2">  1       -1 0.41121014E-01 0.14779048E+03</pdfrwt>
<totfact> 0.19994811E+03</totfact>
</mgrwt>
</event>
<event>
 6    1  0.1190675E-005  0.3852616E+03  0.7546771E-02  0.1049006E+00
         -3   -1    0    0    0  501 -0.00000000000E+00  0.00000000000E+00  0.11976449174E+03  0.11976449174E+03  0.00000000000E+00 0.  1.
          3   -1    0    0  501    0  0.00000000000E+00 -0.00000000000E+00 -0.30982993456E+03  0.30982993456E+03  0.00000000000E+00 0. -1.
          5    1    1    2  502    0  0.32940732139E+02 -0.10201897871E+01 -0.28192797790E+03  0.28388661001E+03  0.47000000000E+01 0. -1.
         -5    1    1    2    0  502 -0.43359109092E+01  0.13705559519E+02  0.77607302421E+01  0.16998865228E+02  0.47000000000E+01 0.  1.
        -11    1    1    2    0    0  0.20299886025E+02 -0.34737820482E+02  0.53523191768E+02  0.66959193555E+02  0.00000000000E+00 0. -1.
         11    1    1    2    0    0 -0.48904707255E+02  0.22052450749E+02  0.30578613068E+02  0.61749757513E+02  0.00000000000E+00 0.  1.
<mgrwt>
<rscale>  0 0.38526160E+03</rscale>
<asrwt>0</asrwt>
<pdfrwt beam="2">  1        3 0.47666143E-01 0.38526160E+03</pdfrwt>
<pdfrwt beam="1">  1       -3 0.18425307E-01 0.38526160E+03</pdfrwt>
<totfact> 0.29689588E+02</totfact>
</mgrwt>
</event>
<event>
 6    1  0.1190675E-005  0.1262514E+03  0.7546771E-02  0.1244718E+00
          2   -1    0    0  501    0  0.00000000000E+00  0.00000000000E+00  0.91870367146E+03  0.91870367146E+03  0.00000000000E+00 0. -1.
         -2   -1    0    0    0  501 -0.00000000000E+00 -0.00000000000E+00 -0.19769313761E+02  0.19769313761E+02  0.00000000000E+00 0.  1.
          5    1    1    2  502    0  0.33446111980E+02  0.55433744972E+02  0.50582009859E+03  0.50996823884E+03  0.47000000000E+01 0. -1.
         -5    1    1    2    0  502 -0.39707440872E+02 -0.38934050769E+02  0.23524742483E+03  0.24177671943E+03  0.47000000000E+01 0. -1.
        -11    1    1    2    0    0  0.13266986257E+02 -0.47035587291E+02  0.14472575671E+03  0.15275439127E+03  0.00000000000E+00 0. -1.
         11    1    1    2    0    0 -0.70056573652E+01  0.30535893088E+02  0.13141077569E+02  0.33973635682E+02  0.00000000000E+00 0.  1.
<mgrwt>
<rscale>  0 0.11902274E+03</rscale>
<asrwt>0</asrwt>
<pdfrwt beam="1">  1        2 0.14133899E+00 0.12625137E+03</pdfrwt>
<pdfrwt beam="2">  1       -2 0.30414336E-02 0.12625137E+03</pdfrwt>
<totfact> 0.11715728E+04</totfact>
</mgrwt>
</event>
<event>
 6    1  0.1190675E-005  0.1428483E+03  0.7546771E-02  0.1220029E+00
         -2   -1    0    0    0  501 -0.00000000000E+00  0.00000000000E+00  0.17766177896E+03  0.17766177896E+03  0.00000000000E+00 0.  1.
          2   -1    0    0  501    0  0.00000000000E+00 -0.00000000000E+00 -0.97703288991E+02  0.97703288991E+02  0.00000000000E+00 0. -1.
          5    1    1    2  502    0  0.14210316643E+02  0.94672423380E+02  0.40252290876E+01  0.95932754140E+02  0.47000000000E+01 0. -1.
         -5    1    1    2    0  502 -0.35978204462E+02 -0.29042692147E+02  0.10541480221E+02  0.47656289918E+02  0.47000000000E+01 0. -1.
        -11    1    1    2    0    0  0.31222140644E+02 -0.71940869612E+02  0.80818181389E+02  0.11261389448E+03  0.00000000000E+00 0.  1.
         11    1    1    2    0    0 -0.94542528247E+01  0.63111383790E+01 -0.15426400730E+02  0.19162129412E+02  0.00000000000E+00 0. -1.
<mgrwt>
<rscale>  0 0.13513531E+03</rscale>
<asrwt>0</asrwt>
<pdfrwt beam="2">  1        2 0.15031275E-01 0.14284826E+03</pdfrwt>
<pdfrwt beam="1">  1       -2 0.27332581E-01 0.14284826E+03</pdfrwt>
<totfact> 0.45101746E+03</totfact>
</mgrwt>
</event>
<event>
 6    1  0.1190675E-005  0.1272645E+03  0.7546771E-02  0.1247201E+00
         -2   -1    0    0    0  501 -0.00000000000E+00  0.00000000000E+00  0.68648385951E+02  0.68648385951E+02  0.00000000000E+00 0.  1.
          2   -1    0    0  501    0  0.00000000000E+00 -0.00000000000E+00 -0.18189549313E+03  0.18189549313E+03  0.00000000000E+00 0. -1.
          5    1    1    2  502    0 -0.11336711537E+02 -0.17455351118E+02  0.26309888766E+02  0.33874925210E+02  0.47000000000E+01 0.  1.
         -5    1    1    2    0  502  0.22754406139E+01  0.39578864416E+02 -0.11370113692E+03  0.12050602755E+03  0.47000000000E+01 0.  1.
        -11    1    1    2    0    0 -0.28080861837E+02  0.11745662205E+01 -0.41059363709E+02  0.49757268368E+02  0.00000000000E+00 0. -1.
         11    1    1    2    0    0  0.37142132760E+02 -0.23298079518E+02  0.15203504687E+02  0.46405657952E+02  0.00000000000E+00 0.  1.
<mgrwt>
<rscale>  0 0.11754621E+03</rscale>
<asrwt>0</asrwt>
<pdfrwt beam="2">  1        2 0.27983922E-01 0.12726448E+03</pdfrwt>
<pdfrwt beam="1">  1       -2 0.10561290E-01 0.12726448E+03</pdfrwt>
<totfact> 0.10782925E+04</totfact>
</mgrwt>
</event>
<event>
 6    1  0.1190675E-005  0.1591158E+03  0.7546771E-02  0.1197284E+00
          2   -1    0    0  501    0  0.00000000000E+00  0.00000000000E+00  0.98320657700E+03  0.98320657700E+03  0.00000000000E+00 0. -1.
         -2   -1    0    0    0  501 -0.00000000000E+00 -0.00000000000E+00 -0.25751680590E+02  0.25751680590E+02  0.00000000000E+00 0.  1.
          5    1    1    2  502    0  0.53151169655E+02 -0.59537981101E+02  0.21201003549E+03  0.22658367809E+03  0.47000000000E+01 0. -1.
         -5    1    1    2    0  502 -0.40446962205E+02 -0.38087756586E+02  0.49388826151E+03  0.49702549110E+03  0.47000000000E+01 0. -1.
        -11    1    1    2    0    0 -0.46274329080E+02  0.50328649949E+02  0.18410739576E+03  0.19639200521E+03  0.00000000000E+00 0. -1.
         11    1    1    2    0    0  0.33570121631E+02  0.47297087738E+02  0.67449203651E+02  0.88957083181E+02  0.00000000000E+00 0.  1.
<mgrwt>
<rscale>  0 0.15262464E+03</rscale>
<asrwt>0</asrwt>
<pdfrwt beam="1">  1        2 0.15126252E+00 0.15911576E+03</pdfrwt>
<pdfrwt beam="2">  1       -2 0.39617978E-02 0.15911576E+03</pdfrwt>
<totfact> 0.73237098E+03</totfact>
</mgrwt>
</event>
<event>
 6    1  0.1190675E-005  0.1570498E+03  0.7546771E-02  0.1200331E+00
         -2   -1    0    0    0  501 -0.00000000000E+00  0.00000000000E+00  0.40369330223E+02  0.40369330223E+02  0.00000000000E+00 0.  1.
          2   -1    0    0  501    0  0.00000000000E+00 -0.00000000000E+00 -0.53641394414E+03  0.53641394414E+03  0.00000000000E+00 0. -1.
          5    1    1    2  502    0 -0.70164588732E+02  0.10249078424E+02 -0.12731577377E+03  0.14580641060E+03  0.47000000000E+01 0. -1.
         -5    1    1    2    0  502  0.10199533650E+02 -0.84026999611E+02 -0.20061161580E+03  0.21778814831E+03  0.47000000000E+01 0. -1.
        -11    1    1    2    0    0  0.68270672441E+02  0.47752024348E+02 -0.62650465363E+02  0.10424116919E+03  0.00000000000E+00 0.  1.
         11    1    1    2    0    0 -0.83056173585E+01  0.26025896839E+02 -0.10546675899E+03  0.10894754626E+03  0.00000000000E+00 0. -1.
<mgrwt>
<rscale>  0 0.15011529E+03</rscale>
<asrwt>0</asrwt>
<pdfrwt beam="2">  1        2 0.82525227E-01 0.15704977E+03</pdfrwt>
<pdfrwt beam="1">  1       -2 0.62106658E-02 0.15704977E+03</pdfrwt>
<totfact> 0.77886043E+03</totfact>
</mgrwt>
</event>
<event>
 6    1  0.1190675E-005  0.1410500E+03  0.7546771E-02  0.1222515E+00
          1   -1    0    0  501    0  0.00000000000E+00  0.00000000000E+00  0.21776860063E+03  0.21776860063E+03  0.00000000000E+00 0. -1.
         -1   -1    0    0    0  501 -0.00000000000E+00 -0.00000000000E+00 -0.78822574592E+02  0.78822574592E+02  0.00000000000E+00 0.  1.
          5    1    1    2  502    0  0.13396473746E+02  0.37948818569E+02 -0.17652223700E+02  0.44195806828E+02  0.47000000000E+01 0. -1.
         -5    1    1    2    0  502  0.39051161693E+02  0.10156273569E+01  0.13091761339E+03  0.13670236364E+03  0.47000000000E+01 0. -1.
        -11    1    1    2    0    0  0.62507843654E+01 -0.48962727142E+02  0.26743981047E+02  0.56139660460E+02  0.00000000000E+00 0. -1.
         11    1    1    2    0    0 -0.58698419804E+02  0.99982812163E+01 -0.10633446993E+01  0.59553344295E+02  0.00000000000E+00 0.  1.
<mgrwt>
<rscale>  0 0.13338704E+03</rscale>
<asrwt>0</asrwt>
<pdfrwt beam="1">  1        1 0.33502861E-01 0.14104999E+03</pdfrwt>
<pdfrwt beam="2">  1       -1 0.12126550E-01 0.14104999E+03</pdfrwt>
<totfact> 0.56724241E+03</totfact>
</mgrwt>
</event>
<event>
 6    1  0.1190675E-005  0.1392113E+03  0.7546771E-02  0.1223453E+00
         -4   -1    0    0    0  501 -0.00000000000E+00  0.00000000000E+00  0.11210379264E+03  0.11210379264E+03  0.00000000000E+00 0.  1.
          4   -1    0    0  501    0  0.00000000000E+00 -0.00000000000E+00 -0.16302162813E+03  0.16302162813E+03  0.00000000000E+00 0. -1.
          5    1    1    2  502    0  0.30865296296E+02 -0.94226666599E+02 -0.44340801575E+02  0.10871765219E+03  0.47000000000E+01 0.  1.
         -5    1    1    2    0  502 -0.62739457969E+01  0.38099851819E+02 -0.29834161667E+02  0.49021712606E+02  0.47000000000E+01 0.  1.
        -11    1    1    2    0    0  0.15799041481E+02 -0.15148539944E+01  0.41706119538E+02  0.44624039499E+02  0.00000000000E+00 0.  1.
         11    1    1    2    0    0 -0.40390391980E+02  0.57641668774E+02 -0.18448991782E+02  0.72762016473E+02  0.00000000000E+00 0. -1.
<mgrwt>
<rscale>  0 0.13273518E+03</rscale>
<asrwt>0</asrwt>
<pdfrwt beam="2">  1        4 0.25080251E-01 0.13921129E+03</pdfrwt>
<pdfrwt beam="1">  1       -4 0.17246737E-01 0.13921129E+03</pdfrwt>
<totfact> 0.72908322E+02</totfact>
</mgrwt>
</event>
<event>
 6    1  0.1190675E-005  0.3540686E+03  0.7546771E-02  0.1060957E+00
         -1   -1    0    0    0  501 -0.00000000000E+00  0.00000000000E+00  0.52028827241E+03  0.52028827241E+03  0.00000000000E+00 0.  1.
          1   -1    0    0  501    0  0.00000000000E+00 -0.00000000000E+00 -0.60238048193E+02  0.60238048193E+02  0.00000000000E+00 0. -1.
          5    1    1    2  502    0  0.26994115020E+02 -0.28101510786E+02  0.32220166764E+02  0.50779979327E+02  0.47000000000E+01 0.  1.
         -5    1    1    2    0  502  0.73590805672E+02  0.12499942956E+03  0.21663077450E+03  0.26075169516E+03  0.47000000000E+01 0.  1.
        -11    1    1    2    0    0 -0.32498225515E+02 -0.63132907172E+02  0.16605265012E+03  0.18059729024E+03  0.00000000000E+00 0.  1.
         11    1    1    2    0    0 -0.68086695177E+02 -0.33765011606E+02  0.45146632830E+02  0.88397355870E+02  0.00000000000E+00 0. -1.
<mgrwt>
<rscale>  0 0.35406864E+03</rscale>
<asrwt>0</asrwt>
<pdfrwt beam="2">  1        1 0.92673924E-02 0.35406864E+03</pdfrwt>
<pdfrwt beam="1">  1       -1 0.80044347E-01 0.35406864E+03</pdfrwt>
<totfact> 0.11628892E+03</totfact>
</mgrwt>
</event>
<event>
 6    1  0.1190675E-005  0.1525242E+03  0.7546771E-02  0.1205679E+00
          1   -1    0    0  501    0  0.00000000000E+00  0.00000000000E+00  0.17699704705E+04  0.17699704705E+04  0.00000000000E+00 0. -1.
         -1   -1    0    0    0  501 -0.00000000000E+00 -0.00000000000E+00 -0.14554858725E+02  0.14554858725E+02  0.00000000000E+00 0.  1.
          5    1    1    2  502    0  0.41642923817E+02 -0.49727785489E+02  0.40105521446E+03  0.40629344174E+03  0.47000000000E+01 0. -1.
         -5    1    1    2    0  502 -0.72036054144E+02 -0.32216191648E+02  0.97128637394E+03  0.97449801760E+03  0.47000000000E+01 0. -1.
        -11    1    1    2    0    0 -0.57764510356E+01  0.24027926801E+02  0.14012480454E+02  0.28408770853E+02  0.00000000000E+00 0.  1.
         11    1    1    2    0    0  0.36169581363E+02  0.57916050336E+02  0.36906154295E+03  0.37532509906E+03  0.00000000000E+00 0. -1.
<mgrwt>
<rscale>  0 0.14584060E+03</rscale>
<asrwt>0</asrwt>
<pdfrwt beam="1">  1        1 0.27230298E+00 0.15252416E+03</pdfrwt>
<pdfrwt beam="2">  1       -1 0.22392104E-02 0.15252416E+03</pdfrwt>
<totfact> 0.27559338E+03</totfact>
</mgrwt>
</event>
<event>
 6    1  0.1190675E-005  0.1665372E+03  0.7546771E-02  0.1207121E+00
          2   -1    0    0  501    0  0.00000000000E+00  0.00000000000E+00  0.29389126135E+03  0.29389126135E+03  0.00000000000E+00 0. -1.
         -2   -1    0    0    0  501 -0.00000000000E+00 -0.00000000000E+00 -0.59097232217E+02  0.59097232217E+02  0.00000000000E+00 0.  1.
          5    1    1    2  502    0  0.90050743914E+02  0.37563944228E+02  0.12491983902E+03  0.15857882131E+03  0.47000000000E+01 0. -1.
         -5    1    1    2    0  502 -0.52691023943E+02 -0.38494719837E+02  0.45420908561E+02  0.79645065095E+02  0.47000000000E+01 0.  1.
        -11    1    1    2    0    0 -0.82830948393E+01 -0.42158660480E+02  0.29969516882E+02  0.52384484876E+02  0.00000000000E+00 0. -1.
         11    1    1    2    0    0 -0.29076625131E+02  0.43089436089E+02  0.34483764668E+02  0.62380122291E+02  0.00000000000E+00 0.  1.
<mgrwt>
<rscale>  0 0.14471528E+03</rscale>
<asrwt>0</asrwt>
<pdfrwt beam="1">  1        2 0.45214039E-01 0.16653723E+03</pdfrwt>
<pdfrwt beam="2">  1       -2 0.90918820E-02 0.16653723E+03</pdfrwt>
<totfact> 0.83146399E+03</totfact>
</mgrwt>
</event>
<event>
 6    1  0.1190675E-005  0.1277384E+03  0.7546771E-02  0.1245201E+00
          1   -1    0    0  501    0  0.00000000000E+00  0.00000000000E+00  0.90376221824E+02  0.90376221824E+02  0.00000000000E+00 0. -1.
         -1   -1    0    0    0  501 -0.00000000000E+00 -0.00000000000E+00 -0.19101388793E+03  0.19101388793E+03  0.00000000000E+00 0.  1.
          5    1    1    2  502    0  0.16344441554E+02  0.28904059405E+02  0.50908732961E+02  0.60962074370E+02  0.47000000000E+01 0. -1.
         -5    1    1    2    0  502 -0.28225232371E+02 -0.52385716582E+02 -0.32710469130E+02  0.68066084322E+02  0.47000000000E+01 0. -1.
        -11    1    1    2    0    0  0.21238289930E+02 -0.28684667864E+02 -0.76898445291E+02  0.84777626871E+02  0.00000000000E+00 0.  1.
         11    1    1    2    0    0 -0.93574991132E+01  0.52166325042E+02 -0.41937484647E+02  0.67584324193E+02  0.00000000000E+00 0. -1.
<mgrwt>
<rscale>  0 0.11873385E+03</rscale>
<asrwt>0</asrwt>
<pdfrwt beam="1">  1        1 0.13904034E-01 0.12773836E+03</pdfrwt>
<pdfrwt beam="2">  1       -1 0.29386752E-01 0.12773836E+03</pdfrwt>
<totfact> 0.41638835E+03</totfact>
</mgrwt>
</event>
<event>
 6    1  0.1190675E-005  0.1308787E+03  0.7546771E-02  0.1239967E+00
          1   -1    0    0  501    0  0.00000000000E+00  0.00000000000E+00  0.16805880042E+03  0.16805880042E+03  0.00000000000E+00 0. -1.
         -1   -1    0    0    0  501 -0.00000000000E+00 -0.00000000000E+00 -0.91641843150E+02  0.91641843150E+02  0.00000000000E+00 0.  1.
          5    1    1    2  502    0  0.20452177010E+02 -0.12136509748E+02 -0.20155473802E+02  0.31526489457E+02  0.47000000000E+01 0. -1.
         -5    1    1    2    0  502 -0.51469260260E+02  0.35431674010E+02  0.11208468188E+03  0.12841165908E+03  0.47000000000E+01 0. -1.
        -11    1    1    2    0    0  0.62877825016E+02 -0.95918280632E+01 -0.13495893088E+02  0.65021251715E+02  0.00000000000E+00 0.  1.
         11    1    1    2    0    0 -0.31860741767E+02 -0.13703336200E+02 -0.20163577225E+01  0.34741243320E+02  0.00000000000E+00 0. -1.
<mgrwt>
<rscale>  0 0.12191717E+03</rscale>
<asrwt>0</asrwt>
<pdfrwt beam="1">  1        1 0.25855200E-01 0.13087869E+03</pdfrwt>
<pdfrwt beam="2">  1       -1 0.14098745E-01 0.13087869E+03</pdfrwt>
<totfact> 0.61697794E+03</totfact>
</mgrwt>
</event>
<event>
 6    1  0.1190675E-005  0.2892700E+03  0.7546771E-02  0.1090731E+00
         -2   -1    0    0    0  501 -0.00000000000E+00  0.00000000000E+00  0.17135897067E+02  0.17135897067E+02  0.00000000000E+00 0.  1.
          2   -1    0    0  501    0  0.00000000000E+00 -0.00000000000E+00 -0.12207870936E+04  0.12207870936E+04  0.00000000000E+00 0. -1.
          5    1    1    2  502    0 -0.12808899689E+02 -0.33493599739E+02 -0.21843312587E+03  0.22140688700E+03  0.47000000000E+01 0.  1.
         -5    1    1    2    0  502  0.91578594939E+02  0.70970329249E+02 -0.60198138574E+03  0.61304739251E+03  0.47000000000E+01 0.  1.
        -11    1    1    2    0    0 -0.54272176325E+02  0.21007776854E+02 -0.23767263075E+03  0.24469383977E+03  0.00000000000E+00 0. -1.
         11    1    1    2    0    0 -0.24497518925E+02 -0.58484506364E+02 -0.14556405420E+03  0.15877487141E+03  0.00000000000E+00 0.  1.
<mgrwt>
<rscale>  0 0.28926999E+03</rscale>
<asrwt>0</asrwt>
<pdfrwt beam="2">  1        2 0.18781339E+00 0.28926999E+03</pdfrwt>
<pdfrwt beam="1">  1       -2 0.26362920E-02 0.28926999E+03</pdfrwt>
<totfact> 0.99897437E+03</totfact>
</mgrwt>
</event>
<event>
 6    1  0.1190675E-005  0.1358799E+03  0.7546771E-02  0.1247233E+00
          2   -1    0    0  501    0  0.00000000000E+00  0.00000000000E+00  0.21183579561E+04  0.21183579561E+04  0.00000000000E+00 0. -1.
         -2   -1    0    0    0  501 -0.00000000000E+00 -0.00000000000E+00 -0.71728312391E+01  0.71728312391E+01  0.00000000000E+00 0.  1.
          5    1    1    2  502    0  0.26619196280E+02 -0.10221398391E+01  0.77555799765E+02  0.82137801636E+02  0.47000000000E+01 0.  1.
         -5    1    1    2    0  502  0.43578530393E+01 -0.42369123808E+02  0.17250085103E+04  0.17255406643E+04  0.47000000000E+01 0.  1.
        -11    1    1    2    0    0 -0.22921039992E+02 -0.74492172176E+01  0.11560535496E+03  0.11809090993E+03  0.00000000000E+00 0. -1.
         11    1    1    2    0    0 -0.80560093269E+01  0.50840480865E+02  0.19301545982E+03  0.19976141146E+03  0.00000000000E+00 0.  1.
<mgrwt>
<rscale>  0 0.11752717E+03</rscale>
<asrwt>0</asrwt>
<pdfrwt beam="1">  1        2 0.32590073E+00 0.13587989E+03</pdfrwt>
<pdfrwt beam="2">  1       -2 0.11035142E-02 0.13587989E+03</pdfrwt>
<totfact> 0.11671684E+04</totfact>
</mgrwt>
</event>
<event>
 6    1  0.1190675E-005  0.3594837E+03  0.7546771E-02  0.1058788E+00
         -3   -1    0    0    0  501 -0.00000000000E+00  0.00000000000E+00  0.23244659098E+02  0.23244659098E+02  0.00000000000E+00 0.  1.
          3   -1    0    0  501    0  0.00000000000E+00 -0.00000000000E+00 -0.13898736634E+04  0.13898736634E+04  0.00000000000E+00 0. -1.
          5    1    1    2  502    0  0.20698719776E+02 -0.55812255843E+01 -0.52388766273E+02  0.56800175273E+02  0.47000000000E+01 0. -1.
         -5    1    1    2    0  502 -0.15456220595E+03  0.20727842484E+00 -0.86367631820E+03  0.87741004729E+03  0.47000000000E+01 0. -1.
        -11    1    1    2    0    0  0.77497896380E+02  0.21156606422E+02 -0.37401274812E+03  0.38254288870E+03  0.00000000000E+00 0.  1.
         11    1    1    2    0    0  0.56365589797E+02 -0.15782659263E+02 -0.76551171734E+02  0.96365211256E+02  0.00000000000E+00 0. -1.
<mgrwt>
<rscale>  0 0.35948374E+03</rscale>
<asrwt>0</asrwt>
<pdfrwt beam="2">  1        3 0.21382674E+00 0.35948374E+03</pdfrwt>
<pdfrwt beam="1">  1       -3 0.35761010E-02 0.35948374E+03</pdfrwt>
<totfact> 0.13156683E+02</totfact>
</mgrwt>
</event>
<event>
 6    1  0.1190675E-005  0.1453274E+03  0.7546771E-02  0.1216738E+00
          2   -1    0    0  501    0  0.00000000000E+00  0.00000000000E+00  0.23501970070E+04  0.23501970070E+04  0.00000000000E+00 0. -1.
         -2   -1    0    0    0  501 -0.00000000000E+00 -0.00000000000E+00 -0.12721512624E+02  0.12721512624E+02  0.00000000000E+00 0.  1.
          5    1    1    2  502    0  0.19701022792E+02  0.50253050718E+02  0.54575327504E+03  0.54843616458E+03  0.47000000000E+01 0. -1.
         -5    1    1    2    0  502 -0.85144747396E+02 -0.15446707326E+02  0.14662133198E+04  0.14687722144E+04  0.47000000000E+01 0. -1.
        -11    1    1    2    0    0  0.53442547667E+02  0.21540203604E+02  0.18766762321E+03  0.19631409291E+03  0.00000000000E+00 0. -1.
         11    1    1    2    0    0  0.12001176937E+02 -0.56346546996E+02  0.13784127637E+03  0.14939604773E+03  0.00000000000E+00 0.  1.
<mgrwt>
<rscale>  0 0.13749630E+03</rscale>
<asrwt>0</asrwt>
<pdfrwt beam="1">  1        2 0.36156843E+00 0.14532744E+03</pdfrwt>
<pdfrwt beam="2">  1       -2 0.19571577E-02 0.14532744E+03</pdfrwt>
<totfact> 0.38724672E+03</totfact>
</mgrwt>
</event>
<event>
 6    1  0.1190675E-005  0.1830078E+03  0.7546771E-02  0.1170706E+00
         -2   -1    0    0    0  501 -0.00000000000E+00  0.00000000000E+00  0.91157330553E+03  0.91157330553E+03  0.00000000000E+00 0. -1.
          2   -1    0    0  501    0  0.00000000000E+00 -0.00000000000E+00 -0.36362391044E+02  0.36362391044E+02  0.00000000000E+00 0.  1.
          5    1    1    2  502    0  0.12634023838E+02 -0.90984846828E+02  0.29926791592E+03  0.31308343362E+03  0.47000000000E+01 0.  1.
         -5    1    1    2    0  502  0.13606276155E+02 -0.40121368305E+02  0.62901010649E+01  0.43087240766E+02  0.47000000000E+01 0.  1.
        -11    1    1    2    0    0  0.12548036085E+02 -0.23600442721E+01  0.13807416676E+02  0.18806056839E+02  0.00000000000E+00 0.  1.
         11    1    1    2    0    0 -0.38788336077E+02  0.13346625940E+03  0.55584548082E+03  0.57295896534E+03  0.00000000000E+00 0. -1.
<mgrwt>
<rscale>  0 0.17703313E+03</rscale>
<asrwt>0</asrwt>
<pdfrwt beam="2">  1        2 0.55942147E-02 0.18300778E+03</pdfrwt>
<pdfrwt beam="1">  1       -2 0.14024203E+00 0.18300778E+03</pdfrwt>
<totfact> 0.50532068E+02</totfact>
</mgrwt>
</event>
<event>
 6    1  0.1190675E-005  0.1317947E+03  0.7546771E-02  0.1237155E+00
          1   -1    0    0  501    0  0.00000000000E+00  0.00000000000E+00  0.68019999928E+03  0.68019999928E+03  0.00000000000E+00 0. -1.
         -1   -1    0    0    0  501 -0.00000000000E+00 -0.00000000000E+00 -0.21041733346E+02  0.21041733346E+02  0.00000000000E+00 0.  1.
          5    1    1    2  502    0  0.44247590414E+02  0.85123723169E+01  0.28829937108E+03  0.29183715854E+03  0.47000000000E+01 0.  1.
         -5    1    1    2    0  502 -0.50560949349E+02 -0.49943605232E+02  0.15384797838E+03  0.16953484525E+03  0.47000000000E+01 0.  1.
        -11    1    1    2    0    0  0.30321586854E+02  0.44912040076E+02  0.20639352218E+03  0.21338879064E+03  0.00000000000E+00 0. -1.
         11    1    1    2    0    0 -0.24008227919E+02 -0.34808071611E+01  0.10617394303E+02  0.26480938203E+02  0.00000000000E+00 0.  1.
<mgrwt>
<rscale>  0 0.12367461E+03</rscale>
<asrwt>0</asrwt>
<pdfrwt beam="1">  1        1 0.10464614E+00 0.13179472E+03</pdfrwt>
<pdfrwt beam="2">  1       -1 0.32371903E-02 0.13179472E+03</pdfrwt>
<totfact> 0.94759360E+03</totfact>
</mgrwt>
</event>
<event>
 6    1  0.1190675E-005  0.2986508E+03  0.7546771E-02  0.1088097E+00
         -2   -1    0    0    0  501 -0.00000000000E+00  0.00000000000E+00  0.91242069590E+02  0.91242069590E+02  0.00000000000E+00 0.  1.
          2   -1    0    0  501    0  0.00000000000E+00 -0.00000000000E+00 -0.14285298095E+04  0.14285298095E+04  0.00000000000E+00 0. -1.
          5    1    1    2  502    0 -0.20690719574E+03 -0.15041870438E+03 -0.94573822032E+03  0.97973427298E+03  0.47000000000E+01 0. -1.
         -5    1    1    2    0  502 -0.33640811575E+02  0.25104887702E+02 -0.18722771206E+03  0.19193297204E+03  0.47000000000E+01 0. -1.
        -11    1    1    2    0    0  0.17686627974E+03  0.52826757782E+02 -0.12188993597E+03  0.22120014407E+03  0.00000000000E+00 0.  1.
         11    1    1    2    0    0  0.63681727574E+02  0.72487058894E+02 -0.82431871563E+02  0.12690449000E+03  0.00000000000E+00 0. -1.
<mgrwt>
<rscale>  0 0.29435438E+03</rscale>
<asrwt>0</asrwt>
<pdfrwt beam="2">  1        2 0.21977380E+00 0.29865085E+03</pdfrwt>
<pdfrwt beam="1">  1       -2 0.14037243E-01 0.29865085E+03</pdfrwt>
<totfact> 0.57037984E+02</totfact>
</mgrwt>
</event>
<event>
 6    1  0.1190675E-005  0.3517481E+03  0.7546771E-02  0.1061900E+00
         -2   -1    0    0    0  501 -0.00000000000E+00  0.00000000000E+00  0.33102449944E+02  0.33102449944E+02  0.00000000000E+00 0. -1.
          2   -1    0    0  501    0  0.00000000000E+00 -0.00000000000E+00 -0.93442270698E+03  0.93442270698E+03  0.00000000000E+00 0.  1.
          5    1    1    2  502    0 -0.61831616271E+01 -0.90601026907E+01  0.44550124620E+01  0.12737899533E+02  0.47000000000E+01 0. -1.
         -5    1    1    2    0  502 -0.12888605498E+03 -0.20770069814E+02 -0.49730088203E+03  0.51417241101E+03  0.47000000000E+01 0. -1.
        -11    1    1    2    0    0  0.93305377674E+02 -0.18466179464E+02 -0.30029329510E+03  0.31499675612E+03  0.00000000000E+00 0.  1.
         11    1    1    2    0    0  0.41763838932E+02  0.48296351968E+02 -0.10818109237E+03  0.12561809026E+03  0.00000000000E+00 0. -1.
<mgrwt>
<rscale>  0 0.35174810E+03</rscale>
<asrwt>0</asrwt>
<pdfrwt beam="2">  1        2 0.14375735E+00 0.35174810E+03</pdfrwt>
<pdfrwt beam="1">  1       -2 0.50926842E-02 0.35174810E+03</pdfrwt>
<totfact> 0.55187825E+03</totfact>
</mgrwt>
</event>
<event>
 6    1  0.1190675E-005  0.1557273E+03  0.7546771E-02  0.1203411E+00
          2   -1    0    0  501    0  0.00000000000E+00  0.00000000000E+00  0.11952759000E+04  0.11952759000E+04  0.00000000000E+00 0. -1.
         -2   -1    0    0    0  501 -0.00000000000E+00 -0.00000000000E+00 -0.16869319696E+02  0.16869319696E+02  0.00000000000E+00 0.  1.
          5    1    1    2  502    0  0.22038053364E+02 -0.56393567357E+02  0.14731778007E+03  0.15934405719E+03  0.47000000000E+01 0.  1.
         -5    1    1    2    0  502 -0.67074617363E+02 -0.24921321357E+02  0.58290848844E+03  0.58730270938E+03  0.47000000000E+01 0.  1.
        -11    1    1    2    0    0  0.91726572122E+01 -0.14393340151E+02  0.25846957489E+02  0.30973716155E+02  0.00000000000E+00 0.  1.
         11    1    1    2    0    0  0.35863906787E+02  0.95708228865E+02  0.42233335430E+03  0.43452473697E+03  0.00000000000E+00 0. -1.
<mgrwt>
<rscale>  0 0.14763367E+03</rscale>
<asrwt>0</asrwt>
<pdfrwt beam="1">  1        2 0.18388853E+00 0.15572730E+03</pdfrwt>
<pdfrwt beam="2">  1       -2 0.25952809E-02 0.15572730E+03</pdfrwt>
<totfact> 0.10305243E+04</totfact>
</mgrwt>
</event>
<event>
 6    1  0.1190675E-005  0.2206958E+03  0.7546771E-02  0.1136521E+00
          2   -1    0    0  501    0  0.00000000000E+00  0.00000000000E+00  0.25471730880E+04  0.25471730880E+04  0.00000000000E+00 0. -1.
         -2   -1    0    0    0  501 -0.00000000000E+00 -0.00000000000E+00 -0.17738576694E+02  0.17738576694E+02  0.00000000000E+00 0.  1.
          5    1    1    2  502    0 -0.25158520899E+02 -0.13205224483E+03  0.63469538366E+03  0.64879200564E+03  0.47000000000E+01 0.  1.
         -5    1    1    2    0  502 -0.71887853502E+02 -0.21764632838E+02  0.69906710002E+03  0.70310629570E+03  0.47000000000E+01 0.  1.
        -11    1    1    2    0    0  0.94480067253E+02  0.63266769321E+02  0.68268340278E+03  0.69208799703E+03  0.00000000000E+00 0. -1.
         11    1    1    2    0    0  0.25663071475E+01  0.90550108352E+02  0.51298862482E+03  0.52092536630E+03  0.00000000000E+00 0.  1.
<mgrwt>
<rscale>  0 0.21649778E+03</rscale>
<asrwt>0</asrwt>
<pdfrwt beam="1">  1        2 0.39187249E+00 0.22069584E+03</pdfrwt>
<pdfrwt beam="2">  1       -2 0.27290138E-02 0.22069584E+03</pdfrwt>
<totfact> 0.18525622E+03</totfact>
</mgrwt>
</event>
<event>
 6    1  0.1190675E-005  0.1215891E+03  0.7546771E-02  0.1251568E+00
         -1   -1    0    0    0  501 -0.00000000000E+00  0.00000000000E+00  0.83657334743E+01  0.83657334743E+01  0.00000000000E+00 0.  1.
          1   -1    0    0  501    0  0.00000000000E+00 -0.00000000000E+00 -0.20767943529E+04  0.20767943529E+04  0.00000000000E+00 0. -1.
          5    1    1    2  502    0  0.13121379619E+02  0.51081084228E+02 -0.93920229409E+03  0.94069362015E+03  0.47000000000E+01 0. -1.
         -5    1    1    2    0  502 -0.47832099469E+02 -0.44960434680E+02 -0.75247378169E+03  0.75534643215E+03  0.47000000000E+01 0.  1.
        -11    1    1    2    0    0 -0.19632975092E+02 -0.31086673443E+02 -0.12067332664E+03  0.12615025461E+03  0.00000000000E+00 0.  1.
         11    1    1    2    0    0  0.54343694942E+02  0.24966023895E+02 -0.25607921705E+03  0.26296977951E+03  0.00000000000E+00 0. -1.
<mgrwt>
<rscale>  0 0.11500740E+03</rscale>
<asrwt>0</asrwt>
<pdfrwt beam="2">  1        1 0.31950639E+00 0.12158912E+03</pdfrwt>
<pdfrwt beam="1">  1       -1 0.12870376E-02 0.12158912E+03</pdfrwt>
<totfact> 0.38889355E+03</totfact>
</mgrwt>
</event>
<event>
 6    1  0.1190675E-005  0.1267258E+03  0.7546771E-02  0.1246175E+00
         -2   -1    0    0    0  501 -0.00000000000E+00  0.00000000000E+00  0.55498338444E+02  0.55498338444E+02  0.00000000000E+00 0.  1.
          2   -1    0    0  501    0  0.00000000000E+00 -0.00000000000E+00 -0.22560383083E+03  0.22560383083E+03  0.00000000000E+00 0. -1.
          5    1    1    2  502    0  0.30818765956E+02 -0.44593584390E+02 -0.26398943406E+02  0.60476262424E+02  0.47000000000E+01 0.  1.
         -5    1    1    2    0  502 -0.21511377361E+02  0.63236624704E+02 -0.85359221301E+02  0.10848915485E+03  0.47000000000E+01 0.  1.
        -11    1    1    2    0    0  0.10253330049E+01 -0.56483476686E+02 -0.36080085576E+02  0.67031388331E+02  0.00000000000E+00 0.  1.
         11    1    1    2    0    0 -0.10332721601E+02  0.37840436373E+02 -0.22267242105E+02  0.45105363667E+02  0.00000000000E+00 0. -1.
<mgrwt>
<rscale>  0 0.11815343E+03</rscale>
<asrwt>0</asrwt>
<pdfrwt beam="2">  1        2 0.34708281E-01 0.12672579E+03</pdfrwt>
<pdfrwt beam="1">  1       -2 0.85382060E-02 0.12672579E+03</pdfrwt>
<totfact> 0.11913786E+04</totfact>
</mgrwt>
</event>
<event>
 6    1  0.1190675E-005  0.2485937E+03  0.7546771E-02  0.1114197E+00
          1   -1    0    0  501    0  0.00000000000E+00  0.00000000000E+00  0.30797654843E+02  0.30797654843E+02  0.00000000000E+00 0. -1.
         -1   -1    0    0    0  501 -0.00000000000E+00 -0.00000000000E+00 -0.50165193016E+03  0.50165193016E+03  0.00000000000E+00 0.  1.
          5    1    1    2  502    0  0.79468611888E+02  0.51742853979E+02 -0.19143112260E+03  0.21368328880E+03  0.47000000000E+01 0. -1.
         -5    1    1    2    0  502 -0.21563386260E+02 -0.35859377102E+02 -0.57534468854E+02  0.71296421084E+02  0.47000000000E+01 0. -1.
        -11    1    1    2    0    0 -0.25839664084E+02 -0.50678286228E+02 -0.82033370002E+02  0.99827104179E+02  0.00000000000E+00 0.  1.
         11    1    1    2    0    0 -0.32065561544E+02  0.34794809351E+02 -0.13985531386E+03  0.14764277094E+03  0.00000000000E+00 0. -1.
<mgrwt>
<rscale>  0 0.24859367E+03</rscale>
<asrwt>0</asrwt>
<pdfrwt beam="1">  1        1 0.47381008E-02 0.24859367E+03</pdfrwt>
<pdfrwt beam="2">  1       -1 0.77177219E-01 0.24859367E+03</pdfrwt>
<totfact> 0.31327061E+03</totfact>
</mgrwt>
</event>
<event>
 6    1  0.1190675E-005  0.1890138E+03  0.7546771E-02  0.1164364E+00
          2   -1    0    0  501    0  0.00000000000E+00  0.00000000000E+00  0.47798359475E+03  0.47798359475E+03  0.00000000000E+00 0. -1.
         -2   -1    0    0    0  501 -0.00000000000E+00 -0.00000000000E+00 -0.75038373339E+02  0.75038373339E+02  0.00000000000E+00 0.  1.
          5    1    1    2  502    0  0.15758884888E+03  0.12223030770E+02  0.22472104868E+03  0.27478225469E+03  0.47000000000E+01 0.  1.
         -5    1    1    2    0  502 -0.18731526071E+02  0.16423183244E+02  0.78830522382E+02  0.82806595605E+02  0.47000000000E+01 0. -1.
        -11    1    1    2    0    0 -0.23074483608E+02  0.24358474087E+02  0.46975591588E+02  0.57727577973E+02  0.00000000000E+00 0. -1.
         11    1    1    2    0    0 -0.11578283920E+03 -0.53004688100E+02  0.52418058761E+02  0.13770553982E+03  0.00000000000E+00 0.  1.
<mgrwt>
<rscale>  0 0.18359983E+03</rscale>
<asrwt>0</asrwt>
<pdfrwt beam="1">  1        2 0.73535936E-01 0.18901383E+03</pdfrwt>
<pdfrwt beam="2">  1       -2 0.11544365E-01 0.18901383E+03</pdfrwt>
<totfact> 0.33927138E+03</totfact>
</mgrwt>
</event>
<event>
 6    1  0.1190675E-005  0.1755322E+03  0.7546771E-02  0.1178973E+00
          1   -1    0    0  501    0  0.00000000000E+00  0.00000000000E+00  0.93459773327E+02  0.93459773327E+02  0.00000000000E+00 0. -1.
         -1   -1    0    0    0  501 -0.00000000000E+00 -0.00000000000E+00 -0.33852954832E+03  0.33852954832E+03  0.00000000000E+00 0.  1.
          5    1    1    2  502    0 -0.36103357937E+02 -0.38398755591E+02 -0.21244923625E+02  0.57020642447E+02  0.47000000000E+01 0. -1.
         -5    1    1    2    0  502 -0.71421341183E+02  0.98616188635E+02 -0.23053858146E+02  0.12401504349E+03  0.47000000000E+01 0. -1.
        -11    1    1    2    0    0  0.60742699373E+02 -0.26618638266E+02 -0.17632282016E+03  0.18838249478E+03  0.00000000000E+00 0.  1.
         11    1    1    2    0    0  0.46781999747E+02 -0.33598794778E+02 -0.24448173064E+02  0.62571140928E+02  0.00000000000E+00 0. -1.
<mgrwt>
<rscale>  0 0.16892578E+03</rscale>
<asrwt>0</asrwt>
<pdfrwt beam="1">  1        1 0.14378427E-01 0.17553216E+03</pdfrwt>
<pdfrwt beam="2">  1       -1 0.52081469E-01 0.17553216E+03</pdfrwt>
<totfact> 0.14812793E+03</totfact>
</mgrwt>
</event>
<event>
 6    1  0.1190675E-005  0.1591252E+03  0.7546771E-02  0.1195745E+00
         -1   -1    0    0    0  501 -0.00000000000E+00  0.00000000000E+00  0.41027918507E+03  0.41027918507E+03  0.00000000000E+00 0.  1.
          1   -1    0    0  501    0  0.00000000000E+00 -0.00000000000E+00 -0.70037192548E+02  0.70037192548E+02  0.00000000000E+00 0. -1.
          5    1    1    2  502    0 -0.63322229554E+02 -0.99057284084E+01 -0.17271177828E+01  0.64287643811E+02  0.47000000000E+01 0. -1.
         -5    1    1    2    0  502  0.15940976324E+02 -0.82731093045E+02  0.66821357867E+02  0.10763703986E+03  0.47000000000E+01 0.  1.
        -11    1    1    2    0    0  0.43705461295E+02 -0.11664713812E+00  0.61487558507E+02  0.75438059391E+02  0.00000000000E+00 0.  1.
         11    1    1    2    0    0  0.36757919347E+01  0.92753468592E+02  0.21366019393E+03  0.23295363455E+03  0.00000000000E+00 0. -1.
<mgrwt>
<rscale>  0 0.15391364E+03</rscale>
<asrwt>0</asrwt>
<pdfrwt beam="2">  1        1 0.10774953E-01 0.15912522E+03</pdfrwt>
<pdfrwt beam="1">  1       -1 0.63119873E-01 0.15912522E+03</pdfrwt>
<totfact> 0.15018031E+03</totfact>
</mgrwt>
</event>
<event>
 6    1  0.1190675E-005  0.1267683E+03  0.7546771E-02  0.1247689E+00
          1   -1    0    0  501    0  0.00000000000E+00  0.00000000000E+00  0.51632881544E+03  0.51632881544E+03  0.00000000000E+00 0. -1.
         -1   -1    0    0    0  501 -0.00000000000E+00 -0.00000000000E+00 -0.23361053915E+02  0.23361053915E+02  0.00000000000E+00 0.  1.
          5    1    1    2  502    0  0.28884944238E+01 -0.46169425641E+02  0.35390244996E+02  0.58433883192E+02  0.47000000000E+01 0.  1.
         -5    1    1    2    0  502 -0.23279492586E+02  0.40833831227E+02  0.24176869262E+03  0.24634026727E+03  0.47000000000E+01 0.  1.
        -11    1    1    2    0    0 -0.18588718788E+02  0.37687670222E+02  0.91895892859E+02  0.10104828587E+03  0.00000000000E+00 0. -1.
         11    1    1    2    0    0  0.38979716950E+02 -0.32352075808E+02  0.12391293106E+03  0.13386743303E+03  0.00000000000E+00 0.  1.
<mgrwt>
<rscale>  0 0.11725887E+03</rscale>
<asrwt>0</asrwt>
<pdfrwt beam="1">  1        1 0.79435194E-01 0.12676832E+03</pdfrwt>
<pdfrwt beam="2">  1       -1 0.35940087E-02 0.12676832E+03</pdfrwt>
<totfact> 0.11790760E+04</totfact>
</mgrwt>
</event>
<event>
 6    1  0.1190675E-005  0.1491102E+03  0.7546771E-02  0.1211426E+00
          1   -1    0    0  501    0  0.00000000000E+00  0.00000000000E+00  0.24685635359E+03  0.24685635359E+03  0.00000000000E+00 0. -1.
         -1   -1    0    0    0  501 -0.00000000000E+00 -0.00000000000E+00 -0.78155949357E+02  0.78155949357E+02  0.00000000000E+00 0.  1.
          5    1    1    2  502    0  0.40892853063E+02 -0.10892123995E+01  0.14751776817E+02  0.43739189917E+02  0.47000000000E+01 0.  1.
         -5    1    1    2    0  502 -0.79892383728E+02  0.72420178570E+02  0.39404686020E+02  0.11490123812E+03  0.47000000000E+01 0.  1.
        -11    1    1    2    0    0  0.17853549047E+02 -0.64864690568E+02  0.12496709255E+03  0.14192586627E+03  0.00000000000E+00 0. -1.
         11    1    1    2    0    0  0.21145981618E+02 -0.64662756030E+01 -0.10423151148E+02  0.24446008644E+02  0.00000000000E+00 0.  1.
<mgrwt>
<rscale>  0 0.14142400E+03</rscale>
<asrwt>0</asrwt>
<pdfrwt beam="1">  1        1 0.37977900E-01 0.14911024E+03</pdfrwt>
<pdfrwt beam="2">  1       -1 0.12023992E-01 0.14911024E+03</pdfrwt>
<totfact> 0.49357321E+03</totfact>
</mgrwt>
</event>
<event>
 6    1  0.1190675E-005  0.1635948E+03  0.7546771E-02  0.1191992E+00
          2   -1    0    0  501    0  0.00000000000E+00  0.00000000000E+00  0.13950058130E+04  0.13950058130E+04  0.00000000000E+00 0. -1.
         -2   -1    0    0    0  501 -0.00000000000E+00 -0.00000000000E+00 -0.20942584450E+02  0.20942584450E+02  0.00000000000E+00 0.  1.
          5    1    1    2  502    0 -0.74927315296E+02  0.11174623010E+02  0.28377333363E+03  0.29374882069E+03  0.47000000000E+01 0.  1.
         -5    1    1    2    0  502 -0.18352459677E+02 -0.60546571806E+02  0.77457856441E+03  0.77717227342E+03  0.47000000000E+01 0.  1.
        -11    1    1    2    0    0  0.63065700236E+02  0.12481536644E+02  0.27473161363E+03  0.28215338175E+03  0.00000000000E+00 0. -1.
         11    1    1    2    0    0  0.30214074737E+02  0.36890412152E+02  0.40979716885E+02  0.62873921597E+02  0.00000000000E+00 0.  1.
<mgrwt>
<rscale>  0 0.15711542E+03</rscale>
<asrwt>0</asrwt>
<pdfrwt beam="1">  1        2 0.21461621E+00 0.16359477E+03</pdfrwt>
<pdfrwt beam="2">  1       -2 0.32219372E-02 0.16359477E+03</pdfrwt>
<totfact> 0.58439763E+03</totfact>
</mgrwt>
</event>
<event>
 6    1  0.1190675E-005  0.1534574E+03  0.7546771E-02  0.1205255E+00
         -2   -1    0    0    0  501 -0.00000000000E+00  0.00000000000E+00  0.27669508095E+03  0.27669508095E+03  0.00000000000E+00 0.  1.
          2   -1    0    0  501    0  0.00000000000E+00 -0.00000000000E+00 -0.84803908590E+02  0.84803908590E+02  0.00000000000E+00 0. -1.
          5    1    1    2  502    0  0.54917301100E+02 -0.57135574778E+01  0.44472404103E+01  0.55591569923E+02  0.47000000000E+01 0. -1.
         -5    1    1    2    0  502 -0.50537802854E+02 -0.83193263047E+02  0.25912292947E+02  0.10084009847E+03  0.47000000000E+01 0. -1.
        -11    1    1    2    0    0 -0.36214208767E+02  0.73253659044E+02  0.72551426760E+02  0.10927615021E+03  0.00000000000E+00 0. -1.
         11    1    1    2    0    0  0.31834710521E+02  0.15653161481E+02  0.88980212243E+02  0.95791170935E+02  0.00000000000E+00 0.  1.
<mgrwt>
<rscale>  0 0.14617409E+03</rscale>
<asrwt>0</asrwt>
<pdfrwt beam="2">  1        2 0.13046755E-01 0.15345737E+03</pdfrwt>
<pdfrwt beam="1">  1       -2 0.42568474E-01 0.15345737E+03</pdfrwt>
<totfact> 0.23664511E+03</totfact>
</mgrwt>
</event>
<event>
 6    1  0.1190675E-005  0.1993105E+03  0.7546771E-02  0.1154295E+00
         -1   -1    0    0    0  501 -0.00000000000E+00  0.00000000000E+00  0.12517746204E+04  0.12517746204E+04  0.00000000000E+00 0.  1.
          1   -1    0    0  501    0  0.00000000000E+00 -0.00000000000E+00 -0.29440932560E+02  0.29440932560E+02  0.00000000000E+00 0. -1.
          5    1    1    2  502    0  0.61958701670E+02 -0.64163110625E+02  0.16175005435E+03  0.18477271325E+03  0.47000000000E+01 0. -1.
         -5    1    1    2    0  502  0.55766102876E+02 -0.37032853342E+02  0.55948029129E+03  0.56349052947E+03  0.47000000000E+01 0. -1.
        -11    1    1    2    0    0 -0.13183358207E+01  0.27328967518E+02  0.24219938011E+02  0.36540605799E+02  0.00000000000E+00 0. -1.
         11    1    1    2    0    0 -0.11640646873E+03  0.73866996448E+02  0.47688340423E+03  0.49641170449E+03  0.00000000000E+00 0.  1.
<mgrwt>
<rscale>  0 0.19469398E+03</rscale>
<asrwt>0</asrwt>
<pdfrwt beam="2">  1        1 0.45293752E-02 0.19931048E+03</pdfrwt>
<pdfrwt beam="1">  1       -1 0.19258067E+00 0.19931048E+03</pdfrwt>
<totfact> 0.35828392E+02</totfact>
</mgrwt>
</event>
<event>
 6    1  0.1190675E-005  0.3266049E+03  0.7546771E-02  0.1072649E+00
         -1   -1    0    0    0  501 -0.00000000000E+00  0.00000000000E+00  0.24648911386E+03  0.24648911386E+03  0.00000000000E+00 0.  1.
          1   -1    0    0  501    0  0.00000000000E+00 -0.00000000000E+00 -0.10819014635E+03  0.10819014635E+03  0.00000000000E+00 0. -1.
          5    1    1    2  502    0 -0.24873464048E+02 -0.10692838701E+03 -0.24699923602E+02  0.11262568708E+03  0.47000000000E+01 0.  1.
         -5    1    1    2    0  502  0.14325527541E+02 -0.72214338038E+01  0.57831945209E+02  0.60199615714E+02  0.47000000000E+01 0.  1.
        -11    1    1    2    0    0 -0.35575083340E+02  0.26533761411E+02  0.12180222314E+02  0.46021569561E+02  0.00000000000E+00 0. -1.
         11    1    1    2    0    0  0.46123019847E+02  0.87616059408E+02  0.92986723591E+02  0.13583238785E+03  0.00000000000E+00 0.  1.
<mgrwt>
<rscale>  0 0.32660492E+03</rscale>
<asrwt>0</asrwt>
<pdfrwt beam="2">  1        1 0.16644638E-01 0.32660492E+03</pdfrwt>
<pdfrwt beam="1">  1       -1 0.37921402E-01 0.32660492E+03</pdfrwt>
<totfact> 0.22094910E+03</totfact>
</mgrwt>
</event>
<event>
 6    1  0.1190675E-005  0.4248607E+03  0.7546771E-02  0.1035496E+00
         -1   -1    0    0    0  501 -0.00000000000E+00  0.00000000000E+00  0.63290893527E+02  0.63290893527E+02  0.00000000000E+00 0.  1.
          1   -1    0    0  501    0  0.00000000000E+00 -0.00000000000E+00 -0.71300386910E+03  0.71300386910E+03  0.00000000000E+00 0. -1.
          5    1    1    2  502    0  0.89443767401E+02  0.14265061279E+03 -0.49154175638E+03  0.51960059000E+03  0.47000000000E+01 0.  1.
         -5    1    1    2    0  502 -0.10853989212E+02 -0.19400539212E+02 -0.45805762903E+02  0.51131672363E+02  0.47000000000E+01 0.  1.
        -11    1    1    2    0    0 -0.54584568055E+01 -0.92346414001E+02 -0.55126368669E+02  0.10768737833E+03  0.00000000000E+00 0.  1.
         11    1    1    2    0    0 -0.73131321384E+02 -0.30903659578E+02 -0.57239087623E+02  0.97875121939E+02  0.00000000000E+00 0. -1.
<mgrwt>
<rscale>  0 0.42486069E+03</rscale>
<asrwt>0</asrwt>
<pdfrwt beam="2">  1        1 0.10969290E+00 0.42486069E+03</pdfrwt>
<pdfrwt beam="1">  1       -1 0.97370607E-02 0.42486069E+03</pdfrwt>
<totfact> 0.17472047E+03</totfact>
</mgrwt>
</event>
<event>
 6    1  0.1190675E-005  0.2070275E+03  0.7546771E-02  0.1148153E+00
         -4   -1    0    0    0  501 -0.00000000000E+00  0.00000000000E+00  0.16311665972E+03  0.16311665972E+03  0.00000000000E+00 0. -1.
          4   -1    0    0  501    0  0.00000000000E+00 -0.00000000000E+00 -0.26721806735E+03  0.26721806735E+03  0.00000000000E+00 0.  1.
          5    1    1    2  502    0  0.23540887510E+02  0.11965785396E+03 -0.77658127997E+02  0.14465493508E+03  0.47000000000E+01 0. -1.
         -5    1    1    2    0  502 -0.76400558695E+02  0.36673792358E+02 -0.47500886672E+02  0.97264775995E+02  0.47000000000E+01 0. -1.
        -11    1    1    2    0    0  0.16888522933E+02 -0.55713141624E+02 -0.34816552643E+02  0.67833389230E+02  0.00000000000E+00 0.  1.
         11    1    1    2    0    0  0.35971148251E+02 -0.10061850469E+03  0.55874159687E+02  0.12058162676E+03  0.00000000000E+00 0. -1.
<mgrwt>
<rscale>  0 0.20189125E+03</rscale>
<asrwt>0</asrwt>
<pdfrwt beam="2">  1        4 0.41110472E-01 0.20702746E+03</pdfrwt>
<pdfrwt beam="1">  1       -4 0.25094871E-01 0.20702746E+03</pdfrwt>
<totfact> 0.15306086E+02</totfact>
</mgrwt>
</event>
<event>
 6    1  0.1190675E-005  0.2432214E+03  0.7546771E-02  0.1117665E+00
          2   -1    0    0  501    0  0.00000000000E+00  0.00000000000E+00  0.88399513750E+03  0.88399513750E+03  0.00000000000E+00 0. -1.
         -2   -1    0    0    0  501 -0.00000000000E+00 -0.00000000000E+00 -0.16729909504E+02  0.16729909504E+02  0.00000000000E+00 0.  1.
          5    1    1    2  502    0  0.71234873097E+02 -0.27027902636E+01  0.14757293418E+03  0.16395600972E+03  0.47000000000E+01 0.  1.
         -5    1    1    2    0  502 -0.17462356925E+02  0.17573061125E+02  0.38851285281E+03  0.38933028804E+03  0.47000000000E+01 0.  1.
        -11    1    1    2    0    0 -0.22871709415E+02  0.36878882441E+02  0.11169249148E+03  0.11982645666E+03  0.00000000000E+00 0.  1.
         11    1    1    2    0    0 -0.30900806758E+02 -0.51749153303E+02  0.21948694952E+03  0.22761229258E+03  0.00000000000E+00 0. -1.
<mgrwt>
<rscale>  0 0.24322137E+03</rscale>
<asrwt>0</asrwt>
<pdfrwt beam="1">  1        2 0.13599922E+00 0.24322137E+03</pdfrwt>
<pdfrwt beam="2">  1       -2 0.25738329E-02 0.24322137E+03</pdfrwt>
<totfact> 0.16401493E+04</totfact>
</mgrwt>
</event>
<event>
 6    1  0.1190675E-005  0.1318648E+03  0.7546771E-02  0.1237884E+00
          2   -1    0    0  501    0  0.00000000000E+00  0.00000000000E+00  0.70741160547E+02  0.70741160547E+02  0.00000000000E+00 0. -1.
         -2   -1    0    0    0  501 -0.00000000000E+00 -0.00000000000E+00 -0.19367859551E+03  0.19367859551E+03  0.00000000000E+00 0.  1.
          5    1    1    2  502    0 -0.40400495647E+02  0.85916138819E+01 -0.59662614228E+02  0.72716802832E+02  0.47000000000E+01 0. -1.
         -5    1    1    2    0  502  0.64257397247E+02  0.25971043907E+02  0.58350749827E+01  0.69711163544E+02  0.47000000000E+01 0. -1.
        -11    1    1    2    0    0  0.11487032207E+02 -0.47452206250E+02 -0.68808245828E+02  0.84369653791E+02  0.00000000000E+00 0.  1.
         11    1    1    2    0    0 -0.35343933808E+02  0.12889548461E+02 -0.30164989419E+00  0.37622135893E+02  0.00000000000E+00 0. -1.
<mgrwt>
<rscale>  0 0.12321627E+03</rscale>
<asrwt>0</asrwt>
<pdfrwt beam="1">  1        2 0.10883256E-01 0.13186479E+03</pdfrwt>
<pdfrwt beam="2">  1       -2 0.29796707E-01 0.13186479E+03</pdfrwt>
<totfact> 0.56539502E+03</totfact>
</mgrwt>
</event>
<event>
 6    1  0.1190675E-005  0.2085075E+03  0.7546771E-02  0.1146651E+00
          1   -1    0    0  501    0  0.00000000000E+00  0.00000000000E+00  0.69624412956E+03  0.69624412956E+03  0.00000000000E+00 0. -1.
         -1   -1    0    0    0  501 -0.00000000000E+00 -0.00000000000E+00 -0.61997198590E+02  0.61997198590E+02  0.00000000000E+00 0.  1.
          5    1    1    2  502    0 -0.87047647891E+02 -0.15750943716E+02  0.26903763749E+03  0.28324675747E+03  0.47000000000E+01 0.  1.
         -5    1    1    2    0  502 -0.25653182679E+02 -0.10732790999E+03  0.16911651125E+03  0.20198972851E+03  0.47000000000E+01 0.  1.
        -11    1    1    2    0    0  0.23112697932E+02  0.38823200262E+02  0.45933995930E+01  0.45415162712E+02  0.00000000000E+00 0.  1.
         11    1    1    2    0    0  0.89588132637E+02  0.84255653444E+02  0.19149938263E+03  0.22758967946E+03  0.00000000000E+00 0. -1.
<mgrwt>
<rscale>  0 0.20370351E+03</rscale>
<asrwt>0</asrwt>
<pdfrwt beam="1">  1        1 0.10711448E+00 0.20850753E+03</pdfrwt>
<pdfrwt beam="2">  1       -1 0.95380310E-02 0.20850753E+03</pdfrwt>
<totfact> 0.18559962E+03</totfact>
</mgrwt>
</event>
<event>
 6    1  0.1190675E-005  0.1469123E+03  0.7546771E-02  0.1220137E+00
          2   -1    0    0  501    0  0.00000000000E+00  0.00000000000E+00  0.18924791441E+04  0.18924791441E+04  0.00000000000E+00 0. -1.
         -2   -1    0    0    0  501 -0.00000000000E+00 -0.00000000000E+00 -0.11920548284E+02  0.11920548284E+02  0.00000000000E+00 0.  1.
          5    1    1    2  502    0 -0.45059084082E+02 -0.96134625249E+01  0.62866378515E+03  0.63036734090E+03  0.47000000000E+01 0. -1.
         -5    1    1    2    0  502  0.96032797981E+02  0.21812419834E+02  0.93572207711E+03  0.94090168219E+03  0.47000000000E+01 0.  1.
        -11    1    1    2    0    0 -0.40033969455E+02 -0.49494750329E+02  0.16011553696E+03  0.17230622217E+03  0.00000000000E+00 0. -1.
         11    1    1    2    0    0 -0.10939744444E+02  0.37295793020E+02  0.15605719660E+03  0.16082444713E+03  0.00000000000E+00 0.  1.
<mgrwt>
<rscale>  0 0.13505826E+03</rscale>
<asrwt>0</asrwt>
<pdfrwt beam="1">  1        2 0.29115040E+00 0.14691228E+03</pdfrwt>
<pdfrwt beam="2">  1       -2 0.18339320E-02 0.14691228E+03</pdfrwt>
<totfact> 0.73438232E+03</totfact>
</mgrwt>
</event>
<event>
 6    1  0.1190675E-005  0.1399844E+03  0.7546771E-02  0.1224769E+00
          1   -1    0    0  501    0  0.00000000000E+00  0.00000000000E+00  0.21344257815E+02  0.21344257815E+02  0.00000000000E+00 0. -1.
         -1   -1    0    0    0  501 -0.00000000000E+00 -0.00000000000E+00 -0.73599861456E+03  0.73599861456E+03  0.00000000000E+00 0.  1.
          5    1    1    2  502    0 -0.78078204558E+02 -0.29006710268E+01 -0.19890190035E+03  0.21374909563E+03  0.47000000000E+01 0.  1.
         -5    1    1    2    0  502  0.39565670510E+02 -0.46867918718E+02 -0.17514755627E+03  0.18563620486E+03  0.47000000000E+01 0.  1.
        -11    1    1    2    0    0  0.12798137570E+01  0.67440864632E+02 -0.18241058305E+03  0.19448272148E+03  0.00000000000E+00 0. -1.
         11    1    1    2    0    0  0.37232720291E+02 -0.17672274887E+02 -0.15819431708E+03  0.16347485041E+03  0.00000000000E+00 0.  1.
<mgrwt>
<rscale>  0 0.13182752E+03</rscale>
<asrwt>0</asrwt>
<pdfrwt beam="1">  1        1 0.32837326E-02 0.13998436E+03</pdfrwt>
<pdfrwt beam="2">  1       -1 0.11323053E+00 0.13998436E+03</pdfrwt>
<totfact> 0.22082648E+03</totfact>
</mgrwt>
</event>
<event>
 6    1  0.1190675E-005  0.1250507E+03  0.7546771E-02  0.1249814E+00
          2   -1    0    0  501    0  0.00000000000E+00  0.00000000000E+00  0.55176320322E+03  0.55176320322E+03  0.00000000000E+00 0. -1.
         -2   -1    0    0    0  501 -0.00000000000E+00 -0.00000000000E+00 -0.23722783759E+02  0.23722783759E+02  0.00000000000E+00 0.  1.
          5    1    1    2  502    0 -0.77587805729E+01  0.20088825452E+02  0.37953599990E+03  0.38017551841E+03  0.47000000000E+01 0.  1.
         -5    1    1    2    0  502  0.83608625599E+01 -0.23800771470E+02  0.77600062359E+01  0.26808365152E+02  0.47000000000E+01 0.  1.
        -11    1    1    2    0    0 -0.10707202019E+02 -0.40132616456E+02  0.98009680656E+02  0.10644796185E+03  0.00000000000E+00 0.  1.
         11    1    1    2    0    0  0.10105120032E+02  0.43844562474E+02  0.42734732675E+02  0.62054141571E+02  0.00000000000E+00 0. -1.
<mgrwt>
<rscale>  0 0.11601808E+03</rscale>
<asrwt>0</asrwt>
<pdfrwt beam="1">  1        2 0.84886637E-01 0.12505073E+03</pdfrwt>
<pdfrwt beam="2">  1       -2 0.36496595E-02 0.12505073E+03</pdfrwt>
<totfact> 0.16485374E+04</totfact>
</mgrwt>
</event>
<event>
 6    1  0.1190675E-005  0.2003712E+03  0.7546771E-02  0.1154176E+00
          2   -1    0    0  501    0  0.00000000000E+00  0.00000000000E+00  0.63372781811E+03  0.63372781811E+03  0.00000000000E+00 0. -1.
         -2   -1    0    0    0  501 -0.00000000000E+00 -0.00000000000E+00 -0.60942234570E+02  0.60942234570E+02  0.00000000000E+00 0.  1.
          5    1    1    2  502    0  0.40613501255E+02 -0.44250775151E+02  0.87684258146E+02  0.10638706083E+03  0.47000000000E+01 0.  1.
         -5    1    1    2    0  502 -0.88559097273E+02 -0.10483581133E+03  0.30398847560E+03  0.33356310399E+03  0.47000000000E+01 0.  1.
        -11    1    1    2    0    0  0.10892236520E+02  0.10011905110E+03  0.55715001999E+02  0.11509399053E+03  0.00000000000E+00 0.  1.
         11    1    1    2    0    0  0.37053359497E+02  0.48967535386E+02  0.12539784780E+03  0.13962589733E+03  0.00000000000E+00 0. -1.
<mgrwt>
<rscale>  0 0.19483024E+03</rscale>
<asrwt>0</asrwt>
<pdfrwt beam="1">  1        2 0.97496583E-01 0.20037120E+03</pdfrwt>
<pdfrwt beam="2">  1       -2 0.93757288E-02 0.20037120E+03</pdfrwt>
<totfact> 0.34371290E+03</totfact>
</mgrwt>
</event>
<event>
 6    1  0.1190675E-005  0.1325807E+03  0.7546771E-02  0.1236830E+00
         -1   -1    0    0    0  501 -0.00000000000E+00  0.00000000000E+00  0.11840817999E+02  0.11840817999E+02  0.00000000000E+00 0.  1.
          1   -1    0    0  501    0  0.00000000000E+00 -0.00000000000E+00 -0.12580796631E+04  0.12580796631E+04  0.00000000000E+00 0. -1.
          5    1    1    2  502    0 -0.15403993756E+00  0.42061920857E+02 -0.11762811551E+03  0.12501076943E+03  0.47000000000E+01 0.  1.
         -5    1    1    2    0  502  0.43737716853E+02 -0.43897511356E+02 -0.76490903997E+03  0.76742941618E+03  0.47000000000E+01 0.  1.
        -11    1    1    2    0    0 -0.31984048666E+02 -0.43032312587E+02 -0.22245817766E+03  0.22882832015E+03  0.00000000000E+00 0.  1.
         11    1    1    2    0    0 -0.11599628250E+02  0.44867903087E+02 -0.14124351193E+03  0.14865197531E+03  0.00000000000E+00 0. -1.
<mgrwt>
<rscale>  0 0.12388012E+03</rscale>
<asrwt>0</asrwt>
<pdfrwt beam="2">  1        1 0.19355061E+00 0.13258075E+03</pdfrwt>
<pdfrwt beam="1">  1       -1 0.18216653E-02 0.13258075E+03</pdfrwt>
<totfact> 0.79673450E+03</totfact>
</mgrwt>
</event>
<event>
 6    1  0.1190675E-005  0.3848773E+03  0.7546771E-02  0.1049146E+00
         -2   -1    0    0    0  501 -0.00000000000E+00  0.00000000000E+00  0.33878396506E+02  0.33878396506E+02  0.00000000000E+00 0.  1.
          2   -1    0    0  501    0  0.00000000000E+00 -0.00000000000E+00 -0.10931044865E+04  0.10931044865E+04  0.00000000000E+00 0. -1.
          5    1    1    2  502    0 -0.23861154447E+02 -0.26697131417E+02 -0.34524039175E+02  0.49960892690E+02  0.47000000000E+01 0. -1.
         -5    1    1    2    0  502  0.64463259262E+02 -0.12508712656E+03 -0.56540166700E+03  0.58266923385E+03  0.47000000000E+01 0. -1.
        -11    1    1    2    0    0  0.14914173054E+02  0.11540500489E+03 -0.28478606643E+03  0.30764240824E+03  0.00000000000E+00 0.  1.
         11    1    1    2    0    0 -0.55516277869E+02  0.36379253085E+02 -0.17451431735E+03  0.18671034820E+03  0.00000000000E+00 0. -1.
<mgrwt>
<rscale>  0 0.38487726E+03</rscale>
<asrwt>0</asrwt>
<pdfrwt beam="2">  1        2 0.16816991E+00 0.38487726E+03</pdfrwt>
<pdfrwt beam="1">  1       -2 0.52120612E-02 0.38487726E+03</pdfrwt>
<totfact> 0.42549262E+03</totfact>
</mgrwt>
</event>
<event>
 6    1  0.1190675E-005  0.1737883E+03  0.7546771E-02  0.1179947E+00
          2   -1    0    0  501    0  0.00000000000E+00  0.00000000000E+00  0.14639254653E+04  0.14639254653E+04  0.00000000000E+00 0. -1.
         -2   -1    0    0    0  501 -0.00000000000E+00 -0.00000000000E+00 -0.35997786560E+02  0.35997786560E+02  0.00000000000E+00 0.  1.
          5    1    1    2  502    0 -0.18039809522E+02  0.62996807073E+02  0.22154249756E+03  0.23107834311E+03  0.47000000000E+01 0.  1.
         -5    1    1    2    0  502 -0.65305149683E+02  0.24362071774E+02  0.10448882702E+04  0.10472210179E+04  0.47000000000E+01 0.  1.
        -11    1    1    2    0    0  0.10370723887E+03 -0.72514441631E+02  0.13295087235E+03  0.18354691525E+03  0.00000000000E+00 0. -1.
         11    1    1    2    0    0 -0.20362279669E+02 -0.14844437216E+02  0.28546038617E+02  0.38076975593E+02  0.00000000000E+00 0.  1.
<mgrwt>
<rscale>  0 0.16800260E+03</rscale>
<asrwt>0</asrwt>
<pdfrwt beam="1">  1        2 0.22521926E+00 0.17378828E+03</pdfrwt>
<pdfrwt beam="2">  1       -2 0.55381221E-02 0.17378828E+03</pdfrwt>
<totfact> 0.23881208E+03</totfact>
</mgrwt>
</event>
<event>
 6    1  0.1190675E-005  0.3649356E+03  0.7546771E-02  0.1056646E+00
         -2   -1    0    0    0  501 -0.00000000000E+00  0.00000000000E+00  0.43279848554E+03  0.43279848554E+03  0.00000000000E+00 0.  1.
          2   -1    0    0  501    0  0.00000000000E+00 -0.00000000000E+00 -0.76928397316E+02  0.76928397316E+02  0.00000000000E+00 0. -1.
          5    1    1    2  502    0  0.11992757211E+03  0.75420312128E+02  0.20369569649E+03  0.24816299644E+03  0.47000000000E+01 0. -1.
         -5    1    1    2    0  502  0.32399002453E+01  0.66230870439E+01 -0.18098259204E+02  0.20099731883E+02  0.47000000000E+01 0. -1.
        -11    1    1    2    0    0 -0.62558078833E+02 -0.78718320349E+02  0.14326023270E+03  0.17502451674E+03  0.00000000000E+00 0.  1.
         11    1    1    2    0    0 -0.60609393518E+02 -0.33250788230E+01  0.27012418241E+02  0.66439637800E+02  0.00000000000E+00 0. -1.
<mgrwt>
<rscale>  0 0.36493558E+03</rscale>
<asrwt>0</asrwt>
<pdfrwt beam="2">  1        2 0.11835138E-01 0.36493558E+03</pdfrwt>
<pdfrwt beam="1">  1       -2 0.66584381E-01 0.36493558E+03</pdfrwt>
<totfact> 0.11101748E+03</totfact>
</mgrwt>
</event>
<event>
 6    1  0.1190675E-005  0.1938642E+03  0.7546771E-02  0.1158264E+00
         -2   -1    0    0    0  501 -0.00000000000E+00  0.00000000000E+00  0.20830095769E+02  0.20830095769E+02  0.00000000000E+00 0.  1.
          2   -1    0    0  501    0  0.00000000000E+00 -0.00000000000E+00 -0.26630400114E+04  0.26630400114E+04  0.00000000000E+00 0. -1.
          5    1    1    2  502    0 -0.44553030885E+02  0.35165250462E+02 -0.14803390533E+04  0.14814342274E+04  0.47000000000E+01 0. -1.
         -5    1    1    2    0  502 -0.95207492925E+02  0.37124429146E+02 -0.68940634219E+03  0.69695472206E+03  0.47000000000E+01 0.  1.
        -11    1    1    2    0    0  0.13464671476E+03 -0.40771631634E+02 -0.42947979026E+03  0.45193467889E+03  0.00000000000E+00 0.  1.
         11    1    1    2    0    0  0.51138090526E+01 -0.31518047975E+02 -0.42984729905E+02  0.53546478840E+02  0.00000000000E+00 0. -1.
<mgrwt>
<rscale>  0 0.19021913E+03</rscale>
<asrwt>0</asrwt>
<pdfrwt beam="2">  1        2 0.40969831E+00 0.19386422E+03</pdfrwt>
<pdfrwt beam="1">  1       -2 0.32046313E-02 0.19386422E+03</pdfrwt>
<totfact> 0.12654031E+03</totfact>
</mgrwt>
</event>
<event>
 6    1  0.1190675E-005  0.1554697E+03  0.7546771E-02  0.1207555E+00
          2   -1    0    0  501    0  0.00000000000E+00  0.00000000000E+00  0.58307884848E+03  0.58307884848E+03  0.00000000000E+00 0. -1.
         -2   -1    0    0    0  501 -0.00000000000E+00 -0.00000000000E+00 -0.54603762844E+02  0.54603762844E+02  0.00000000000E+00 0.  1.
          5    1    1    2  502    0  0.19188041511E+02  0.58659362488E+02  0.92658222903E+02  0.11143041782E+03  0.47000000000E+01 0. -1.
         -5    1    1    2    0  502 -0.59533527693E+02  0.24514523146E+02  0.40003292190E+03  0.40520813339E+03  0.47000000000E+01 0. -1.
        -11    1    1    2    0    0  0.38083324702E+02 -0.13085842315E+02 -0.39207230439E+01  0.40459250595E+02  0.00000000000E+00 0.  1.
         11    1    1    2    0    0  0.22621614792E+01 -0.70088043318E+02  0.39704663876E+02  0.80584809513E+02  0.00000000000E+00 0. -1.
<mgrwt>
<rscale>  0 0.14437950E+03</rscale>
<asrwt>0</asrwt>
<pdfrwt beam="1">  1        2 0.89704434E-01 0.15546970E+03</pdfrwt>
<pdfrwt beam="2">  1       -2 0.84005793E-02 0.15546970E+03</pdfrwt>
<totfact> 0.44516053E+03</totfact>
</mgrwt>
</event>
<event>
 6    1  0.1190675E-005  0.1116120E+03  0.7546771E-02  0.1267975E+00
          1   -1    0    0  501    0  0.00000000000E+00  0.00000000000E+00  0.24954935800E+04  0.24954935800E+04  0.00000000000E+00 0. -1.
         -1   -1    0    0    0  501 -0.00000000000E+00 -0.00000000000E+00 -0.45216578369E+02  0.45216578369E+02  0.00000000000E+00 0.  1.
          5    1    1    2  502    0 -0.35597912997E+02  0.21463989470E+02  0.23030768380E+04  0.23034567341E+04  0.47000000000E+01 0. -1.
         -5    1    1    2    0  502  0.19064547436E+02 -0.15556166433E+02  0.14389906465E+03  0.14606328111E+03  0.47000000000E+01 0.  1.
        -11    1    1    2    0    0 -0.67774774444E+00  0.22161362694E+02 -0.34531261505E+02  0.41036488149E+02  0.00000000000E+00 0.  1.
         11    1    1    2    0    0  0.17211113306E+02 -0.28069185731E+02  0.37832360528E+02  0.50153655020E+02  0.00000000000E+00 0. -1.
<mgrwt>
<rscale>  0 0.10609598E+03</rscale>
<asrwt>0</asrwt>
<pdfrwt beam="1">  1        1 0.38392198E+00 0.11161199E+03</pdfrwt>
<pdfrwt beam="2">  1       -1 0.69563986E-02 0.11161199E+03</pdfrwt>
<totfact> 0.18110613E+02</totfact>
</mgrwt>
</event>
<event>
 6    1  0.1190675E-005  0.1881840E+03  0.7546771E-02  0.1165187E+00
          2   -1    0    0  501    0  0.00000000000E+00  0.00000000000E+00  0.49048879612E+03  0.49048879612E+03  0.00000000000E+00 0. -1.
         -2   -1    0    0    0  501 -0.00000000000E+00 -0.00000000000E+00 -0.90864335376E+02  0.90864335376E+02  0.00000000000E+00 0.  1.
          5    1    1    2  502    0 -0.85245322233E+02 -0.61559043542E+02  0.27786497072E+03  0.29713181041E+03  0.47000000000E+01 0.  1.
         -5    1    1    2    0  502  0.28023696664E+02 -0.66946788483E+02  0.86921087505E+02  0.11333386747E+03  0.47000000000E+01 0.  1.
        -11    1    1    2    0    0  0.89900180376E+01  0.80172406804E+02 -0.20223137880E+02  0.83170971756E+02  0.00000000000E+00 0. -1.
         11    1    1    2    0    0  0.48231607532E+02  0.48333425221E+02  0.55061540402E+02  0.87716481861E+02  0.00000000000E+00 0.  1.
<mgrwt>
<rscale>  0 0.18273007E+03</rscale>
<asrwt>0</asrwt>
<pdfrwt beam="1">  1        2 0.75459814E-01 0.18818396E+03</pdfrwt>
<pdfrwt beam="2">  1       -2 0.13979129E-01 0.18818396E+03</pdfrwt>
<totfact> 0.24187574E+03</totfact>
</mgrwt>
</event>
<event>
 6    1  0.1190675E-005  0.3652652E+03  0.7546771E-02  0.1056518E+00
         -1   -1    0    0    0  501 -0.00000000000E+00  0.00000000000E+00  0.14709374893E+04  0.14709374893E+04  0.00000000000E+00 0.  1.
          1   -1    0    0  501    0  0.00000000000E+00 -0.00000000000E+00 -0.22675791026E+02  0.22675791026E+02  0.00000000000E+00 0. -1.
          5    1    1    2  502    0  0.67619625645E+01 -0.22673053768E+02  0.96048548458E+02  0.99031334262E+02  0.47000000000E+01 0.  1.
         -5    1    1    2    0  502 -0.10394990218E+01  0.16423387288E+03  0.81971471144E+03  0.83601922449E+03  0.47000000000E+01 0.  1.
        -11    1    1    2    0    0  0.10006051163E+02 -0.78467905271E+02  0.42973674177E+03  0.43695652008E+03  0.00000000000E+00 0.  1.
         11    1    1    2    0    0 -0.15728514705E+02 -0.63092913839E+02  0.10276169659E+03  0.12160620148E+03  0.00000000000E+00 0. -1.
<mgrwt>
<rscale>  0 0.36526522E+03</rscale>
<asrwt>0</asrwt>
<pdfrwt beam="2">  1        1 0.34885844E-02 0.36526522E+03</pdfrwt>
<pdfrwt beam="1">  1       -1 0.22629800E+00 0.36526522E+03</pdfrwt>
<totfact> 0.30848307E+02</totfact>
</mgrwt>
</event>
<event>
 6    1  0.1190675E-005  0.1479586E+03  0.7546771E-02  0.1212804E+00
         -2   -1    0    0    0  501 -0.00000000000E+00  0.00000000000E+00  0.80405393284E+02  0.80405393284E+02  0.00000000000E+00 0.  1.
          2   -1    0    0  501    0  0.00000000000E+00 -0.00000000000E+00 -0.39571515292E+03  0.39571515292E+03  0.00000000000E+00 0. -1.
          5    1    1    2  502    0 -0.20830796748E+02  0.44369893662E+02 -0.36475773678E+02  0.61279536732E+02  0.47000000000E+01 0.  1.
         -5    1    1    2    0  502 -0.57309910635E+02 -0.31698281205E+02 -0.28720636507E+03  0.29461634888E+03  0.47000000000E+01 0.  1.
        -11    1    1    2    0    0  0.56821120664E+02  0.14706783286E+02 -0.32112263411E+02  0.66903861544E+02  0.00000000000E+00 0. -1.
         11    1    1    2    0    0  0.21319586719E+02 -0.27378395744E+02  0.40484642522E+02  0.53320799052E+02  0.00000000000E+00 0.  1.
<mgrwt>
<rscale>  0 0.14039114E+03</rscale>
<asrwt>0</asrwt>
<pdfrwt beam="2">  1        2 0.60879254E-01 0.14795862E+03</pdfrwt>
<pdfrwt beam="1">  1       -2 0.12370061E-01 0.14795862E+03</pdfrwt>
<totfact> 0.36910949E+03</totfact>
</mgrwt>
</event>
<event>
 6    1  0.1190675E-005  0.1278989E+03  0.7546771E-02  0.1244951E+00
          4   -1    0    0  501    0  0.00000000000E+00  0.00000000000E+00  0.13522493046E+02  0.13522493046E+02  0.00000000000E+00 0. -1.
         -4   -1    0    0    0  501 -0.00000000000E+00 -0.00000000000E+00 -0.92310956467E+03  0.92310956467E+03  0.00000000000E+00 0.  1.
          5    1    1    2  502    0  0.23590432708E+02 -0.32461345367E+02 -0.36514582622E+03  0.36737421230E+03  0.47000000000E+01 0. -1.
         -5    1    1    2    0  502 -0.43330481364E+02  0.51010693249E+02 -0.16809908053E+03  0.18099450908E+03  0.47000000000E+01 0. -1.
        -11    1    1    2    0    0 -0.72656195417E+01 -0.50095578144E+02 -0.25603224661E+03  0.26098825161E+03  0.00000000000E+00 0.  1.
         11    1    1    2    0    0  0.27005668197E+02  0.31546230262E+02 -0.12030991827E+03  0.12727508473E+03  0.00000000000E+00 0. -1.
<mgrwt>
<rscale>  0 0.11888296E+03</rscale>
<asrwt>0</asrwt>
<pdfrwt beam="1">  1        4 0.20803824E-02 0.12789888E+03</pdfrwt>
<pdfrwt beam="2">  1       -4 0.14201693E+00 0.12789888E+03</pdfrwt>
<totfact> 0.57532881E+02</totfact>
</mgrwt>
</event>
<event>
 6    1  0.1190675E-005  0.1290633E+03  0.7546771E-02  0.1242683E+00
          1   -1    0    0  501    0  0.00000000000E+00  0.00000000000E+00  0.80398807819E+03  0.80398807819E+03  0.00000000000E+00 0. -1.
         -1   -1    0    0    0  501 -0.00000000000E+00 -0.00000000000E+00 -0.16159553652E+02  0.16159553652E+02  0.00000000000E+00 0.  1.
          5    1    1    2  502    0 -0.11328522933E+02 -0.45938500188E+02  0.23078570849E+03  0.23563279584E+03  0.47000000000E+01 0.  1.
         -5    1    1    2    0  502  0.17642766711E+02  0.77450318677E+02  0.26628595271E+03  0.27792106378E+03  0.47000000000E+01 0.  1.
        -11    1    1    2    0    0  0.26109210645E+02 -0.52492073855E+02  0.17244707176E+03  0.18214033397E+03  0.00000000000E+00 0.  1.
         11    1    1    2    0    0 -0.32423454423E+02  0.20980255366E+02  0.11830979157E+03  0.12445343826E+03  0.00000000000E+00 0. -1.
<mgrwt>
<rscale>  0 0.12025122E+03</rscale>
<asrwt>0</asrwt>
<pdfrwt beam="1">  1        1 0.12369044E+00 0.12906328E+03</pdfrwt>
<pdfrwt beam="2">  1       -1 0.24860858E-02 0.12906328E+03</pdfrwt>
<totfact> 0.10882349E+04</totfact>
</mgrwt>
</event>
<event>
 6    1  0.1190675E-005  0.1818363E+03  0.7546771E-02  0.1171517E+00
          1   -1    0    0  501    0  0.00000000000E+00  0.00000000000E+00  0.18501076759E+03  0.18501076759E+03  0.00000000000E+00 0. -1.
         -1   -1    0    0    0  501 -0.00000000000E+00 -0.00000000000E+00 -0.16070981860E+03  0.16070981860E+03  0.00000000000E+00 0.  1.
          5    1    1    2  502    0  0.43998656813E+02 -0.22444579888E+02 -0.46791016066E+02  0.68199194660E+02  0.47000000000E+01 0. -1.
         -5    1    1    2    0  502  0.60548044803E+02 -0.58236831842E+02  0.81066212166E+02  0.11683927023E+03  0.47000000000E+01 0. -1.
        -11    1    1    2    0    0 -0.40049276764E+02  0.85655912893E+02  0.34323947114E+01  0.94618504090E+02  0.00000000000E+00 0. -1.
         11    1    1    2    0    0 -0.64497424852E+02 -0.49745011626E+01 -0.13406641816E+02  0.66063617212E+02  0.00000000000E+00 0.  1.
<mgrwt>
<rscale>  0 0.17621496E+03</rscale>
<asrwt>0</asrwt>
<pdfrwt beam="1">  1        1 0.28463195E-01 0.18183631E+03</pdfrwt>
<pdfrwt beam="2">  1       -1 0.24724588E-01 0.18183631E+03</pdfrwt>
<totfact> 0.22611085E+03</totfact>
</mgrwt>
</event>
<event>
 6    1  0.1190675E-005  0.1954478E+03  0.7546771E-02  0.1164859E+00
         -1   -1    0    0    0  501 -0.00000000000E+00  0.00000000000E+00  0.12234754731E+03  0.12234754731E+03  0.00000000000E+00 0.  1.
          1   -1    0    0  501    0  0.00000000000E+00 -0.00000000000E+00 -0.62477535137E+03  0.62477535137E+03  0.00000000000E+00 0. -1.
          5    1    1    2  502    0  0.13237878245E+03  0.56531590355E+02 -0.46416501724E+03  0.48599507814E+03  0.47000000000E+01 0. -1.
         -5    1    1    2    0  502 -0.35219294074E+02  0.31128647368E+02 -0.90309608991E+02  0.10191813793E+03  0.47000000000E+01 0.  1.
        -11    1    1    2    0    0 -0.33832235951E+02  0.32640318784E+01 -0.53731047669E+01  0.34411398524E+02  0.00000000000E+00 0. -1.
         11    1    1    2    0    0 -0.63327252429E+02 -0.90924269601E+02  0.57419926935E+02  0.12479828409E+03  0.00000000000E+00 0.  1.
<mgrwt>
<rscale>  0 0.18307535E+03</rscale>
<asrwt>0</asrwt>
<pdfrwt beam="2">  1        1 0.96119285E-01 0.19544779E+03</pdfrwt>
<pdfrwt beam="1">  1       -1 0.18822699E-01 0.19544779E+03</pdfrwt>
<totfact> 0.74377398E+02</totfact>
</mgrwt>
</event>
<event>
 6    1  0.1190675E-005  0.1403317E+03  0.7546771E-02  0.1223268E+00
         -2   -1    0    0    0  501 -0.00000000000E+00  0.00000000000E+00  0.20516467020E+03  0.20516467020E+03  0.00000000000E+00 0.  1.
          2   -1    0    0  501    0  0.00000000000E+00 -0.00000000000E+00 -0.81265413267E+02  0.81265413267E+02  0.00000000000E+00 0. -1.
          5    1    1    2  502    0 -0.93452008237E+01 -0.40472331442E+02  0.21709735301E+01  0.41858637303E+02  0.47000000000E+01 0.  1.
         -5    1    1    2    0  502 -0.26769882180E+02  0.93042865543E+02  0.37951273642E+02  0.10409606425E+03  0.47000000000E+01 0.  1.
        -11    1    1    2    0    0 -0.41844202377E+01 -0.27144432602E+02 -0.14644789533E+02  0.31125543441E+02  0.00000000000E+00 0. -1.
         11    1    1    2    0    0  0.40299503241E+02 -0.25426101498E+02  0.98421799292E+02  0.10934983848E+03  0.00000000000E+00 0.  1.
<mgrwt>
<rscale>  0 0.13286337E+03</rscale>
<asrwt>0</asrwt>
<pdfrwt beam="2">  1        2 0.12502371E-01 0.14033168E+03</pdfrwt>
<pdfrwt beam="1">  1       -2 0.31563795E-01 0.14033168E+03</pdfrwt>
<totfact> 0.43287955E+03</totfact>
</mgrwt>
</event>
<event>
 6    1  0.1190675E-005  0.3138058E+03  0.7546771E-02  0.1078536E+00
         -1   -1    0    0    0  501 -0.00000000000E+00  0.00000000000E+00  0.50086682912E+03  0.50086682912E+03  0.00000000000E+00 0.  1.
          1   -1    0    0  501    0  0.00000000000E+00 -0.00000000000E+00 -0.49151831011E+02  0.49151831011E+02  0.00000000000E+00 0. -1.
          5    1    1    2  502    0  0.84199189869E+01  0.31345321128E+02  0.16359383380E+03  0.16684860398E+03  0.47000000000E+01 0. -1.
         -5    1    1    2    0  502  0.65549376250E+02  0.47539427491E+02  0.27098969307E+02  0.85517027722E+02  0.47000000000E+01 0. -1.
        -11    1    1    2    0    0 -0.15097102487E+02 -0.77799663105E+02  0.18676287937E+03  0.20288194398E+03  0.00000000000E+00 0.  1.
         11    1    1    2    0    0 -0.58872192749E+02 -0.10850855141E+01  0.74259315635E+02  0.94771084452E+02  0.00000000000E+00 0. -1.
<mgrwt>
<rscale>  0 0.31380581E+03</rscale>
<asrwt>0</asrwt>
<pdfrwt beam="2">  1        1 0.75618205E-02 0.31380581E+03</pdfrwt>
<pdfrwt beam="1">  1       -1 0.77056432E-01 0.31380581E+03</pdfrwt>
<totfact> 0.16589745E+03</totfact>
</mgrwt>
</event>
<event>
 6    1  0.1190675E-005  0.3009303E+03  0.7546771E-02  0.1086344E+00
         -2   -1    0    0    0  501 -0.00000000000E+00  0.00000000000E+00  0.68888757748E+02  0.68888757748E+02  0.00000000000E+00 0.  1.
          2   -1    0    0  501    0  0.00000000000E+00 -0.00000000000E+00 -0.16372366439E+04  0.16372366439E+04  0.00000000000E+00 0. -1.
          5    1    1    2  502    0  0.36336166548E+02 -0.20925872472E+03 -0.68395576623E+03  0.71618929832E+03  0.47000000000E+01 0.  1.
         -5    1    1    2    0  502  0.48723580605E+02 -0.50905942729E+02 -0.52153964768E+03  0.52629943608E+03  0.47000000000E+01 0.  1.
        -11    1    1    2    0    0  0.15683836709E+02  0.46325603393E+02 -0.91597971052E+02  0.10383752965E+03  0.00000000000E+00 0. -1.
         11    1    1    2    0    0 -0.10074358386E+03  0.21383906406E+03 -0.27125450122E+03  0.35979913763E+03  0.00000000000E+00 0.  1.
<mgrwt>
<rscale>  0 0.29780238E+03</rscale>
<asrwt>0</asrwt>
<pdfrwt beam="2">  1        2 0.25188253E+00 0.30093033E+03</pdfrwt>
<pdfrwt beam="1">  1       -2 0.10598272E-01 0.30093033E+03</pdfrwt>
<totfact> 0.69620037E+02</totfact>
</mgrwt>
</event>
<event>
 6    1  0.1190675E-005  0.1304320E+03  0.7546771E-02  0.1238029E+00
         -1   -1    0    0    0  501 -0.00000000000E+00  0.00000000000E+00  0.70270631387E+02  0.70270631387E+02  0.00000000000E+00 0.  1.
          1   -1    0    0  501    0  0.00000000000E+00 -0.00000000000E+00 -0.28738431524E+03  0.28738431524E+03  0.00000000000E+00 0. -1.
          5    1    1    2  502    0 -0.34681176132E+01  0.59164256552E+02 -0.19695882633E+03  0.20573601134E+03  0.47000000000E+01 0. -1.
         -5    1    1    2    0  502  0.36175806374E+02 -0.23700496305E+02 -0.21088065823E+02  0.48344586172E+02  0.47000000000E+01 0.  1.
        -11    1    1    2    0    0  0.31741488656E+02 -0.12462420868E+02  0.72172435194E+01  0.34855740417E+02  0.00000000000E+00 0.  1.
         11    1    1    2    0    0 -0.64449177417E+02 -0.23001339379E+02 -0.62840352194E+01  0.68718608699E+02  0.00000000000E+00 0. -1.
<mgrwt>
<rscale>  0 0.12312514E+03</rscale>
<asrwt>0</asrwt>
<pdfrwt beam="2">  1        1 0.44212972E-01 0.13043199E+03</pdfrwt>
<pdfrwt beam="1">  1       -1 0.10810866E-01 0.13043199E+03</pdfrwt>
<totfact> 0.47806754E+03</totfact>
</mgrwt>
</event>
<event>
 6    1  0.1190675E-005  0.1311190E+03  0.7546771E-02  0.1239343E+00
         -1   -1    0    0    0  501 -0.00000000000E+00  0.00000000000E+00  0.52493228170E+03  0.52493228170E+03  0.00000000000E+00 0.  1.
          1   -1    0    0  501    0  0.00000000000E+00 -0.00000000000E+00 -0.25601690895E+02  0.25601690895E+02  0.00000000000E+00 0. -1.
          5    1    1    2  502    0  0.44253925761E+02  0.47949320303E+02  0.66428437419E+02  0.93232904925E+02  0.47000000000E+01 0.  1.
         -5    1    1    2    0  502 -0.43077782935E+02 -0.83879614965E+01  0.18661759411E+03  0.19176618501E+03  0.47000000000E+01 0.  1.
        -11    1    1    2    0    0 -0.20604725346E+01 -0.50295047838E+02  0.24931560626E+03  0.25434643482E+03  0.00000000000E+00 0.  1.
         11    1    1    2    0    0  0.88432970845E+00  0.10733689031E+02 -0.30310469811E+01  0.11188447839E+02  0.00000000000E+00 0. -1.
<mgrwt>
<rscale>  0 0.12230481E+03</rscale>
<asrwt>0</asrwt>
<pdfrwt beam="2">  1        1 0.39387221E-02 0.13111898E+03</pdfrwt>
<pdfrwt beam="1">  1       -1 0.80758805E-01 0.13111898E+03</pdfrwt>
<totfact> 0.35623595E+03</totfact>
</mgrwt>
</event>
<event>
 6    1  0.1190675E-005  0.3858199E+03  0.7546771E-02  0.1049704E+00
          2   -1    0    0  501    0  0.00000000000E+00  0.00000000000E+00  0.23870451127E+04  0.23870451127E+04  0.00000000000E+00 0. -1.
         -2   -1    0    0    0  501 -0.00000000000E+00 -0.00000000000E+00 -0.72591911394E+02  0.72591911394E+02  0.00000000000E+00 0.  1.
          5    1    1    2  502    0 -0.23372385113E+03  0.21108022726E+03  0.11734948102E+04  0.12150283373E+04  0.47000000000E+01 0. -1.
         -5    1    1    2    0  502 -0.38690252562E+02  0.31866559658E+02  0.49209758233E+03  0.49466608313E+03  0.47000000000E+01 0. -1.
        -11    1    1    2    0    0  0.20748449176E+03 -0.14977228486E+03  0.50964905530E+03  0.57028388650E+03  0.00000000000E+00 0.  1.
         11    1    1    2    0    0  0.64929611934E+02 -0.93174502061E+02  0.13921175351E+03  0.17965871717E+03  0.00000000000E+00 0. -1.
<mgrwt>
<rscale>  0 0.38334709E+03</rscale>
<asrwt>0</asrwt>
<pdfrwt beam="1">  1        2 0.36723765E+00 0.38581990E+03</pdfrwt>
<pdfrwt beam="2">  1       -2 0.11167988E-01 0.38581990E+03</pdfrwt>
<totfact> 0.25113899E+02</totfact>
</mgrwt>
</event>
<event>
 6    1  0.1190675E-005  0.2106742E+03  0.7546771E-02  0.1145354E+00
          2   -1    0    0  501    0  0.00000000000E+00  0.00000000000E+00  0.36973699173E+03  0.36973699173E+03  0.00000000000E+00 0. -1.
         -2   -1    0    0    0  501 -0.00000000000E+00 -0.00000000000E+00 -0.10923428901E+03  0.10923428901E+03  0.00000000000E+00 0.  1.
          5    1    1    2  502    0 -0.29218418094E+02 -0.87287031029E+02  0.55776821439E+01  0.92336029154E+02  0.47000000000E+01 0. -1.
         -5    1    1    2    0  502 -0.39535630716E+02 -0.67738612286E+02  0.15076927313E+03  0.17001485056E+03  0.47000000000E+01 0. -1.
        -11    1    1    2    0    0  0.71255834313E+02  0.14033929806E+03  0.11766184842E+03  0.19651163598E+03  0.00000000000E+00 0. -1.
         11    1    1    2    0    0 -0.25017855024E+01  0.14686345257E+02 -0.13506100982E+02  0.20108765040E+02  0.00000000000E+00 0.  1.
<mgrwt>
<rscale>  0 0.20528668E+03</rscale>
<asrwt>0</asrwt>
<pdfrwt beam="1">  1        2 0.56882614E-01 0.21067419E+03</pdfrwt>
<pdfrwt beam="2">  1       -2 0.16805275E-01 0.21067419E+03</pdfrwt>
<totfact> 0.24366404E+03</totfact>
</mgrwt>
</event>
<event>
 6    1  0.1190675E-005  0.7954567E+03  0.7546771E-02  0.9566617E-01
          2   -1    0    0  501    0  0.00000000000E+00  0.00000000000E+00  0.56253531737E+03  0.56253531737E+03  0.00000000000E+00 0. -1.
         -2   -1    0    0    0  501 -0.00000000000E+00 -0.00000000000E+00 -0.28120518160E+03  0.28120518160E+03  0.00000000000E+00 0.  1.
          5    1    1    2  502    0 -0.47190540363E+02  0.88951160149E+02  0.14504572138E+03  0.17663410566E+03  0.47000000000E+01 0. -1.
         -5    1    1    2    0  502 -0.60593671908E+01 -0.34160585184E+02  0.15677312596E+03  0.16063487957E+03  0.47000000000E+01 0.  1.
        -11    1    1    2    0    0 -0.64774745441E+02 -0.14568293712E+03 -0.21110777010E+03  0.26454824969E+03  0.00000000000E+00 0.  1.
         11    1    1    2    0    0  0.11802465299E+03  0.90892362157E+02  0.19061905854E+03  0.24192326406E+03  0.00000000000E+00 0. -1.
<mgrwt>
<rscale>  0 0.79545671E+03</rscale>
<asrwt>0</asrwt>
<pdfrwt beam="1">  1        2 0.86543895E-01 0.79545671E+03</pdfrwt>
<pdfrwt beam="2">  1       -2 0.43262336E-01 0.79545671E+03</pdfrwt>
<totfact> 0.27328021E+02</totfact>
</mgrwt>
</event>
<event>
 6    1  0.1190675E-005  0.1586892E+03  0.7546771E-02  0.1196742E+00
          2   -1    0    0  501    0  0.00000000000E+00  0.00000000000E+00  0.68829446348E+03  0.68829446348E+03  0.00000000000E+00 0. -1.
         -2   -1    0    0    0  501 -0.00000000000E+00 -0.00000000000E+00 -0.31875880759E+02  0.31875880759E+02  0.00000000000E+00 0.  1.
          5    1    1    2  502    0  0.18970758719E+02 -0.25629401414E+02  0.59538594194E+02  0.67702954897E+02  0.47000000000E+01 0. -1.
         -5    1    1    2    0  502  0.41448082137E+00  0.12600888787E+03  0.28080602848E+03  0.30781898454E+03  0.47000000000E+01 0.  1.
        -11    1    1    2    0    0  0.18407224297E+02  0.57244944203E+01  0.19559719700E+02  0.27462308305E+02  0.00000000000E+00 0. -1.
         11    1    1    2    0    0 -0.37792463837E+02 -0.10610398087E+03  0.29651424035E+03  0.31718609649E+03  0.00000000000E+00 0.  1.
<mgrwt>
<rscale>  0 0.15307707E+03</rscale>
<asrwt>0</asrwt>
<pdfrwt beam="1">  1        2 0.10589145E+00 0.15868921E+03</pdfrwt>
<pdfrwt beam="2">  1       -2 0.49039822E-02 0.15868921E+03</pdfrwt>
<totfact> 0.83684604E+03</totfact>
</mgrwt>
</event>
<event>
 6    1  0.1190675E-005  0.2001231E+03  0.7546771E-02  0.1154189E+00
          2   -1    0    0  501    0  0.00000000000E+00  0.00000000000E+00  0.49939476390E+02  0.49939476390E+02  0.00000000000E+00 0. -1.
         -2   -1    0    0    0  501 -0.00000000000E+00 -0.00000000000E+00 -0.80596872489E+03  0.80596872489E+03  0.00000000000E+00 0.  1.
          5    1    1    2  502    0  0.61269876204E+02 -0.28726745226E+02 -0.64774420277E+02  0.93792532451E+02  0.47000000000E+01 0.  1.
         -5    1    1    2    0  502  0.74578652400E+02  0.10597790395E+03 -0.19371110058E+03  0.23310806937E+03  0.47000000000E+01 0.  1.
        -11    1    1    2    0    0 -0.13303050208E+03 -0.40989237368E+02 -0.34149832814E+03  0.36877952788E+03  0.00000000000E+00 0.  1.
         11    1    1    2    0    0 -0.28180265214E+01 -0.36261921353E+02 -0.15604539951E+03  0.16022807158E+03  0.00000000000E+00 0. -1.
<mgrwt>
<rscale>  0 0.19481480E+03</rscale>
<asrwt>0</asrwt>
<pdfrwt beam="1">  1        2 0.76829969E-02 0.20012306E+03</pdfrwt>
<pdfrwt beam="2">  1       -2 0.12399518E+00 0.20012306E+03</pdfrwt>
<totfact> 0.45633295E+02</totfact>
</mgrwt>
</event>
<event>
 6    1  0.1190675E-005  0.1928530E+03  0.7546771E-02  0.1160507E+00
          2   -1    0    0  501    0  0.00000000000E+00  0.00000000000E+00  0.32015649611E+04  0.32015649611E+04  0.00000000000E+00 0. -1.
         -2   -1    0    0    0  501 -0.00000000000E+00 -0.00000000000E+00 -0.44093569451E+02  0.44093569451E+02  0.00000000000E+00 0.  1.
          5    1    1    2  502    0  0.26932019155E+02 -0.97869690821E+02  0.94059189379E+03  0.94606501399E+03  0.47000000000E+01 0. -1.
         -5    1    1    2    0  502 -0.21036403528E+02 -0.48869649056E+02  0.20749592395E+04  0.20756465760E+04  0.47000000000E+01 0. -1.
        -11    1    1    2    0    0 -0.27366180072E+02  0.14039763161E+03  0.94300495057E+02  0.17132713195E+03  0.00000000000E+00 0.  1.
         11    1    1    2    0    0  0.21470564446E+02  0.63417082653E+01  0.47619763304E+02  0.52619808613E+02  0.00000000000E+00 0. -1.
<mgrwt>
<rscale>  0 0.18774989E+03</rscale>
<asrwt>0</asrwt>
<pdfrwt beam="1">  1        2 0.49254827E+00 0.19285304E+03</pdfrwt>
<pdfrwt beam="2">  1       -2 0.67836286E-02 0.19285304E+03</pdfrwt>
<totfact> 0.19868549E+02</totfact>
</mgrwt>
</event>
<event>
 6    1  0.1190675E-005  0.1410228E+03  0.7546771E-02  0.1223351E+00
          2   -1    0    0  501    0  0.00000000000E+00  0.00000000000E+00  0.73642103712E+03  0.73642103712E+03  0.00000000000E+00 0. -1.
         -2   -1    0    0    0  501 -0.00000000000E+00 -0.00000000000E+00 -0.23268012755E+02  0.23268012755E+02  0.00000000000E+00 0.  1.
          5    1    1    2  502    0 -0.16833722357E+02  0.73426732404E+02  0.49524898638E+03  0.50096757155E+03  0.47000000000E+01 0.  1.
         -5    1    1    2    0  502  0.13974468772E+02 -0.82153125291E+01  0.33710833960E+01  0.17211372423E+02  0.47000000000E+01 0.  1.
        -11    1    1    2    0    0  0.15996649045E+02 -0.79842401504E+02  0.20297875425E+03  0.21870316993E+03  0.00000000000E+00 0. -1.
         11    1    1    2    0    0 -0.13137395461E+02  0.14630981629E+02  0.11554200338E+02  0.22806935971E+02  0.00000000000E+00 0.  1.
<mgrwt>
<rscale>  0 0.13280590E+03</rscale>
<asrwt>0</asrwt>
<pdfrwt beam="1">  1        2 0.11329553E+00 0.14102285E+03</pdfrwt>
<pdfrwt beam="2">  1       -2 0.35796948E-02 0.14102285E+03</pdfrwt>
<totfact> 0.12257791E+04</totfact>
</mgrwt>
</event>
<event>
 6    1  0.1190675E-005  0.2178237E+03  0.7546771E-02  0.1143485E+00
         -2   -1    0    0    0  501 -0.00000000000E+00  0.00000000000E+00  0.29721909418E+03  0.29721909418E+03  0.00000000000E+00 0.  1.
          2   -1    0    0  501    0  0.00000000000E+00 -0.00000000000E+00 -0.13542704359E+03  0.13542704359E+03  0.00000000000E+00 0. -1.
          5    1    1    2  502    0 -0.58393703242E+02 -0.60636622837E+02 -0.10012046995E+01  0.84319137912E+02  0.47000000000E+01 0. -1.
         -5    1    1    2    0  502  0.60286793105E+02 -0.94350906171E+02  0.11880425054E+03  0.16331910747E+03  0.47000000000E+01 0.  1.
        -11    1    1    2    0    0 -0.34388838700E+02  0.10609984412E+03  0.56437773424E+02  0.12499996568E+03  0.00000000000E+00 0.  1.
         11    1    1    2    0    0  0.32495748836E+02  0.48887684884E+02 -0.12448768677E+02  0.60007926705E+02  0.00000000000E+00 0. -1.
<mgrwt>
<rscale>  0 0.20759512E+03</rscale>
<asrwt>0</asrwt>
<pdfrwt beam="2">  1        2 0.20834930E-01 0.21782365E+03</pdfrwt>
<pdfrwt beam="1">  1       -2 0.45726014E-01 0.21782365E+03</pdfrwt>
<totfact> 0.12084211E+03</totfact>
</mgrwt>
</event>
<event>
 6    1  0.1723250E-005  0.2007790E+03  0.7546771E-02  0.1153301E+00
         -1   -1    0    0    0  501 -0.00000000000E+00  0.00000000000E+00  0.12267073837E+03  0.12267073837E+03  0.00000000000E+00 0.  1.
          1   -1    0    0  501    0  0.00000000000E+00 -0.00000000000E+00 -0.30076231089E+03  0.30076231089E+03  0.00000000000E+00 0. -1.
          5    1    1    2  502    0  0.84717795838E+02  0.10959923259E+02 -0.29363916929E+02  0.90451945623E+02  0.47000000000E+01 0.  1.
         -5    1    1    2    0  502  0.14094929396E+02  0.11120252208E+03 -0.83699395169E+02  0.13997266413E+03  0.47000000000E+01 0.  1.
        -11    1    1    2    0    0 -0.79661391191E+02 -0.27887710119E+02 -0.41100050174E+02  0.93876918071E+02  0.00000000000E+00 0.  1.
         11    1    1    2    0    0 -0.19151334043E+02 -0.94274735225E+02 -0.23928210246E+02  0.99131521440E+02  0.00000000000E+00 0. -1.
<mgrwt>
<rscale>  0 0.19583561E+03</rscale>
<asrwt>0</asrwt>
<pdfrwt beam="2">  1        1 0.46271125E-01 0.20077895E+03</pdfrwt>
<pdfrwt beam="1">  1       -1 0.18872421E-01 0.20077895E+03</pdfrwt>
<totfact> 0.19183448E+03</totfact>
</mgrwt>
</event>
<event>
 6    1  0.1190675E-005  0.1255441E+03  0.7546771E-02  0.1249561E+00
          2   -1    0    0  501    0  0.00000000000E+00  0.00000000000E+00  0.48934629508E+02  0.48934629508E+02  0.00000000000E+00 0. -1.
         -2   -1    0    0    0  501 -0.00000000000E+00 -0.00000000000E+00 -0.26160426671E+03  0.26160426671E+03  0.00000000000E+00 0.  1.
          5    1    1    2  502    0 -0.26372049903E+02 -0.35706146110E+02 -0.80835925595E+02  0.92341489879E+02  0.47000000000E+01 0.  1.
         -5    1    1    2    0  502  0.31204640134E+02  0.46396291329E+02  0.15685707456E+01  0.56132840914E+02  0.47000000000E+01 0.  1.
        -11    1    1    2    0    0  0.14195031494E+02 -0.26917538586E+02 -0.13363483864E+03  0.13705591159E+03  0.00000000000E+00 0.  1.
         11    1    1    2    0    0 -0.19027621724E+02  0.16227393367E+02  0.23255629529E+00  0.25008653830E+02  0.00000000000E+00 0. -1.
<mgrwt>
<rscale>  0 0.11616481E+03</rscale>
<asrwt>0</asrwt>
<pdfrwt beam="1">  1        2 0.75284046E-02 0.12554407E+03</pdfrwt>
<pdfrwt beam="2">  1       -2 0.40246810E-01 0.12554407E+03</pdfrwt>
<totfact> 0.51093607E+03</totfact>
</mgrwt>
</event>
<event>
 6    1  0.1190675E-005  0.1555154E+03  0.7546771E-02  0.1203560E+00
         -2   -1    0    0    0  501 -0.00000000000E+00  0.00000000000E+00  0.54690144488E+02  0.54690144488E+02  0.00000000000E+00 0.  1.
          2   -1    0    0  501    0  0.00000000000E+00 -0.00000000000E+00 -0.39493943008E+03  0.39493943008E+03  0.00000000000E+00 0. -1.
          5    1    1    2  502    0  0.11055876879E+03  0.11928043449E+02 -0.10685904706E+03  0.15429343964E+03  0.47000000000E+01 0. -1.
         -5    1    1    2    0  502 -0.27727927390E+02  0.29314674973E+02 -0.15096447324E+02  0.43337983893E+02  0.47000000000E+01 0. -1.
        -11    1    1    2    0    0 -0.42349519195E+01 -0.42003496811E+02 -0.44946308100E+02  0.61663596830E+02  0.00000000000E+00 0.  1.
         11    1    1    2    0    0 -0.78595889478E+02  0.76077838883E+00 -0.17334748311E+03  0.19033455421E+03  0.00000000000E+00 0. -1.
<mgrwt>
<rscale>  0 0.14751519E+03</rscale>
<asrwt>0</asrwt>
<pdfrwt beam="2">  1        2 0.60759911E-01 0.15551539E+03</pdfrwt>
<pdfrwt beam="1">  1       -2 0.84138685E-02 0.15551539E+03</pdfrwt>
<totfact> 0.68146468E+03</totfact>
</mgrwt>
</event>
<event>
 6    1  0.1190675E-005  0.1533998E+03  0.7546771E-02  0.1205064E+00
         -2   -1    0    0    0  501 -0.00000000000E+00  0.00000000000E+00  0.38432465376E+02  0.38432465376E+02  0.00000000000E+00 0.  1.
          2   -1    0    0  501    0  0.00000000000E+00 -0.00000000000E+00 -0.52772298806E+03  0.52772298806E+03  0.00000000000E+00 0. -1.
          5    1    1    2  502    0  0.29352504441E+02  0.10137603956E+03 -0.26055021148E+03  0.28115329202E+03  0.47000000000E+01 0.  1.
         -5    1    1    2    0  502 -0.40657509620E+02 -0.13170454725E+02 -0.55946110706E+02  0.70558849688E+02  0.47000000000E+01 0.  1.
        -11    1    1    2    0    0  0.19138449901E+02 -0.76355941439E+02 -0.18146370127E+03  0.19780188305E+03  0.00000000000E+00 0. -1.
         11    1    1    2    0    0 -0.78334447219E+01 -0.11849643397E+02  0.86695007713E+01  0.16641428679E+02  0.00000000000E+00 0.  1.
<mgrwt>
<rscale>  0 0.14632434E+03</rscale>
<asrwt>0</asrwt>
<pdfrwt beam="2">  1        2 0.81188151E-01 0.15339983E+03</pdfrwt>
<pdfrwt beam="1">  1       -2 0.59126870E-02 0.15339983E+03</pdfrwt>
<totfact> 0.85360454E+03</totfact>
</mgrwt>
</event>
<event>
 6    1  0.1190675E-005  0.1319814E+03  0.7546771E-02  0.1259475E+00
          2   -1    0    0  501    0  0.00000000000E+00  0.00000000000E+00  0.10227620797E+04  0.10227620797E+04  0.00000000000E+00 0. -1.
         -2   -1    0    0    0  501 -0.00000000000E+00 -0.00000000000E+00 -0.14203306564E+02  0.14203306564E+02  0.00000000000E+00 0.  1.
          5    1    1    2  502    0  0.49210625914E+02 -0.50343139109E+02  0.82155849183E+03  0.82458265981E+03  0.47000000000E+01 0. -1.
         -5    1    1    2    0  502 -0.28958778545E+01  0.33349035766E+02  0.84050812819E+02  0.90593451367E+02  0.47000000000E+01 0.  1.
        -11    1    1    2    0    0 -0.35015530676E+02  0.30177403178E+02  0.85366290629E+02  0.97078147009E+02  0.00000000000E+00 0. -1.
         11    1    1    2    0    0 -0.11299217383E+02 -0.13183299835E+02  0.17583177906E+02  0.24711128126E+02  0.00000000000E+00 0.  1.
<mgrwt>
<rscale>  0 0.11059334E+03</rscale>
<asrwt>0</asrwt>
<pdfrwt beam="1">  1        2 0.15734795E+00 0.13198144E+03</pdfrwt>
<pdfrwt beam="2">  1       -2 0.21851249E-02 0.13198144E+03</pdfrwt>
<totfact> 0.16475165E+04</totfact>
</mgrwt>
</event>
<event>
 6    1  0.1190675E-005  0.1337390E+03  0.7546771E-02  0.1235151E+00
          2   -1    0    0  501    0  0.00000000000E+00  0.00000000000E+00  0.10888721569E+03  0.10888721569E+03  0.00000000000E+00 0. -1.
         -2   -1    0    0    0  501 -0.00000000000E+00 -0.00000000000E+00 -0.13557293113E+03  0.13557293113E+03  0.00000000000E+00 0.  1.
          5    1    1    2  502    0  0.31414588121E+02 -0.15007219292E+02  0.43071886584E+02  0.55582104959E+02  0.47000000000E+01 0. -1.
         -5    1    1    2    0  502 -0.73046120382E+02 -0.79411518944E+01 -0.28496151490E+02  0.78948833088E+02  0.47000000000E+01 0. -1.
        -11    1    1    2    0    0  0.21441044751E+02 -0.82052394905E+01 -0.62900346718E+02  0.66958927503E+02  0.00000000000E+00 0.  1.
         11    1    1    2    0    0  0.20190487509E+02  0.31153610677E+02  0.21638896192E+02  0.42970281271E+02  0.00000000000E+00 0. -1.
<mgrwt>
<rscale>  0 0.12494771E+03</rscale>
<asrwt>0</asrwt>
<pdfrwt beam="1">  1        2 0.16751879E-01 0.13373900E+03</pdfrwt>
<pdfrwt beam="2">  1       -2 0.20857374E-01 0.13373900E+03</pdfrwt>
<totfact> 0.63291367E+03</totfact>
</mgrwt>
</event>
<event>
 6    1  0.1190675E-005  0.1255275E+03  0.7546771E-02  0.1248863E+00
         -2   -1    0    0    0  501 -0.00000000000E+00  0.00000000000E+00  0.51416301836E+02  0.51416301836E+02  0.00000000000E+00 0.  1.
          2   -1    0    0  501    0  0.00000000000E+00 -0.00000000000E+00 -0.27161917610E+03  0.27161917610E+03  0.00000000000E+00 0. -1.
          5    1    1    2  502    0  0.53879831340E+02  0.19027708598E+02 -0.71612191381E+02  0.91735957368E+02  0.47000000000E+01 0. -1.
         -5    1    1    2    0  502 -0.65109820522E+02 -0.16331794495E+02 -0.11274005992E+03  0.13129519165E+03  0.47000000000E+01 0. -1.
        -11    1    1    2    0    0  0.47502354659E+02  0.90230096390E+01 -0.38480678991E+02  0.61795234903E+02  0.00000000000E+00 0. -1.
         11    1    1    2    0    0 -0.36272365477E+02 -0.11718923742E+02  0.26300560254E+01  0.38209094018E+02  0.00000000000E+00 0.  1.
<mgrwt>
<rscale>  0 0.11657118E+03</rscale>
<asrwt>0</asrwt>
<pdfrwt beam="2">  1        2 0.41787566E-01 0.12552745E+03</pdfrwt>
<pdfrwt beam="1">  1       -2 0.79102003E-02 0.12552745E+03</pdfrwt>
<totfact> 0.10995586E+04</totfact>
</mgrwt>
</event>
<event>
 6    1  0.1190675E-005  0.2542160E+03  0.7546771E-02  0.1110669E+00
          1   -1    0    0  501    0  0.00000000000E+00  0.00000000000E+00  0.45310246639E+03  0.45310246639E+03  0.00000000000E+00 0. -1.
         -1   -1    0    0    0  501 -0.00000000000E+00 -0.00000000000E+00 -0.35657372223E+02  0.35657372223E+02  0.00000000000E+00 0.  1.
          5    1    1    2  502    0  0.20444980278E+02 -0.15176000896E+02  0.15683882220E+03  0.15896167580E+03  0.47000000000E+01 0. -1.
         -5    1    1    2    0  502  0.76549114443E+01  0.72273885954E+02  0.41056501070E+02  0.83605254262E+02  0.47000000000E+01 0. -1.
        -11    1    1    2    0    0 -0.45605566622E+02 -0.75218553450E+01  0.47450997750E+02  0.66242306740E+02  0.00000000000E+00 0.  1.
         11    1    1    2    0    0  0.17505674899E+02 -0.49576029713E+02  0.17209877314E+03  0.17995060181E+03  0.00000000000E+00 0. -1.
<mgrwt>
<rscale>  0 0.25421600E+03</rscale>
<asrwt>0</asrwt>
<pdfrwt beam="1">  1        1 0.69708068E-01 0.25421600E+03</pdfrwt>
<pdfrwt beam="2">  1       -1 0.54857499E-02 0.25421600E+03</pdfrwt>
<totfact> 0.78028298E+03</totfact>
</mgrwt>
</event>
<event>
 6    1  0.1190675E-005  0.1420432E+03  0.7546771E-02  0.1221321E+00
          2   -1    0    0  501    0  0.00000000000E+00  0.00000000000E+00  0.89504333870E+02  0.89504333870E+02  0.00000000000E+00 0.  1.
         -2   -1    0    0    0  501 -0.00000000000E+00 -0.00000000000E+00 -0.19394459231E+03  0.19394459231E+03  0.00000000000E+00 0. -1.
          5    1    1    2  502    0 -0.61150530778E+02 -0.10503094262E+02  0.36058176311E+02  0.71916510500E+02  0.47000000000E+01 0.  1.
         -5    1    1    2    0  502  0.14627632922E+02 -0.38350674979E+02 -0.58910417837E+02  0.71953243470E+02  0.47000000000E+01 0.  1.
        -11    1    1    2    0    0  0.19541160901E+01  0.45836942804E+02  0.77160912043E+00  0.45885065936E+02  0.00000000000E+00 0. -1.
         11    1    1    2    0    0  0.44568781767E+02  0.30168264371E+01 -0.82359626035E+02  0.93694106274E+02  0.00000000000E+00 0.  1.
<mgrwt>
<rscale>  0 0.13422262E+03</rscale>
<asrwt>0</asrwt>
<pdfrwt beam="1">  1        2 0.13769898E-01 0.14204324E+03</pdfrwt>
<pdfrwt beam="2">  1       -2 0.29837629E-01 0.14204324E+03</pdfrwt>
<totfact> 0.42744567E+03</totfact>
</mgrwt>
</event>
<event>
 6    1  0.1190675E-005  0.1540119E+03  0.7546771E-02  0.1204088E+00
          2   -1    0    0  501    0  0.00000000000E+00  0.00000000000E+00  0.73802273599E+02  0.73802273599E+02  0.00000000000E+00 0. -1.
         -2   -1    0    0    0  501 -0.00000000000E+00 -0.00000000000E+00 -0.26971737355E+03  0.26971737355E+03  0.00000000000E+00 0.  1.
          5    1    1    2  502    0 -0.79492726188E+02  0.50185948580E+02 -0.23035271569E+02  0.96904265581E+02  0.47000000000E+01 0. -1.
         -5    1    1    2    0  502  0.26702008690E+02  0.22672981003E+02 -0.82627542664E+02  0.89869138987E+02  0.47000000000E+01 0. -1.
        -11    1    1    2    0    0  0.34012447519E+02 -0.46968352831E+02  0.30939061308E+01  0.58072756169E+02  0.00000000000E+00 0. -1.
         11    1    1    2    0    0  0.18778269979E+02 -0.25890576751E+02 -0.93346191845E+02  0.98673486408E+02  0.00000000000E+00 0.  1.
<mgrwt>
<rscale>  0 0.14709582E+03</rscale>
<asrwt>0</asrwt>
<pdfrwt beam="1">  1        2 0.11354196E-01 0.15401193E+03</pdfrwt>
<pdfrwt beam="2">  1       -2 0.41494980E-01 0.15401193E+03</pdfrwt>
<totfact> 0.29383739E+03</totfact>
</mgrwt>
</event>
<event>
 6    1  0.1190675E-005  0.2109008E+03  0.7546771E-02  0.1144624E+00
          2   -1    0    0  501    0  0.00000000000E+00  0.00000000000E+00  0.68168327597E+03  0.68168327597E+03  0.00000000000E+00 0. -1.
         -2   -1    0    0    0  501 -0.00000000000E+00 -0.00000000000E+00 -0.97390720839E+02  0.97390720839E+02  0.00000000000E+00 0.  1.
          5    1    1    2  502    0 -0.38759580460E+02  0.14415621518E+03  0.40351793567E+03  0.43026983842E+03  0.47000000000E+01 0.  1.
         -5    1    1    2    0  502  0.55495275441E+02  0.24887746534E+02  0.13881763812E+03  0.15162965468E+03  0.47000000000E+01 0.  1.
        -11    1    1    2    0    0  0.65973480758E+01 -0.17967828720E+02  0.39944736795E+02  0.44293903284E+02  0.00000000000E+00 0. -1.
         11    1    1    2    0    0 -0.23333043057E+02 -0.15107613299E+03  0.20122445457E+01  0.15288060042E+03  0.00000000000E+00 0.  1.
<mgrwt>
<rscale>  0 0.20618442E+03</rscale>
<asrwt>0</asrwt>
<pdfrwt beam="1">  1        2 0.10487435E+00 0.21090080E+03</pdfrwt>
<pdfrwt beam="2">  1       -2 0.14983188E-01 0.21090080E+03</pdfrwt>
<totfact> 0.14825413E+03</totfact>
</mgrwt>
</event>
<event>
 6    1  0.1190675E-005  0.1785486E+03  0.7546771E-02  0.1174409E+00
         -2   -1    0    0    0  501 -0.00000000000E+00  0.00000000000E+00  0.68274098551E+02  0.68274098551E+02  0.00000000000E+00 0.  1.
          2   -1    0    0  501    0  0.00000000000E+00 -0.00000000000E+00 -0.52449162012E+03  0.52449162012E+03  0.00000000000E+00 0. -1.
          5    1    1    2  502    0 -0.49266455898E+02  0.56871084348E+02 -0.33844995887E+03  0.34674481766E+03  0.47000000000E+01 0. -1.
         -5    1    1    2    0  502 -0.94500856435E+01  0.56298210656E+02 -0.34824308063E+02  0.67034432002E+02  0.47000000000E+01 0. -1.
        -11    1    1    2    0    0  0.56201012297E+02 -0.85351905111E+02 -0.12187841669E+02  0.10291766114E+03  0.00000000000E+00 0.  1.
         11    1    1    2    0    0  0.25155292442E+01 -0.27817389894E+02 -0.70755412961E+02  0.76068807873E+02  0.00000000000E+00 0. -1.
<mgrwt>
<rscale>  0 0.17333996E+03</rscale>
<asrwt>0</asrwt>
<pdfrwt beam="2">  1        2 0.80691017E-01 0.17854856E+03</pdfrwt>
<pdfrwt beam="1">  1       -2 0.10503708E-01 0.17854856E+03</pdfrwt>
<totfact> 0.35505116E+03</totfact>
</mgrwt>
</event>
<event>
 6    1  0.1190675E-005  0.1502020E+03  0.7546771E-02  0.1209503E+00
         -1   -1    0    0    0  501 -0.00000000000E+00  0.00000000000E+00  0.23740032106E+02  0.23740032106E+02  0.00000000000E+00 0.  1.
          1   -1    0    0  501    0  0.00000000000E+00 -0.00000000000E+00 -0.90295661547E+03  0.90295661547E+03  0.00000000000E+00 0. -1.
          5    1    1    2  502    0 -0.53480628644E+02 -0.19903684126E+02 -0.11340637018E+03  0.12704105273E+03  0.47000000000E+01 0.  1.
         -5    1    1    2    0  502  0.23234302517E+02 -0.57695085352E+02 -0.53036972127E+03  0.53402498718E+03  0.47000000000E+01 0.  1.
        -11    1    1    2    0    0  0.38118750826E+02  0.59441946621E+02 -0.23548075360E+03  0.24584053673E+03  0.00000000000E+00 0. -1.
         11    1    1    2    0    0 -0.78724246997E+01  0.18156822857E+02  0.40261683552E-01  0.19790070943E+02  0.00000000000E+00 0.  1.
<mgrwt>
<rscale>  0 0.14288196E+03</rscale>
<asrwt>0</asrwt>
<pdfrwt beam="2">  1        1 0.13891641E+00 0.15020204E+03</pdfrwt>
<pdfrwt beam="1">  1       -1 0.36523125E-02 0.15020204E+03</pdfrwt>
<totfact> 0.52298034E+03</totfact>
</mgrwt>
</event>
<event>
 6    1  0.1190675E-005  0.3085172E+03  0.7546771E-02  0.1081059E+00
          3   -1    0    0  501    0  0.00000000000E+00  0.00000000000E+00  0.74997936742E+03  0.74997936742E+03  0.00000000000E+00 0. -1.
         -3   -1    0    0    0  501 -0.00000000000E+00 -0.00000000000E+00 -0.31728486353E+02  0.31728486353E+02  0.00000000000E+00 0.  1.
          5    1    1    2  502    0 -0.75926261756E+02 -0.41889438492E+02  0.55329815693E+03  0.56007183713E+03  0.47000000000E+01 0.  1.
         -5    1    1    2    0  502 -0.17635746252E+01  0.26445382346E+02  0.24570536473E+02  0.36445434631E+02  0.47000000000E+01 0.  1.
        -11    1    1    2    0    0  0.50699472738E+02 -0.36033635046E+02  0.80602048438E+02  0.10181134319E+03  0.00000000000E+00 0. -1.
         11    1    1    2    0    0  0.26990363642E+02  0.51477691193E+02  0.59780139217E+02  0.83379238812E+02  0.00000000000E+00 0.  1.
<mgrwt>
<rscale>  0 0.30851716E+03</rscale>
<asrwt>0</asrwt>
<pdfrwt beam="1">  1        3 0.11538143E+00 0.30851716E+03</pdfrwt>
<pdfrwt beam="2">  1       -3 0.48813062E-02 0.30851716E+03</pdfrwt>
<totfact> 0.39423052E+02</totfact>
</mgrwt>
</event>
<event>
 6    1  0.1190675E-005  0.1305902E+03  0.7546771E-02  0.1243218E+00
          1   -1    0    0  501    0  0.00000000000E+00  0.00000000000E+00  0.91427430659E+03  0.91427430659E+03  0.00000000000E+00 0. -1.
         -1   -1    0    0    0  501 -0.00000000000E+00 -0.00000000000E+00 -0.14597162291E+02  0.14597162291E+02  0.00000000000E+00 0.  1.
          5    1    1    2  502    0  0.40533495067E+02 -0.50814194656E+02  0.44433841529E+03  0.44909215525E+03  0.47000000000E+01 0. -1.
         -5    1    1    2    0  502 -0.25836471369E+02  0.51551480288E+02  0.19287514971E+03  0.20136531913E+03  0.47000000000E+01 0.  1.
        -11    1    1    2    0    0  0.35302844255E+02 -0.17075675157E+02  0.91730144379E+02  0.99761159187E+02  0.00000000000E+00 0. -1.
         11    1    1    2    0    0 -0.49999867953E+02  0.16338389525E+02  0.17073343491E+03  0.17865283531E+03  0.00000000000E+00 0.  1.
<mgrwt>
<rscale>  0 0.11992695E+03</rscale>
<asrwt>0</asrwt>
<pdfrwt beam="1">  1        1 0.14065754E+00 0.13059019E+03</pdfrwt>
<pdfrwt beam="2">  1       -1 0.22457180E-02 0.13059019E+03</pdfrwt>
<totfact> 0.10332503E+04</totfact>
</mgrwt>
</event>
<event>
 6    1  0.1190675E-005  0.1640061E+03  0.7546771E-02  0.1187430E+00
         -1   -1    0    0    0  501 -0.00000000000E+00  0.00000000000E+00  0.99442162816E+02  0.99442162816E+02  0.00000000000E+00 0.  1.
          1   -1    0    0  501    0  0.00000000000E+00 -0.00000000000E+00 -0.68853163743E+03  0.68853163743E+03  0.00000000000E+00 0. -1.
          5    1    1    2  502    0  0.61622077618E+02 -0.39024025017E+02 -0.47585803206E+03  0.48143858555E+03  0.47000000000E+01 0.  1.
         -5    1    1    2    0  502 -0.28026385214E+02 -0.61700051712E+02 -0.13603464960E+03  0.15205226254E+03  0.47000000000E+01 0.  1.
        -11    1    1    2    0    0  0.33027209464E+02  0.60238252441E+02  0.32362668770E+02  0.75939357069E+02  0.00000000000E+00 0.  1.
         11    1    1    2    0    0 -0.66622901868E+02  0.40485824288E+02 -0.95594617178E+01  0.78543595092E+02  0.00000000000E+00 0. -1.
<mgrwt>
<rscale>  0 0.16112734E+03</rscale>
<asrwt>0</asrwt>
<pdfrwt beam="2">  1        1 0.10592794E+00 0.16400610E+03</pdfrwt>
<pdfrwt beam="1">  1       -1 0.15298795E-01 0.16400610E+03</pdfrwt>
<totfact> 0.90239022E+02</totfact>
</mgrwt>
</event>
<event>
 6    1  0.1190675E-005  0.2886779E+03  0.7546771E-02  0.1092595E+00
         -1   -1    0    0    0  501 -0.00000000000E+00  0.00000000000E+00  0.41478629087E+03  0.41478629087E+03  0.00000000000E+00 0.  1.
          1   -1    0    0  501    0  0.00000000000E+00 -0.00000000000E+00 -0.19821785595E+03  0.19821785595E+03  0.00000000000E+00 0. -1.
          5    1    1    2  502    0 -0.21856508966E+03 -0.38867591919E+02  0.83035232348E+02  0.23706186520E+03  0.47000000000E+01 0.  1.
         -5    1    1    2    0  502 -0.41566673651E+02  0.32969627715E+02 -0.22626195683E+02  0.57868985140E+02  0.47000000000E+01 0.  1.
        -11    1    1    2    0    0  0.14981338948E+03 -0.58467857922E+01  0.14151928144E+03  0.20616969610E+03  0.00000000000E+00 0.  1.
         11    1    1    2    0    0  0.11031837383E+03  0.11744749996E+02  0.14640116818E+02  0.11190360038E+03  0.00000000000E+00 0. -1.
<mgrwt>
<rscale>  0 0.28573909E+03</rscale>
<asrwt>0</asrwt>
<pdfrwt beam="2">  1        1 0.30495055E-01 0.28867794E+03</pdfrwt>
<pdfrwt beam="1">  1       -1 0.63813275E-01 0.28867794E+03</pdfrwt>
<totfact> 0.38382060E+02</totfact>
</mgrwt>
</event>
<event>
 6    1  0.1190675E-005  0.1298034E+03  0.7546771E-02  0.1241329E+00
          1   -1    0    0  501    0  0.00000000000E+00  0.00000000000E+00  0.26005290910E+04  0.26005290910E+04  0.00000000000E+00 0. -1.
         -1   -1    0    0    0  501 -0.00000000000E+00 -0.00000000000E+00 -0.13129811609E+02  0.13129811609E+02  0.00000000000E+00 0.  1.
          5    1    1    2  502    0  0.10479830585E+02 -0.25292227239E+02  0.21733596854E+04  0.21735371945E+04  0.47000000000E+01 0. -1.
         -5    1    1    2    0  502 -0.37508533558E+02  0.30809775276E+01  0.21301484505E+03  0.21636496187E+03  0.47000000000E+01 0. -1.
        -11    1    1    2    0    0  0.12849578090E+02 -0.33864340567E+02  0.47760047026E+02  0.59941031948E+02  0.00000000000E+00 0.  1.
         11    1    1    2    0    0  0.14179124883E+02  0.56075590278E+02  0.15326470192E+03  0.16381571433E+03  0.00000000000E+00 0. -1.
<mgrwt>
<rscale>  0 0.12107790E+03</rscale>
<asrwt>0</asrwt>
<pdfrwt beam="1">  1        1 0.40008099E+00 0.12980338E+03</pdfrwt>
<pdfrwt beam="2">  1       -1 0.20199731E-02 0.12980338E+03</pdfrwt>
<totfact> 0.93709415E+02</totfact>
</mgrwt>
</event>
<event>
 6    1  0.1190675E-005  0.1529488E+03  0.7546771E-02  0.1207126E+00
         -2   -1    0    0    0  501 -0.00000000000E+00  0.00000000000E+00  0.33083727660E+02  0.33083727660E+02  0.00000000000E+00 0.  1.
          2   -1    0    0  501    0  0.00000000000E+00 -0.00000000000E+00 -0.87489738334E+03  0.87489738334E+03  0.00000000000E+00 0. -1.
          5    1    1    2  502    0 -0.24756077521E+02  0.21685380030E+02 -0.42409334796E+02  0.53886554530E+02  0.47000000000E+01 0. -1.
         -5    1    1    2    0  502 -0.56637093396E+02 -0.55481570958E+02 -0.67427831239E+03  0.67893983358E+03  0.47000000000E+01 0. -1.
        -11    1    1    2    0    0  0.19982538825E+02 -0.28599110094E+02 -0.32048995765E+02  0.47374561587E+02  0.00000000000E+00 0. -1.
         11    1    1    2    0    0  0.61410632093E+02  0.62395301022E+02 -0.93077012728E+02  0.12778016130E+03  0.00000000000E+00 0.  1.
<mgrwt>
<rscale>  0 0.14471144E+03</rscale>
<asrwt>0</asrwt>
<pdfrwt beam="2">  1        2 0.13459959E+00 0.15294879E+03</pdfrwt>
<pdfrwt beam="1">  1       -2 0.50898044E-02 0.15294879E+03</pdfrwt>
<totfact> 0.58676347E+03</totfact>
</mgrwt>
</event>
<event>
 6    1  0.1190675E-005  0.1825743E+03  0.7546771E-02  0.1170644E+00
         -1   -1    0    0    0  501 -0.00000000000E+00  0.00000000000E+00  0.27363728544E+03  0.27363728544E+03  0.00000000000E+00 0.  1.
          1   -1    0    0  501    0  0.00000000000E+00 -0.00000000000E+00 -0.10998608157E+03  0.10998608157E+03  0.00000000000E+00 0. -1.
          5    1    1    2  502    0 -0.27095563471E+02  0.26667340959E+02 -0.36869448997E+02  0.53167310473E+02  0.47000000000E+01 0.  1.
         -5    1    1    2    0  502 -0.93842853649E+02  0.28842441396E+02  0.99476948658E+02  0.13984320120E+03  0.47000000000E+01 0.  1.
        -11    1    1    2    0    0  0.84101361338E+02 -0.81012450437E+02  0.70880305101E+02  0.13660188050E+03  0.00000000000E+00 0.  1.
         11    1    1    2    0    0  0.36837055782E+02  0.25502668082E+02  0.30163399107E+02  0.54010974845E+02  0.00000000000E+00 0. -1.
<mgrwt>
<rscale>  0 0.17709587E+03</rscale>
<asrwt>0</asrwt>
<pdfrwt beam="2">  1        1 0.16920936E-01 0.18257426E+03</pdfrwt>
<pdfrwt beam="1">  1       -1 0.42098044E-01 0.18257426E+03</pdfrwt>
<totfact> 0.17656786E+03</totfact>
</mgrwt>
</event>
<event>
 6    1  0.1190675E-005  0.1274277E+03  0.7546771E-02  0.1247312E+00
          2   -1    0    0  501    0  0.00000000000E+00  0.00000000000E+00  0.45484511575E+03  0.45484511575E+03  0.00000000000E+00 0. -1.
         -2   -1    0    0    0  501 -0.00000000000E+00 -0.00000000000E+00 -0.27685321251E+02  0.27685321251E+02  0.00000000000E+00 0.  1.
          5    1    1    2  502    0 -0.68804961616E+02 -0.21554401198E+01  0.21312622699E+03  0.22401706921E+03  0.47000000000E+01 0. -1.
         -5    1    1    2    0  502  0.49533062412E+02  0.17668007793E+02  0.83109009801E+02  0.98462583154E+02  0.47000000000E+01 0. -1.
        -11    1    1    2    0    0  0.52838776280E+02 -0.79542892886E+01  0.54942187946E+02  0.76641053053E+02  0.00000000000E+00 0.  1.
         11    1    1    2    0    0 -0.33566877076E+02 -0.75582783841E+01  0.75982369759E+02  0.83409731584E+02  0.00000000000E+00 0. -1.
<mgrwt>
<rscale>  0 0.11748038E+03</rscale>
<asrwt>0</asrwt>
<pdfrwt beam="1">  1        2 0.69976166E-01 0.12742767E+03</pdfrwt>
<pdfrwt beam="2">  1       -2 0.42592805E-02 0.12742767E+03</pdfrwt>
<totfact> 0.16228651E+04</totfact>
</mgrwt>
</event>
<event>
 6    1  0.1190675E-005  0.1683001E+03  0.7546771E-02  0.1186236E+00
         -1   -1    0    0    0  501 -0.00000000000E+00  0.00000000000E+00  0.94264679125E+02  0.94264679125E+02  0.00000000000E+00 0.  1.
          1   -1    0    0  501    0  0.00000000000E+00 -0.00000000000E+00 -0.27627581101E+03  0.27627581101E+03  0.00000000000E+00 0. -1.
          5    1    1    2  502    0  0.71920686109E+02 -0.59226767354E+02 -0.39690526662E+02  0.10137959838E+03  0.47000000000E+01 0. -1.
         -5    1    1    2    0  502  0.39936448495E+02  0.45502618120E+02 -0.10160696837E+03  0.11837007306E+03  0.47000000000E+01 0. -1.
        -11    1    1    2    0    0  0.93904799568E+01 -0.11858545208E+02 -0.20123609656E+02  0.25174707026E+02  0.00000000000E+00 0. -1.
         11    1    1    2    0    0 -0.12124761456E+03  0.25582694442E+02 -0.20590027200E+02  0.12561611167E+03  0.00000000000E+00 0.  1.
<mgrwt>
<rscale>  0 0.16219889E+03</rscale>
<asrwt>0</asrwt>
<pdfrwt beam="2">  1        1 0.42503971E-01 0.16830014E+03</pdfrwt>
<pdfrwt beam="1">  1       -1 0.14502258E-01 0.16830014E+03</pdfrwt>
<totfact> 0.32237339E+03</totfact>
</mgrwt>
</event>
<event>
 6    1  0.1190675E-005  0.1291857E+03  0.7546771E-02  0.1244168E+00
          1   -1    0    0  501    0  0.00000000000E+00  0.00000000000E+00  0.31444881926E+03  0.31444881926E+03  0.00000000000E+00 0. -1.
         -1   -1    0    0    0  501 -0.00000000000E+00 -0.00000000000E+00 -0.39646682082E+02  0.39646682082E+02  0.00000000000E+00 0.  1.
          5    1    1    2  502    0  0.53759309647E+02 -0.30598785866E+02  0.12497887924E+03  0.13952834596E+03  0.47000000000E+01 0. -1.
         -5    1    1    2    0  502 -0.55341707535E+02 -0.18932897711E+01  0.33331250630E+02  0.64802402792E+02  0.47000000000E+01 0. -1.
        -11    1    1    2    0    0  0.25029701385E+02  0.47656933820E+02  0.36497206553E+02  0.65036262029E+02  0.00000000000E+00 0.  1.
         11    1    1    2    0    0 -0.23447303498E+02 -0.15164858183E+02  0.79994800748E+02  0.84728490556E+02  0.00000000000E+00 0. -1.
<mgrwt>
<rscale>  0 0.11935335E+03</rscale>
<asrwt>0</asrwt>
<pdfrwt beam="1">  1        1 0.48376740E-01 0.12918575E+03</pdfrwt>
<pdfrwt beam="2">  1       -1 0.60994898E-02 0.12918575E+03</pdfrwt>
<totfact> 0.10136287E+04</totfact>
</mgrwt>
</event>
<event>
 6    1  0.1190675E-005  0.1358194E+03  0.7546771E-02  0.1230978E+00
         -2   -1    0    0    0  501 -0.00000000000E+00  0.00000000000E+00  0.13365086108E+02  0.13365086108E+02  0.00000000000E+00 0.  1.
          2   -1    0    0  501    0  0.00000000000E+00 -0.00000000000E+00 -0.11206927636E+04  0.11206927636E+04  0.00000000000E+00 0. -1.
          5    1    1    2  502    0  0.29983296619E+01  0.51139520208E+02 -0.11417534083E+03  0.12522914582E+03  0.47000000000E+01 0. -1.
         -5    1    1    2    0  502 -0.55618187578E+02 -0.43909884744E+02 -0.41885008944E+03  0.42482813960E+03  0.47000000000E+01 0. -1.
        -11    1    1    2    0    0  0.12350016381E+02 -0.47474779619E+02 -0.26712505706E+03  0.27159192498E+03  0.00000000000E+00 0. -1.
         11    1    1    2    0    0  0.40269841535E+02  0.40245144154E+02 -0.30717719013E+03  0.31240863928E+03  0.00000000000E+00 0.  1.
<mgrwt>
<rscale>  0 0.12765451E+03</rscale>
<asrwt>0</asrwt>
<pdfrwt beam="2">  1        2 0.17241431E+00 0.13581939E+03</pdfrwt>
<pdfrwt beam="1">  1       -2 0.20561666E-02 0.13581939E+03</pdfrwt>
<totfact> 0.15826341E+04</totfact>
</mgrwt>
</event>
<event>
 6    1  0.1190675E-005  0.3343319E+03  0.7546771E-02  0.1070520E+00
         -2   -1    0    0    0  501 -0.00000000000E+00  0.00000000000E+00  0.77981642969E+03  0.77981642969E+03  0.00000000000E+00 0.  1.
          2   -1    0    0  501    0  0.00000000000E+00 -0.00000000000E+00 -0.13909066053E+03  0.13909066053E+03  0.00000000000E+00 0. -1.
          5    1    1    2  502    0  0.89749008028E+02 -0.11854001857E+03  0.12427845591E+03  0.19383974063E+03  0.47000000000E+01 0.  1.
         -5    1    1    2    0  502  0.17733361635E+03 -0.39004273748E+02  0.23369022625E+03  0.29597593939E+03  0.47000000000E+01 0.  1.
        -11    1    1    2    0    0 -0.10764716527E+03  0.10793588461E+03  0.10434570460E+03  0.18473249158E+03  0.00000000000E+00 0.  1.
         11    1    1    2    0    0 -0.15943545910E+03  0.49608407708E+02  0.17841138240E+03  0.24435891861E+03  0.00000000000E+00 0. -1.
<mgrwt>
<rscale>  0 0.33139816E+03</rscale>
<asrwt>0</asrwt>
<pdfrwt beam="2">  1        2 0.21398564E-01 0.33433191E+03</pdfrwt>
<pdfrwt beam="1">  1       -2 0.11997176E+00 0.33433191E+03</pdfrwt>
<totfact> 0.14294259E+02</totfact>
</mgrwt>
</event>
<event>
 6    1  0.1190675E-005  0.1416473E+03  0.7546771E-02  0.1231274E+00
          1   -1    0    0  501    0  0.00000000000E+00  0.00000000000E+00  0.18807551385E+03  0.18807551385E+03  0.00000000000E+00 0. -1.
         -1   -1    0    0    0  501 -0.00000000000E+00 -0.00000000000E+00 -0.77701643888E+02  0.77701643888E+02  0.00000000000E+00 0.  1.
          5    1    1    2  502    0 -0.44520669791E+02  0.54102159035E+02  0.73024968444E+02  0.10131075790E+03  0.47000000000E+01 0.  1.
         -5    1    1    2    0  502  0.65506565767E+02  0.91304736974E+01  0.24613037758E+02  0.70727415733E+02  0.47000000000E+01 0.  1.
        -11    1    1    2    0    0 -0.35817837876E+01 -0.94971644996E+01  0.32382524592E+02  0.33936016377E+02  0.00000000000E+00 0. -1.
         11    1    1    2    0    0 -0.17404112188E+02 -0.53735468233E+02 -0.19646660828E+02  0.59802967727E+02  0.00000000000E+00 0.  1.
<mgrwt>
<rscale>  0 0.12746026E+03</rscale>
<asrwt>0</asrwt>
<pdfrwt beam="1">  1        1 0.28934694E-01 0.14164728E+03</pdfrwt>
<pdfrwt beam="2">  1       -1 0.11954099E-01 0.14164728E+03</pdfrwt>
<totfact> 0.69611219E+03</totfact>
</mgrwt>
</event>
<event>
 6    1  0.1190675E-005  0.1187130E+03  0.7546771E-02  0.1254285E+00
          3   -1    0    0  501    0  0.00000000000E+00  0.00000000000E+00  0.60864158708E+02  0.60864158708E+02  0.00000000000E+00 0. -1.
         -3   -1    0    0    0  501 -0.00000000000E+00 -0.00000000000E+00 -0.19885370789E+03  0.19885370789E+03  0.00000000000E+00 0.  1.
          5    1    1    2  502    0 -0.42620377304E+02  0.13195306745E+02 -0.11042598887E+02  0.46202182544E+02  0.47000000000E+01 0. -1.
         -5    1    1    2    0  502  0.71740332274E+02  0.57309727450E+01 -0.45629483728E+02  0.85344356045E+02  0.47000000000E+01 0.  1.
        -11    1    1    2    0    0 -0.11796089708E+01  0.26280220508E+02 -0.68679384854E+02  0.73545219908E+02  0.00000000000E+00 0. -1.
         11    1    1    2    0    0 -0.27940345999E+02 -0.45206499999E+02 -0.12638081709E+02  0.54626108098E+02  0.00000000000E+00 0.  1.
<mgrwt>
<rscale>  0 0.11346499E+03</rscale>
<asrwt>0</asrwt>
<pdfrwt beam="1">  1        3 0.93637167E-02 0.11871296E+03</pdfrwt>
<pdfrwt beam="2">  1       -3 0.30592878E-01 0.11871296E+03</pdfrwt>
<totfact> 0.19073809E+03</totfact>
</mgrwt>
</event>
<event>
 6    1  0.1190675E-005  0.1490672E+03  0.7546771E-02  0.1211729E+00
         -2   -1    0    0    0  501 -0.00000000000E+00  0.00000000000E+00  0.11443499810E+03  0.11443499810E+03  0.00000000000E+00 0.  1.
          2   -1    0    0  501    0  0.00000000000E+00 -0.00000000000E+00 -0.16133087336E+03  0.16133087336E+03  0.00000000000E+00 0. -1.
          5    1    1    2  502    0  0.14289909160E+02 -0.10401771668E+03 -0.32332928390E+02  0.10996088006E+03  0.47000000000E+01 0. -1.
         -5    1    1    2    0  502 -0.35417355495E+02  0.25619574857E+02 -0.12856045205E+02  0.45805235339E+02  0.47000000000E+01 0. -1.
        -11    1    1    2    0    0 -0.18263278983E+02  0.28636343892E+02  0.33261322982E+02  0.47538438734E+02  0.00000000000E+00 0.  1.
         11    1    1    2    0    0  0.39390725319E+02  0.49761797925E+02 -0.34968224651E+02  0.72461317329E+02  0.00000000000E+00 0. -1.
<mgrwt>
<rscale>  0 0.14119546E+03</rscale>
<asrwt>0</asrwt>
<pdfrwt beam="2">  1        2 0.24820134E-01 0.14906723E+03</pdfrwt>
<pdfrwt beam="1">  1       -2 0.17605384E-01 0.14906723E+03</pdfrwt>
<totfact> 0.54390369E+03</totfact>
</mgrwt>
</event>
<event>
 6    1  0.1190675E-005  0.1254690E+03  0.7546771E-02  0.1249486E+00
          2   -1    0    0  501    0  0.00000000000E+00  0.00000000000E+00  0.35101927243E+02  0.35101927243E+02  0.00000000000E+00 0. -1.
         -2   -1    0    0    0  501 -0.00000000000E+00 -0.00000000000E+00 -0.34384733771E+03  0.34384733771E+03  0.00000000000E+00 0.  1.
          5    1    1    2  502    0  0.46040862429E+02  0.35764053475E+02 -0.58407536550E+02  0.82658084058E+02  0.47000000000E+01 0.  1.
         -5    1    1    2    0  502 -0.56646893261E+02 -0.33130818564E+02 -0.94302730482E+02  0.11498528876E+03  0.47000000000E+01 0.  1.
        -11    1    1    2    0    0 -0.37197147805E+02  0.79273084858E+01 -0.39147225629E+02  0.54579989915E+02  0.00000000000E+00 0. -1.
         11    1    1    2    0    0  0.47803178637E+02 -0.10560543397E+02 -0.11688791781E+03  0.12672590222E+03  0.00000000000E+00 0.  1.
<mgrwt>
<rscale>  0 0.11620861E+03</rscale>
<asrwt>0</asrwt>
<pdfrwt beam="1">  1        2 0.54002967E-02 0.12546903E+03</pdfrwt>
<pdfrwt beam="2">  1       -2 0.52899589E-01 0.12546903E+03</pdfrwt>
<totfact> 0.45921992E+03</totfact>
</mgrwt>
</event>
<event>
 6    1  0.1190675E-005  0.1439701E+03  0.7546771E-02  0.1220340E+00
         -1   -1    0    0    0  501 -0.00000000000E+00  0.00000000000E+00  0.92057718704E+02  0.92057718704E+02  0.00000000000E+00 0.  1.
          1   -1    0    0  501    0  0.00000000000E+00 -0.00000000000E+00 -0.17960459672E+03  0.17960459672E+03  0.00000000000E+00 0. -1.
          5    1    1    2  502    0 -0.20900177886E+02 -0.65940439855E+02  0.34188798795E+01  0.69417128891E+02  0.47000000000E+01 0. -1.
         -5    1    1    2    0  502  0.68312221997E+02  0.12509194833E+02 -0.35276215585E+02  0.78035511247E+02  0.47000000000E+01 0. -1.
        -11    1    1    2    0    0  0.69834253603E+01  0.55653330006E+02 -0.22398231916E+02  0.60396540989E+02  0.00000000000E+00 0.  1.
         11    1    1    2    0    0 -0.54395469472E+02 -0.22220849842E+01 -0.33291310391E+02  0.63813134293E+02  0.00000000000E+00 0. -1.
<mgrwt>
<rscale>  0 0.13491498E+03</rscale>
<asrwt>0</asrwt>
<pdfrwt beam="2">  1        1 0.27631476E-01 0.14397011E+03</pdfrwt>
<pdfrwt beam="1">  1       -1 0.14162726E-01 0.14397011E+03</pdfrwt>
<totfact> 0.56723401E+03</totfact>
</mgrwt>
</event>
<event>
 6    1  0.1190675E-005  0.2309034E+03  0.7546771E-02  0.1128952E+00
         -1   -1    0    0    0  501 -0.00000000000E+00  0.00000000000E+00  0.10112525267E+03  0.10112525267E+03  0.00000000000E+00 0.  1.
          1   -1    0    0  501    0  0.00000000000E+00 -0.00000000000E+00 -0.61766255386E+03  0.61766255386E+03  0.00000000000E+00 0. -1.
          5    1    1    2  502    0 -0.18599427829E+02  0.18321421523E+02 -0.52309323218E+02  0.58651244639E+02  0.47000000000E+01 0.  1.
         -5    1    1    2    0  502  0.19297505613E+03  0.67009691424E+02 -0.37613702211E+03  0.42805469327E+03  0.47000000000E+01 0.  1.
        -11    1    1    2    0    0 -0.67802572031E+02 -0.58420951157E+02 -0.82974338548E+02  0.12204481622E+03  0.00000000000E+00 0. -1.
         11    1    1    2    0    0 -0.10657305627E+03 -0.26910161789E+02 -0.51166173137E+01  0.11003705241E+03  0.00000000000E+00 0.  1.
<mgrwt>
<rscale>  0 0.22674502E+03</rscale>
<asrwt>0</asrwt>
<pdfrwt beam="2">  1        1 0.95025009E-01 0.23090344E+03</pdfrwt>
<pdfrwt beam="1">  1       -1 0.15557731E-01 0.23090344E+03</pdfrwt>
<totfact> 0.10250674E+03</totfact>
</mgrwt>
</event>
<event>
 6    1  0.1190675E-005  0.2466624E+03  0.7546771E-02  0.1115432E+00
          2   -1    0    0  501    0  0.00000000000E+00  0.00000000000E+00  0.58310591393E+03  0.58310591393E+03  0.00000000000E+00 0. -1.
         -2   -1    0    0    0  501 -0.00000000000E+00 -0.00000000000E+00 -0.26085459369E+02  0.26085459369E+02  0.00000000000E+00 0.  1.
          5    1    1    2  502    0  0.24878893003E+02 -0.34064201431E+02  0.28005044242E+02  0.50849794878E+02  0.47000000000E+01 0.  1.
         -5    1    1    2    0  502  0.57300506910E+01 -0.61250546477E+01  0.35609390063E+03  0.35622367389E+03  0.47000000000E+01 0.  1.
        -11    1    1    2    0    0 -0.37053431690E+02  0.16508972772E+02  0.17288102841E+03  0.17757632998E+03  0.00000000000E+00 0. -1.
         11    1    1    2    0    0  0.64444879966E+01  0.23680283306E+02  0.40481279084E-01  0.24541574557E+02  0.00000000000E+00 0.  1.
<mgrwt>
<rscale>  0 0.24666241E+03</rscale>
<asrwt>0</asrwt>
<pdfrwt beam="1">  1        2 0.89708592E-01 0.24666241E+03</pdfrwt>
<pdfrwt beam="2">  1       -2 0.40131480E-02 0.24666241E+03</pdfrwt>
<totfact> 0.14103358E+04</totfact>
</mgrwt>
</event>
<event>
 6    1  0.1190675E-005  0.1352270E+03  0.7546771E-02  0.1232051E+00
          3   -1    0    0  501    0  0.00000000000E+00  0.00000000000E+00  0.13348776940E+03  0.13348776940E+03  0.00000000000E+00 0. -1.
         -3   -1    0    0    0  501 -0.00000000000E+00 -0.00000000000E+00 -0.12858187378E+03  0.12858187378E+03  0.00000000000E+00 0.  1.
          5    1    1    2  502    0 -0.40386317518E+02  0.20434428610E+02 -0.17066113518E+02  0.48600028250E+02  0.47000000000E+01 0. -1.
         -5    1    1    2    0  502  0.59475399161E+02  0.27496314823E+02  0.71707404685E+02  0.97249227868E+02  0.47000000000E+01 0. -1.
        -11    1    1    2    0    0  0.33204477840E+02 -0.37091117787E+02 -0.13164232329E+02  0.51493546976E+02  0.00000000000E+00 0. -1.
         11    1    1    2    0    0 -0.52293559483E+02 -0.10839625646E+02 -0.36571163217E+02  0.64726840079E+02  0.00000000000E+00 0.  1.
<mgrwt>
<rscale>  0 0.12695126E+03</rscale>
<asrwt>0</asrwt>
<pdfrwt beam="1">  1        3 0.20536580E-01 0.13522698E+03</pdfrwt>
<pdfrwt beam="2">  1       -3 0.19781827E-01 0.13522698E+03</pdfrwt>
<totfact> 0.11278590E+03</totfact>
</mgrwt>
</event>
<event>
 6    1  0.1190675E-005  0.1536730E+03  0.7546771E-02  0.1204771E+00
         -1   -1    0    0    0  501 -0.00000000000E+00  0.00000000000E+00  0.93169364584E+02  0.93169364584E+02  0.00000000000E+00 0.  1.
          1   -1    0    0  501    0  0.00000000000E+00 -0.00000000000E+00 -0.24128977122E+03  0.24128977122E+03  0.00000000000E+00 0. -1.
          5    1    1    2  502    0 -0.16161012819E+02 -0.30563037334E+02 -0.48560477206E+02  0.59795380531E+02  0.47000000000E+01 0. -1.
         -5    1    1    2    0  502 -0.10701921311E+02  0.11580070756E+03 -0.90107929226E+02  0.14719328755E+03  0.47000000000E+01 0. -1.
        -11    1    1    2    0    0  0.19541563631E+02 -0.29931799542E+01  0.30024922922E+02  0.35948961485E+02  0.00000000000E+00 0.  1.
         11    1    1    2    0    0  0.73213704985E+01 -0.82244490267E+02 -0.39476923131E+02  0.91521506244E+02  0.00000000000E+00 0. -1.
<mgrwt>
<rscale>  0 0.14655519E+03</rscale>
<asrwt>0</asrwt>
<pdfrwt beam="2">  1        1 0.37121503E-01 0.15367297E+03</pdfrwt>
<pdfrwt beam="1">  1       -1 0.14333749E-01 0.15367297E+03</pdfrwt>
<totfact> 0.38687540E+03</totfact>
</mgrwt>
</event>
<event>
 6    1  0.1190675E-005  0.1523651E+03  0.7546771E-02  0.1216474E+00
          2   -1    0    0  501    0  0.00000000000E+00  0.00000000000E+00  0.71497034155E+02  0.71497034155E+02  0.00000000000E+00 0. -1.
         -2   -1    0    0    0  501 -0.00000000000E+00 -0.00000000000E+00 -0.34780781147E+03  0.34780781147E+03  0.00000000000E+00 0.  1.
          5    1    1    2  502    0 -0.52993472055E-01 -0.53958709112E+02  0.36086217722E+02  0.65083409613E+02  0.47000000000E+01 0. -1.
         -5    1    1    2    0  502  0.45003043055E+02  0.37274129074E+02 -0.69462945557E+02  0.90894583931E+02  0.47000000000E+01 0.  1.
        -11    1    1    2    0    0 -0.46518434414E+02 -0.19734169370E+01 -0.23987848464E+03  0.24435536931E+03  0.00000000000E+00 0.  1.
         11    1    1    2    0    0  0.15683848312E+01  0.18657996975E+02 -0.30555648357E+01  0.18971482772E+02  0.00000000000E+00 0. -1.
<mgrwt>
<rscale>  0 0.13768784E+03</rscale>
<asrwt>0</asrwt>
<pdfrwt beam="1">  1        2 0.10999544E-01 0.15236512E+03</pdfrwt>
<pdfrwt beam="2">  1       -2 0.53508893E-01 0.15236512E+03</pdfrwt>
<totfact> 0.18547629E+03</totfact>
</mgrwt>
</event>
<event>
 6    1  0.1190675E-005  0.1378488E+03  0.7546771E-02  0.1228285E+00
         -1   -1    0    0    0  501 -0.00000000000E+00  0.00000000000E+00  0.22789086718E+03  0.22789086718E+03  0.00000000000E+00 0.  1.
          1   -1    0    0  501    0  0.00000000000E+00 -0.00000000000E+00 -0.66548294552E+02  0.66548294552E+02  0.00000000000E+00 0. -1.
          5    1    1    2  502    0  0.10890661746E+02  0.32129984323E+02  0.52130973665E+02  0.62375242053E+02  0.47000000000E+01 0. -1.
         -5    1    1    2    0  502 -0.36704261812E+02 -0.84175409645E+02  0.23703135241E+02  0.94955942649E+02  0.47000000000E+01 0. -1.
        -11    1    1    2    0    0  0.22691404223E+02  0.16056638194E+01 -0.13138429346E+02  0.26269684192E+02  0.00000000000E+00 0. -1.
         11    1    1    2    0    0  0.31221958436E+01  0.50439761503E+02  0.98646893072E+02  0.11083829284E+03  0.00000000000E+00 0.  1.
<mgrwt>
<rscale>  0 0.12944270E+03</rscale>
<asrwt>0</asrwt>
<pdfrwt beam="2">  1        1 0.10238199E-01 0.13784879E+03</pdfrwt>
<pdfrwt beam="1">  1       -1 0.35060133E-01 0.13784879E+03</pdfrwt>
<totfact> 0.46344613E+03</totfact>
</mgrwt>
</event>
<event>
 6    1  0.1190675E-005  0.2305574E+03  0.7546771E-02  0.1126248E+00
         -2   -1    0    0    0  501 -0.00000000000E+00  0.00000000000E+00  0.11929312022E+03  0.11929312022E+03  0.00000000000E+00 0.  1.
          2   -1    0    0  501    0  0.00000000000E+00 -0.00000000000E+00 -0.11139934591E+03  0.11139934591E+03  0.00000000000E+00 0. -1.
          5    1    1    2  502    0  0.50615075773E+01 -0.22309818121E+00  0.57978271178E+02  0.58388685210E+02  0.47000000000E+01 0.  1.
         -5    1    1    2    0  502  0.24503445254E+02  0.26641278081E+02 -0.63050989899E+02  0.72853921338E+02  0.47000000000E+01 0.  1.
        -11    1    1    2    0    0  0.10447361582E+02  0.22696557055E+02 -0.16127298330E+02  0.29738372813E+02  0.00000000000E+00 0. -1.
         11    1    1    2    0    0 -0.40012314413E+02 -0.49114736955E+02  0.29093791359E+02  0.69711486761E+02  0.00000000000E+00 0.  1.
<mgrwt>
<rscale>  0 0.23055737E+03</rscale>
<asrwt>0</asrwt>
<pdfrwt beam="2">  1        2 0.17138361E-01 0.23055737E+03</pdfrwt>
<pdfrwt beam="1">  1       -2 0.18352788E-01 0.23055737E+03</pdfrwt>
<totfact> 0.79432387E+03</totfact>
</mgrwt>
</event>
<event>
 6    1  0.1190675E-005  0.3041313E+03  0.7546771E-02  0.1083193E+00
         -1   -1    0    0    0  501 -0.00000000000E+00  0.00000000000E+00  0.60902979761E+02  0.60902979761E+02  0.00000000000E+00 0.  1.
          1   -1    0    0  501    0  0.00000000000E+00 -0.00000000000E+00 -0.37968533896E+03  0.37968533896E+03  0.00000000000E+00 0. -1.
          5    1    1    2  502    0 -0.29354173100E+02  0.79543575771E+01 -0.32768145603E+03  0.32912332933E+03  0.47000000000E+01 0. -1.
         -5    1    1    2    0  502  0.99147476717E+01  0.92997809608E+01  0.70316304963E+01  0.16010058549E+02  0.47000000000E+01 0. -1.
        -11    1    1    2    0    0  0.19585364944E+02  0.13273965288E+01 -0.42794225640E+02  0.47081782567E+02  0.00000000000E+00 0. -1.
         11    1    1    2    0    0 -0.14593951513E+00 -0.18581535067E+02  0.44661691976E+02  0.48373148274E+02  0.00000000000E+00 0.  1.
<mgrwt>
<rscale>  0 0.30413134E+03</rscale>
<asrwt>0</asrwt>
<pdfrwt beam="2">  1        1 0.58413130E-01 0.30413134E+03</pdfrwt>
<pdfrwt beam="1">  1       -1 0.93696891E-02 0.30413134E+03</pdfrwt>
<totfact> 0.43654773E+03</totfact>
</mgrwt>
</event>
<event>
 6    1  0.1190675E-005  0.1533833E+03  0.7546771E-02  0.1204885E+00
         -1   -1    0    0    0  501 -0.00000000000E+00  0.00000000000E+00  0.35688739738E+02  0.35688739738E+02  0.00000000000E+00 0.  1.
          1   -1    0    0  501    0  0.00000000000E+00 -0.00000000000E+00 -0.55895379603E+03  0.55895379603E+03  0.00000000000E+00 0. -1.
          5    1    1    2  502    0 -0.15696414747E+02 -0.53852802710E+02 -0.20804935082E+02  0.60011974800E+02  0.47000000000E+01 0. -1.
         -5    1    1    2    0  502 -0.35551780731E+02 -0.18601708783E+02 -0.23349692382E+03  0.23696593873E+03  0.47000000000E+01 0. -1.
        -11    1    1    2    0    0  0.75994181688E+01  0.80027670491E+02 -0.14174181958E+03  0.16295067541E+03  0.00000000000E+00 0. -1.
         11    1    1    2    0    0  0.43648777310E+02 -0.75731589979E+01 -0.12722137782E+03  0.13471394683E+03  0.00000000000E+00 0.  1.
<mgrwt>
<rscale>  0 0.14646498E+03</rscale>
<asrwt>0</asrwt>
<pdfrwt beam="2">  1        1 0.85992895E-01 0.15338333E+03</pdfrwt>
<pdfrwt beam="1">  1       -1 0.54905751E-02 0.15338333E+03</pdfrwt>
<totfact> 0.57513060E+03</totfact>
</mgrwt>
</event>
<event>
 6    1  0.1190675E-005  0.1373012E+03  0.7546771E-02  0.1231096E+00
         -2   -1    0    0    0  501 -0.00000000000E+00  0.00000000000E+00  0.19338337999E+02  0.19338337999E+02  0.00000000000E+00 0.  1.
          2   -1    0    0  501    0  0.00000000000E+00 -0.00000000000E+00 -0.90070459172E+03  0.90070459172E+03  0.00000000000E+00 0. -1.
          5    1    1    2  502    0  0.34797013165E+02 -0.29315896165E+02 -0.62070850398E+03  0.62239166994E+03  0.47000000000E+01 0.  1.
         -5    1    1    2    0  502  0.21796002739E+02  0.34305452739E+02 -0.64096661517E+02  0.76042105709E+02  0.47000000000E+01 0.  1.
        -11    1    1    2    0    0 -0.15641272552E+02 -0.36051478968E+01  0.42950741859E+01  0.16616081388E+02  0.00000000000E+00 0.  1.
         11    1    1    2    0    0 -0.40951743351E+02 -0.13844086776E+01 -0.20085616241E+03  0.20499307268E+03  0.00000000000E+00 0. -1.
<mgrwt>
<rscale>  0 0.12757680E+03</rscale>
<asrwt>0</asrwt>
<pdfrwt beam="2">  1        2 0.13856997E+00 0.13730122E+03</pdfrwt>
<pdfrwt beam="1">  1       -2 0.29751282E-02 0.13730122E+03</pdfrwt>
<totfact> 0.12485372E+04</totfact>
</mgrwt>
</event>
<event>
 6    1  0.1190675E-005  0.2570114E+03  0.7546771E-02  0.1111197E+00
         -1   -1    0    0    0  501 -0.00000000000E+00  0.00000000000E+00  0.58989425674E+02  0.58989425674E+02  0.00000000000E+00 0.  1.
          1   -1    0    0  501    0  0.00000000000E+00 -0.00000000000E+00 -0.10954415220E+04  0.10954415220E+04  0.00000000000E+00 0. -1.
          5    1    1    2  502    0  0.19297743513E+02  0.81517892923E+02 -0.96079776291E+02  0.12755776410E+03  0.47000000000E+01 0.  1.
         -5    1    1    2    0  502  0.24341191820E+01  0.14199772437E+03 -0.54252509194E+03  0.56082514570E+03  0.47000000000E+01 0.  1.
        -11    1    1    2    0    0 -0.43306006545E+02 -0.96140862724E+02 -0.12071162554E+03  0.16028029270E+03  0.00000000000E+00 0.  1.
         11    1    1    2    0    0  0.21574143849E+02 -0.12737475456E+03 -0.27713560258E+03  0.30576774519E+03  0.00000000000E+00 0. -1.
<mgrwt>
<rscale>  0 0.25336441E+03</rscale>
<asrwt>0</asrwt>
<pdfrwt beam="2">  1        1 0.16852947E+00 0.25701139E+03</pdfrwt>
<pdfrwt beam="1">  1       -1 0.90752959E-02 0.25701139E+03</pdfrwt>
<totfact> 0.96552563E+02</totfact>
</mgrwt>
</event>
<event>
 6    1  0.1190675E-005  0.1918988E+03  0.7546771E-02  0.1183279E+00
         -1   -1    0    0    0  501 -0.00000000000E+00  0.00000000000E+00  0.21464609481E+03  0.21464609481E+03  0.00000000000E+00 0.  1.
          1   -1    0    0  501    0  0.00000000000E+00 -0.00000000000E+00 -0.14683296680E+03  0.14683296680E+03  0.00000000000E+00 0. -1.
          5    1    1    2  502    0 -0.84267421711E+02 -0.90373252942E+02 -0.17932706160E+02  0.12494796981E+03  0.47000000000E+01 0. -1.
         -5    1    1    2    0  502  0.39431865091E+02  0.51078180884E+02 -0.37570017274E+02  0.74816099504E+02  0.47000000000E+01 0.  1.
        -11    1    1    2    0    0  0.49629463267E+02 -0.70890099640E+01  0.32847156076E+02  0.59935576653E+02  0.00000000000E+00 0.  1.
         11    1    1    2    0    0 -0.47939066473E+01  0.46384082021E+02  0.90468695372E+02  0.10177941564E+03  0.00000000000E+00 0. -1.
<mgrwt>
<rscale>  0 0.16489435E+03</rscale>
<asrwt>0</asrwt>
<pdfrwt beam="2">  1        1 0.22589687E-01 0.19189875E+03</pdfrwt>
<pdfrwt beam="1">  1       -1 0.33022476E-01 0.19189875E+03</pdfrwt>
<totfact> 0.18647870E+03</totfact>
</mgrwt>
</event>
<event>
 6    1  0.1190675E-005  0.1307262E+03  0.7546771E-02  0.1239918E+00
         -1   -1    0    0    0  501 -0.00000000000E+00  0.00000000000E+00  0.49911952097E+02  0.49911952097E+02  0.00000000000E+00 0.  1.
          1   -1    0    0  501    0  0.00000000000E+00 -0.00000000000E+00 -0.26459179226E+03  0.26459179226E+03  0.00000000000E+00 0. -1.
          5    1    1    2  502    0  0.73504450424E+02  0.21590165695E+02 -0.11071318120E+03  0.13471650967E+03  0.47000000000E+01 0.  1.
         -5    1    1    2    0  502 -0.35322827185E+02 -0.18882178116E+02 -0.64704280131E+01  0.40843545505E+02  0.47000000000E+01 0.  1.
        -11    1    1    2    0    0 -0.11253426567E+02  0.42586315146E+02 -0.29910828097E+02  0.53243699014E+02  0.00000000000E+00 0.  1.
         11    1    1    2    0    0 -0.26928196673E+02 -0.45294302725E+02 -0.67585402854E+02  0.85699990165E+02  0.00000000000E+00 0. -1.
<mgrwt>
<rscale>  0 0.12194788E+03</rscale>
<asrwt>0</asrwt>
<pdfrwt beam="2">  1        1 0.40706430E-01 0.13072618E+03</pdfrwt>
<pdfrwt beam="1">  1       -1 0.76787617E-02 0.13072618E+03</pdfrwt>
<totfact> 0.88972790E+03</totfact>
</mgrwt>
</event>
<event>
 6    1  0.1190675E-005  0.3719864E+03  0.7546771E-02  0.1054900E+00
          1   -1    0    0  501    0  0.00000000000E+00  0.00000000000E+00  0.16635323903E+04  0.16635323903E+04  0.00000000000E+00 0. -1.
         -1   -1    0    0    0  501 -0.00000000000E+00 -0.00000000000E+00 -0.14209965697E+03  0.14209965697E+03  0.00000000000E+00 0.  1.
          5    1    1    2  502    0  0.12343398845E+03 -0.10437662493E+03  0.84641153859E+03  0.86172211994E+03  0.47000000000E+01 0.  1.
         -5    1    1    2    0  502  0.10974619900E+03 -0.15711045677E+03  0.51239199516E+03  0.54707912639E+03  0.47000000000E+01 0.  1.
        -11    1    1    2    0    0 -0.16946140971E+03  0.17237453679E+03  0.15471356421E+03  0.28699553527E+03  0.00000000000E+00 0.  1.
         11    1    1    2    0    0 -0.63718777736E+02  0.89112544903E+02  0.79156353378E+01  0.10983526564E+03  0.00000000000E+00 0. -1.
<mgrwt>
<rscale>  0 0.36945810E+03</rscale>
<asrwt>0</asrwt>
<pdfrwt beam="1">  1        1 0.25592805E+00 0.37198644E+03</pdfrwt>
<pdfrwt beam="2">  1       -1 0.21861487E-01 0.37198644E+03</pdfrwt>
<totfact> 0.95852382E+01</totfact>
</mgrwt>
</event>
<event>
 6    1  0.1190675E-005  0.1339198E+03  0.7546771E-02  0.1235515E+00
          1   -1    0    0  501    0  0.00000000000E+00  0.00000000000E+00  0.81821430806E+02  0.81821430806E+02  0.00000000000E+00 0.  1.
         -1   -1    0    0    0  501 -0.00000000000E+00 -0.00000000000E+00 -0.16889780122E+03  0.16889780122E+03  0.00000000000E+00 0. -1.
          5    1    1    2  502    0 -0.51798427667E+02  0.87979304446E+01  0.16101343295E+02  0.55152732885E+02  0.47000000000E+01 0.  1.
         -5    1    1    2    0  502  0.48346406473E+02  0.39145484663E+02 -0.57966461784E+02  0.85158350619E+02  0.47000000000E+01 0.  1.
        -11    1    1    2    0    0  0.28143122790E+02 -0.46678283400E+02 -0.60427007393E+02  0.81377642654E+02  0.00000000000E+00 0. -1.
         11    1    1    2    0    0 -0.24691101597E+02 -0.12651317082E+01  0.15215755470E+02  0.29030505865E+02  0.00000000000E+00 0.  1.
<mgrwt>
<rscale>  0 0.12471535E+03</rscale>
<asrwt>0</asrwt>
<pdfrwt beam="1">  1        1 0.12587912E-01 0.13391980E+03</pdfrwt>
<pdfrwt beam="2">  1       -1 0.25984277E-01 0.13391980E+03</pdfrwt>
<totfact> 0.58328515E+03</totfact>
</mgrwt>
</event>
<event>
 6    1  0.1190675E-005  0.1399019E+03  0.7546771E-02  0.1224028E+00
         -2   -1    0    0    0  501 -0.00000000000E+00  0.00000000000E+00  0.11055095911E+03  0.11055095911E+03  0.00000000000E+00 0.  1.
          2   -1    0    0  501    0  0.00000000000E+00 -0.00000000000E+00 -0.14493317770E+03  0.14493317770E+03  0.00000000000E+00 0. -1.
          5    1    1    2  502    0  0.23079655138E+02  0.10071996108E+02 -0.54398291369E+02  0.60128027498E+02  0.47000000000E+01 0.  1.
         -5    1    1    2    0  502 -0.35658051761E+02 -0.71624261661E+02  0.22740136186E+02  0.83311075540E+02  0.47000000000E+01 0.  1.
        -11    1    1    2    0    0  0.35594714254E+01 -0.20992334435E+02  0.16351562407E+02  0.26846257375E+02  0.00000000000E+00 0. -1.
         11    1    1    2    0    0  0.90189251978E+01  0.82544599988E+02 -0.19075625812E+02  0.85198776394E+02  0.00000000000E+00 0.  1.
<mgrwt>
<rscale>  0 0.13233775E+03</rscale>
<asrwt>0</asrwt>
<pdfrwt beam="2">  1        2 0.22297412E-01 0.13990189E+03</pdfrwt>
<pdfrwt beam="1">  1       -2 0.17007840E-01 0.13990189E+03</pdfrwt>
<totfact> 0.64630810E+03</totfact>
</mgrwt>
</event>
<event>
 6    1  0.1190675E-005  0.1264581E+03  0.7546771E-02  0.1248058E+00
         -1   -1    0    0    0  501 -0.00000000000E+00  0.00000000000E+00  0.37011618669E+02  0.37011618669E+02  0.00000000000E+00 0.  1.
          1   -1    0    0  501    0  0.00000000000E+00 -0.00000000000E+00 -0.32586923805E+03  0.32586923805E+03  0.00000000000E+00 0. -1.
          5    1    1    2  502    0  0.46811411891E+02 -0.35100711525E+02 -0.61067804737E+02  0.84703807519E+02  0.47000000000E+01 0. -1.
         -5    1    1    2    0  502 -0.60775828272E+02  0.22006791663E+02 -0.11613937728E+03  0.13299791403E+03  0.47000000000E+01 0. -1.
        -11    1    1    2    0    0  0.49733571574E+02  0.18314952516E+02 -0.85385418541E+02  0.10049644435E+03  0.00000000000E+00 0. -1.
         11    1    1    2    0    0 -0.35769155193E+02 -0.52210326539E+01 -0.26265018821E+02  0.44682690820E+02  0.00000000000E+00 0.  1.
<mgrwt>
<rscale>  0 0.11704227E+03</rscale>
<asrwt>0</asrwt>
<pdfrwt beam="2">  1        1 0.50133727E-01 0.12645811E+03</pdfrwt>
<pdfrwt beam="1">  1       -1 0.56940954E-02 0.12645811E+03</pdfrwt>
<totfact> 0.10723812E+04</totfact>
</mgrwt>
</event>
<event>
 6    1  0.1190675E-005  0.1267444E+03  0.7546771E-02  0.1255962E+00
         -2   -1    0    0    0  501 -0.00000000000E+00  0.00000000000E+00  0.16932008387E+02  0.16932008387E+02  0.00000000000E+00 0.  1.
          2   -1    0    0  501    0  0.00000000000E+00 -0.00000000000E+00 -0.64300823096E+03  0.64300823096E+03  0.00000000000E+00 0. -1.
          5    1    1    2  502    0 -0.26961960970E+02 -0.80822675276E+01 -0.43442474975E+03  0.43536102671E+03  0.47000000000E+01 0. -1.
         -5    1    1    2    0  502  0.91695336217E+01  0.19170057037E+02 -0.54864990345E+01  0.22444667636E+02  0.47000000000E+01 0. -1.
        -11    1    1    2    0    0 -0.43088878048E+01  0.19645938967E+02 -0.10997378755E+02  0.22923171061E+02  0.00000000000E+00 0.  1.
         11    1    1    2    0    0  0.22101315153E+02 -0.30733728477E+02 -0.17516759504E+03  0.17921137394E+03  0.00000000000E+00 0. -1.
<mgrwt>
<rscale>  0 0.11252633E+03</rscale>
<asrwt>0</asrwt>
<pdfrwt beam="2">  1        2 0.98924336E-01 0.12674442E+03</pdfrwt>
<pdfrwt beam="1">  1       -2 0.26049245E-02 0.12674442E+03</pdfrwt>
<totfact> 0.22769921E+04</totfact>
</mgrwt>
</event>
<event>
 6    1  0.1190675E-005  0.1260104E+03  0.7546771E-02  0.1248122E+00
          1   -1    0    0  501    0  0.00000000000E+00  0.00000000000E+00  0.21108659561E+03  0.21108659561E+03  0.00000000000E+00 0. -1.
         -1   -1    0    0    0  501 -0.00000000000E+00 -0.00000000000E+00 -0.57276612638E+02  0.57276612638E+02  0.00000000000E+00 0.  1.
          5    1    1    2  502    0  0.35603988384E+02  0.51561353281E+02  0.19334428415E+02  0.65742887548E+02  0.47000000000E+01 0.  1.
         -5    1    1    2    0  502 -0.38191931506E+02 -0.36029547412E+02  0.74970973325E+02  0.91648724815E+02  0.47000000000E+01 0.  1.
        -11    1    1    2    0    0 -0.12127017536E+02  0.35502457186E+02  0.11135280349E+02  0.39134172906E+02  0.00000000000E+00 0.  1.
         11    1    1    2    0    0  0.14714960658E+02 -0.51034263055E+02  0.48369300887E+02  0.71837422984E+02  0.00000000000E+00 0. -1.
<mgrwt>
<rscale>  0 0.11700483E+03</rscale>
<asrwt>0</asrwt>
<pdfrwt beam="1">  1        1 0.32474860E-01 0.12601036E+03</pdfrwt>
<pdfrwt beam="2">  1       -1 0.88117867E-02 0.12601036E+03</pdfrwt>
<totfact> 0.95298111E+03</totfact>
</mgrwt>
</event>
<event>
 6    1  0.1190675E-005  0.1335171E+03  0.7546771E-02  0.1247426E+00
         -2   -1    0    0    0  501 -0.00000000000E+00  0.00000000000E+00  0.25194393633E+02  0.25194393633E+02  0.00000000000E+00 0. -1.
          2   -1    0    0  501    0  0.00000000000E+00 -0.00000000000E+00 -0.76574234884E+03  0.76574234884E+03  0.00000000000E+00 0.  1.
          5    1    1    2  502    0  0.62081936170E+02  0.52916688607E+02 -0.29403682132E+03  0.30517877551E+03  0.47000000000E+01 0. -1.
         -5    1    1    2    0  502 -0.19607543619E+02 -0.32962331289E+02 -0.37965812063E+03  0.38161937792E+03  0.47000000000E+01 0. -1.
        -11    1    1    2    0    0 -0.32817791344E+02 -0.69718550410E+01 -0.77717019659E+02  0.84649567844E+02  0.00000000000E+00 0.  1.
         11    1    1    2    0    0 -0.96566012065E+01 -0.12982502276E+02  0.10864006394E+02  0.19489021195E+02  0.00000000000E+00 0. -1.
<mgrwt>
<rscale>  0 0.11741329E+03</rscale>
<asrwt>0</asrwt>
<pdfrwt beam="2">  1        2 0.11780652E+00 0.13351715E+03</pdfrwt>
<pdfrwt beam="1">  1       -2 0.38760605E-02 0.13351715E+03</pdfrwt>
<totfact> 0.10353511E+04</totfact>
</mgrwt>
</event>
<event>
 6    1  0.1190675E-005  0.1347535E+03  0.7546771E-02  0.1232963E+00
          1   -1    0    0  501    0  0.00000000000E+00  0.00000000000E+00  0.69013384698E+02  0.69013384698E+02  0.00000000000E+00 0. -1.
         -1   -1    0    0    0  501 -0.00000000000E+00 -0.00000000000E+00 -0.35672002617E+03  0.35672002617E+03  0.00000000000E+00 0.  1.
          5    1    1    2  502    0  0.63356476467E+02  0.23599459120E+02  0.10819105780E+02  0.68630318598E+02  0.47000000000E+01 0. -1.
         -5    1    1    2    0  502 -0.55057905973E+02  0.26078923034E+02 -0.28004062629E+02  0.67214587408E+02  0.47000000000E+01 0. -1.
        -11    1    1    2    0    0  0.39387790338E+02 -0.23482150460E+02 -0.85346142002E+02  0.96885362013E+02  0.00000000000E+00 0. -1.
         11    1    1    2    0    0 -0.47686360831E+02 -0.26196231695E+02 -0.18517554263E+03  0.19300314285E+03  0.00000000000E+00 0.  1.
<mgrwt>
<rscale>  0 0.12635740E+03</rscale>
<asrwt>0</asrwt>
<pdfrwt beam="1">  1        1 0.10617444E-01 0.13475354E+03</pdfrwt>
<pdfrwt beam="2">  1       -1 0.54880004E-01 0.13475354E+03</pdfrwt>
<totfact> 0.19838132E+03</totfact>
</mgrwt>
</event>
<event>
 6    1  0.1190675E-005  0.5019893E+03  0.7546771E-02  0.1060088E+00
          2   -1    0    0  501    0  0.00000000000E+00  0.00000000000E+00  0.36187290103E+03  0.36187290103E+03  0.00000000000E+00 0. -1.
         -2   -1    0    0    0  501 -0.00000000000E+00 -0.00000000000E+00 -0.29923297793E+03  0.29923297793E+03  0.00000000000E+00 0.  1.
          5    1    1    2  502    0 -0.12378275207E+03  0.16210338690E+03  0.33314389999E+01  0.20404133464E+03  0.47000000000E+01 0. -1.
         -5    1    1    2    0  502  0.19849776609E+03 -0.20890717123E+03  0.12460910446E+03  0.31399536342E+03  0.47000000000E+01 0.  1.
        -11    1    1    2    0    0 -0.73744583057E+02  0.25857938322E+02 -0.39635691364E+01  0.78247085472E+02  0.00000000000E+00 0. -1.
         11    1    1    2    0    0 -0.97043096250E+00  0.20945846013E+02 -0.61337051233E+02  0.64822095426E+02  0.00000000000E+00 0.  1.
<mgrwt>
<rscale>  0 0.35622606E+03</rscale>
<asrwt>0</asrwt>
<pdfrwt beam="1">  1        2 0.55672754E-01 0.50198928E+03</pdfrwt>
<pdfrwt beam="2">  1       -2 0.46035843E-01 0.50198928E+03</pdfrwt>
<totfact> 0.40330184E+02</totfact>
</mgrwt>
</event>
<event>
 6    1  0.1190675E-005  0.1399112E+03  0.7546771E-02  0.1225752E+00
          3   -1    0    0  501    0  0.00000000000E+00  0.00000000000E+00  0.11047316672E+03  0.11047316672E+03  0.00000000000E+00 0. -1.
         -3   -1    0    0    0  501 -0.00000000000E+00 -0.00000000000E+00 -0.14018608057E+03  0.14018608057E+03  0.00000000000E+00 0.  1.
          5    1    1    2  502    0 -0.14325963366E+02  0.45000707317E+02 -0.22169381888E+02  0.52381947069E+02  0.47000000000E+01 0.  1.
         -5    1    1    2    0  502  0.76852356770E+02 -0.38629506182E+02  0.16215473625E+02  0.87655890126E+02  0.47000000000E+01 0.  1.
        -11    1    1    2    0    0  0.12452688769E+02 -0.82102674245E+01 -0.31864832823E+02  0.35183028857E+02  0.00000000000E+00 0.  1.
         11    1    1    2    0    0 -0.74979082174E+02  0.18390662891E+01  0.81058272447E+01  0.75438381238E+02  0.00000000000E+00 0. -1.
<mgrwt>
<rscale>  0 0.13115515E+03</rscale>
<asrwt>0</asrwt>
<pdfrwt beam="1">  1        3 0.16995872E-01 0.13991121E+03</pdfrwt>
<pdfrwt beam="2">  1       -3 0.21567089E-01 0.13991121E+03</pdfrwt>
<totfact> 0.13550956E+03</totfact>
</mgrwt>
</event>
<event>
 6    1  0.1190675E-005  0.1356032E+03  0.7546771E-02  0.1231234E+00
         -3   -1    0    0    0  501 -0.00000000000E+00  0.00000000000E+00  0.29514574884E+02  0.29514574884E+02  0.00000000000E+00 0.  1.
          3   -1    0    0  501    0  0.00000000000E+00 -0.00000000000E+00 -0.49514829381E+03  0.49514829381E+03  0.00000000000E+00 0. -1.
          5    1    1    2  502    0 -0.58501366941E+02 -0.42741916642E+01 -0.20418801987E+03  0.21249827318E+03  0.47000000000E+01 0.  1.
         -5    1    1    2    0  502  0.34163446757E+02  0.50959117952E+02 -0.68712786822E+02  0.92236163567E+02  0.47000000000E+01 0.  1.
        -11    1    1    2    0    0  0.57528040686E+02 -0.18492197574E+02 -0.90642621116E+02  0.10893815493E+03  0.00000000000E+00 0.  1.
         11    1    1    2    0    0 -0.33190120502E+02 -0.28192728713E+02 -0.10209029112E+03  0.11099027702E+03  0.00000000000E+00 0. -1.
<mgrwt>
<rscale>  0 0.12748639E+03</rscale>
<asrwt>0</asrwt>
<pdfrwt beam="2">  1        3 0.76176665E-01 0.13560320E+03</pdfrwt>
<pdfrwt beam="1">  1       -3 0.45407035E-02 0.13560320E+03</pdfrwt>
<totfact> 0.10179418E+03</totfact>
</mgrwt>
</event>
<event>
 6    1  0.1190675E-005  0.2908482E+03  0.7546771E-02  0.1089907E+00
          1   -1    0    0  501    0  0.00000000000E+00  0.00000000000E+00  0.49741985616E+03  0.49741985616E+03  0.00000000000E+00 0. -1.
         -1   -1    0    0    0  501 -0.00000000000E+00 -0.00000000000E+00 -0.42515717640E+02  0.42515717640E+02  0.00000000000E+00 0.  1.
          5    1    1    2  502    0 -0.98682864166E-01  0.15809119337E+01 -0.14626234857E+02  0.15444279425E+02  0.47000000000E+01 0.  1.
         -5    1    1    2    0  502  0.84316709314E+02 -0.48918967019E+02  0.24668737267E+03  0.26529063806E+03  0.47000000000E+01 0.  1.
        -11    1    1    2    0    0 -0.72748212276E+02 -0.28309625389E+01  0.84177157082E+02  0.11129290414E+03  0.00000000000E+00 0.  1.
         11    1    1    2    0    0 -0.11469814174E+02  0.50169017624E+02  0.13866584362E+03  0.14790775218E+03  0.00000000000E+00 0. -1.
<mgrwt>
<rscale>  0 0.29084815E+03</rscale>
<asrwt>0</asrwt>
<pdfrwt beam="1">  1        1 0.76526128E-01 0.29084815E+03</pdfrwt>
<pdfrwt beam="2">  1       -1 0.65408800E-02 0.29084815E+03</pdfrwt>
<totfact> 0.53157959E+03</totfact>
</mgrwt>
</event>
<event>
 6    1  0.1190675E-005  0.1263396E+03  0.7546771E-02  0.1247515E+00
          2   -1    0    0  501    0  0.00000000000E+00  0.00000000000E+00  0.28388711124E+03  0.28388711124E+03  0.00000000000E+00 0. -1.
         -2   -1    0    0    0  501 -0.00000000000E+00 -0.00000000000E+00 -0.43605331448E+02  0.43605331448E+02  0.00000000000E+00 0.  1.
          5    1    1    2  502    0  0.36158939156E+02  0.39998335760E+02  0.15417728447E+03  0.16340153240E+03  0.47000000000E+01 0. -1.
         -5    1    1    2    0  502 -0.32802585388E+02 -0.22055954275E+02  0.54577492453E+01  0.40178996428E+02  0.47000000000E+01 0. -1.
        -11    1    1    2    0    0  0.28713211432E+01 -0.39903314917E+02  0.90576898440E+02  0.99018652574E+02  0.00000000000E+00 0. -1.
         11    1    1    2    0    0 -0.62276749116E+01  0.21960933432E+02 -0.99301523554E+01  0.24893261294E+02  0.00000000000E+00 0.  1.
<mgrwt>
<rscale>  0 0.11736108E+03</rscale>
<asrwt>0</asrwt>
<pdfrwt beam="1">  1        2 0.43674939E-01 0.12633957E+03</pdfrwt>
<pdfrwt beam="2">  1       -2 0.67085127E-02 0.12633957E+03</pdfrwt>
<totfact> 0.13513571E+04</totfact>
</mgrwt>
</event>
<event>
 6    1  0.1190675E-005  0.3422182E+03  0.7546771E-02  0.1065855E+00
         -2   -1    0    0    0  501 -0.00000000000E+00  0.00000000000E+00  0.33502354065E+02  0.33502354065E+02  0.00000000000E+00 0.  1.
          2   -1    0    0  501    0  0.00000000000E+00 -0.00000000000E+00 -0.87391843515E+03  0.87391843515E+03  0.00000000000E+00 0. -1.
          5    1    1    2  502    0  0.11622253916E+02  0.79763420217E+01 -0.27082522376E+03  0.27123253979E+03  0.47000000000E+01 0.  1.
         -5    1    1    2    0  502  0.10576140169E+03  0.52375620099E+02 -0.18470759369E+03  0.21924339177E+03  0.47000000000E+01 0.  1.
        -11    1    1    2    0    0 -0.40747632082E+02 -0.10137168771E+02 -0.25238191586E+03  0.25585105660E+03  0.00000000000E+00 0.  1.
         11    1    1    2    0    0 -0.76636023529E+02 -0.50214793349E+02 -0.13250134777E+03  0.16109380105E+03  0.00000000000E+00 0. -1.
<mgrwt>
<rscale>  0 0.34221820E+03</rscale>
<asrwt>0</asrwt>
<pdfrwt beam="2">  1        2 0.13444898E+00 0.34221820E+03</pdfrwt>
<pdfrwt beam="1">  1       -2 0.51542088E-02 0.34221820E+03</pdfrwt>
<totfact> 0.59300530E+03</totfact>
</mgrwt>
</event>
<event>
 6    1  0.1190675E-005  0.1502860E+03  0.7546771E-02  0.1210357E+00
         -2   -1    0    0    0  501 -0.00000000000E+00  0.00000000000E+00  0.39898331921E+02  0.39898331921E+02  0.00000000000E+00 0. -1.
          2   -1    0    0  501    0  0.00000000000E+00 -0.00000000000E+00 -0.54297115220E+03  0.54297115220E+03  0.00000000000E+00 0.  1.
          5    1    1    2  502    0 -0.19832649477E+01  0.95870488172E+02 -0.22307693085E+03  0.24285899390E+03  0.47000000000E+01 0.  1.
         -5    1    1    2    0  502 -0.45255720687E+02 -0.27122877457E+02 -0.16538205073E+03  0.17365783438E+03  0.47000000000E+01 0.  1.
        -11    1    1    2    0    0  0.47922339335E+01 -0.65286834147E+02 -0.10328673684E+03  0.12228444802E+03  0.00000000000E+00 0. -1.
         11    1    1    2    0    0  0.42446751701E+02 -0.34607765677E+01 -0.11327101854E+02  0.44068207824E+02  0.00000000000E+00 0.  1.
<mgrwt>
<rscale>  0 0.14223216E+03</rscale>
<asrwt>0</asrwt>
<pdfrwt beam="2">  1        2 0.83534025E-01 0.15028602E+03</pdfrwt>
<pdfrwt beam="1">  1       -2 0.61382048E-02 0.15028602E+03</pdfrwt>
<totfact> 0.78017547E+03</totfact>
</mgrwt>
</event>
<event>
 6    1  0.1190675E-005  0.4426082E+03  0.7546771E-02  0.1029950E+00
         -2   -1    0    0    0  501 -0.00000000000E+00  0.00000000000E+00  0.25103344080E+03  0.25103344080E+03  0.00000000000E+00 0.  1.
          2   -1    0    0  501    0  0.00000000000E+00 -0.00000000000E+00 -0.19509555377E+03  0.19509555377E+03  0.00000000000E+00 0. -1.
          5    1    1    2  502    0  0.17941625776E+02 -0.16079107769E+03 -0.10939826853E+03  0.19536054811E+03  0.47000000000E+01 0.  1.
         -5    1    1    2    0  502  0.57705416859E+01  0.10993918691E+02  0.17196983625E+02  0.21725368704E+02  0.47000000000E+01 0.  1.
        -11    1    1    2    0    0 -0.39565709560E+02  0.12830393905E+03  0.15114299421E+03  0.20216713593E+03  0.00000000000E+00 0.  1.
         11    1    1    2    0    0  0.15853542098E+02  0.21493219947E+02 -0.30038222747E+01  0.26875941826E+02  0.00000000000E+00 0. -1.
<mgrwt>
<rscale>  0 0.44260822E+03</rscale>
<asrwt>0</asrwt>
<pdfrwt beam="2">  1        2 0.30014701E-01 0.44260822E+03</pdfrwt>
<pdfrwt beam="1">  1       -2 0.38620529E-01 0.44260822E+03</pdfrwt>
<totfact> 0.11253058E+03</totfact>
</mgrwt>
</event>
<event>
 6    1  0.1190675E-005  0.3092364E+03  0.7546771E-02  0.1080712E+00
         -1   -1    0    0    0  501 -0.00000000000E+00  0.00000000000E+00  0.10669621365E+02  0.10669621365E+02  0.00000000000E+00 0.  1.
          1   -1    0    0  501    0  0.00000000000E+00 -0.00000000000E+00 -0.22406413100E+04  0.22406413100E+04  0.00000000000E+00 0. -1.
          5    1    1    2  502    0 -0.19109181568E+02 -0.55973204655E+01 -0.29845884034E+02  0.36185046778E+02  0.47000000000E+01 0. -1.
         -5    1    1    2    0  502 -0.80274487450E+02 -0.26087247965E+02 -0.14801257477E+04  0.14825379782E+04  0.47000000000E+01 0. -1.
        -11    1    1    2    0    0  0.50420815737E+02 -0.27653372860E+02 -0.26958784827E+03  0.27565299857E+03  0.00000000000E+00 0.  1.
         11    1    1    2    0    0  0.48962853281E+02  0.59337941290E+02 -0.45041220868E+03  0.45693490784E+03  0.00000000000E+00 0. -1.
<mgrwt>
<rscale>  0 0.30923644E+03</rscale>
<asrwt>0</asrwt>
<pdfrwt beam="2">  1        1 0.34471404E+00 0.30923644E+03</pdfrwt>
<pdfrwt beam="1">  1       -1 0.16414803E-02 0.30923644E+03</pdfrwt>
<totfact> 0.21480243E+03</totfact>
</mgrwt>
</event>
<event>
 6    1  0.1190675E-005  0.3155788E+03  0.7546771E-02  0.1077702E+00
         -1   -1    0    0    0  501 -0.00000000000E+00  0.00000000000E+00  0.12830632448E+02  0.12830632448E+02  0.00000000000E+00 0.  1.
          1   -1    0    0  501    0  0.00000000000E+00 -0.00000000000E+00 -0.19404725285E+04  0.19404725285E+04  0.00000000000E+00 0. -1.
          5    1    1    2  502    0  0.26747865493E+02 -0.65823252162E+02 -0.44035030292E+03  0.44607020536E+03  0.47000000000E+01 0.  1.
         -5    1    1    2    0  502  0.39460984240E+00  0.13685300461E+02 -0.11995275849E+04  0.11996149216E+04  0.47000000000E+01 0.  1.
        -11    1    1    2    0    0 -0.57877859616E+02  0.46399498504E+02 -0.16453201492E+03  0.18048142295E+03  0.00000000000E+00 0.  1.
         11    1    1    2    0    0  0.30735384280E+02  0.57384531967E+01 -0.12323199324E+03  0.12713661097E+03  0.00000000000E+00 0. -1.
<mgrwt>
<rscale>  0 0.31557877E+03</rscale>
<asrwt>0</asrwt>
<pdfrwt beam="2">  1        1 0.29853405E+00 0.31557877E+03</pdfrwt>
<pdfrwt beam="1">  1       -1 0.19739447E-02 0.31557877E+03</pdfrwt>
<totfact> 0.25744316E+03</totfact>
</mgrwt>
</event>
<event>
 6    1  0.1190675E-005  0.1327858E+03  0.7546771E-02  0.1238857E+00
         -2   -1    0    0    0  501 -0.00000000000E+00  0.00000000000E+00  0.45564027464E+02  0.45564027464E+02  0.00000000000E+00 0.  1.
          2   -1    0    0  501    0  0.00000000000E+00 -0.00000000000E+00 -0.34008674109E+03  0.34008674109E+03  0.00000000000E+00 0. -1.
          5    1    1    2  502    0  0.36893988570E+02  0.55390720026E+00 -0.25871173050E+02  0.45308727644E+02  0.47000000000E+01 0.  1.
         -5    1    1    2    0  502 -0.79391985388E+02 -0.14737698066E+02 -0.21544950139E+03  0.23013227661E+03  0.47000000000E+01 0.  1.
        -11    1    1    2    0    0  0.54117148318E+02 -0.16060704072E+02 -0.11856489609E+02  0.57681784848E+02  0.00000000000E+00 0.  1.
         11    1    1    2    0    0 -0.11619151500E+02  0.30244494938E+02 -0.41345549579E+02  0.52527979455E+02  0.00000000000E+00 0. -1.
<mgrwt>
<rscale>  0 0.12260720E+03</rscale>
<asrwt>0</asrwt>
<pdfrwt beam="2">  1        2 0.52321035E-01 0.13278584E+03</pdfrwt>
<pdfrwt beam="1">  1       -2 0.70098506E-02 0.13278584E+03</pdfrwt>
<totfact> 0.10480492E+04</totfact>
</mgrwt>
</event>
<event>
 6    1  0.1190675E-005  0.1597585E+03  0.7546771E-02  0.1196566E+00
          2   -1    0    0  501    0  0.00000000000E+00  0.00000000000E+00  0.73920838888E+03  0.73920838888E+03  0.00000000000E+00 0. -1.
         -2   -1    0    0    0  501 -0.00000000000E+00 -0.00000000000E+00 -0.32450785296E+02  0.32450785296E+02  0.00000000000E+00 0.  1.
          5    1    1    2  502    0  0.17875478156E+02  0.41606485828E+02  0.88978768487E+02  0.99949705471E+02  0.47000000000E+01 0.  1.
         -5    1    1    2    0  502 -0.10795162418E+03  0.67661074789E+00  0.40864062225E+03  0.42268576876E+03  0.47000000000E+01 0.  1.
        -11    1    1    2    0    0  0.45040651075E+02 -0.59710025717E+02  0.72747375643E+02  0.10433660951E+03  0.00000000000E+00 0.  1.
         11    1    1    2    0    0  0.45035494948E+02  0.17426929141E+02  0.13639083720E+03  0.14468709043E+03  0.00000000000E+00 0. -1.
<mgrwt>
<rscale>  0 0.15322415E+03</rscale>
<asrwt>0</asrwt>
<pdfrwt beam="1">  1        2 0.11372436E+00 0.15975851E+03</pdfrwt>
<pdfrwt beam="2">  1       -2 0.49924290E-02 0.15975851E+03</pdfrwt>
<totfact> 0.74790227E+03</totfact>
</mgrwt>
</event>
<event>
 6    1  0.1190675E-005  0.1534356E+03  0.7546771E-02  0.1204743E+00
         -2   -1    0    0    0  501 -0.00000000000E+00  0.00000000000E+00  0.31340351795E+02  0.31340351795E+02  0.00000000000E+00 0.  1.
          2   -1    0    0  501    0  0.00000000000E+00 -0.00000000000E+00 -0.72677352932E+03  0.72677352932E+03  0.00000000000E+00 0. -1.
          5    1    1    2  502    0  0.11107004721E+02 -0.38881740251E+02 -0.31460559261E+02  0.51449121157E+02  0.47000000000E+01 0.  1.
         -5    1    1    2    0  502  0.66531550564E+01 -0.48314760738E+02 -0.48098580442E+03  0.48347493692E+03  0.47000000000E+01 0.  1.
        -11    1    1    2    0    0 -0.39280238605E+02  0.45499676184E+01 -0.37544340113E+02  0.54527211782E+02  0.00000000000E+00 0.  1.
         11    1    1    2    0    0  0.21520078827E+02  0.82646533370E+02 -0.14544247374E+03  0.16866261126E+03  0.00000000000E+00 0. -1.
<mgrwt>
<rscale>  0 0.14657713E+03</rscale>
<asrwt>0</asrwt>
<pdfrwt beam="2">  1        2 0.11181131E+00 0.15343556E+03</pdfrwt>
<pdfrwt beam="1">  1       -2 0.48215927E-02 0.15343556E+03</pdfrwt>
<totfact> 0.80278947E+03</totfact>
</mgrwt>
</event>
<event>
 6    1  0.1190675E-005  0.1591042E+03  0.7546771E-02  0.1197579E+00
         -1   -1    0    0    0  501 -0.00000000000E+00  0.00000000000E+00  0.53999508984E+02  0.53999508984E+02  0.00000000000E+00 0.  1.
          1   -1    0    0  501    0  0.00000000000E+00 -0.00000000000E+00 -0.40022791311E+03  0.40022791311E+03  0.00000000000E+00 0. -1.
          5    1    1    2  502    0  0.78767190937E+02 -0.56135198336E+02 -0.66667879792E+02  0.11756754253E+03  0.47000000000E+01 0.  1.
         -5    1    1    2    0  502  0.19289696057E+02  0.47559522438E+02 -0.10212229501E+03  0.11438991951E+03  0.47000000000E+01 0.  1.
        -11    1    1    2    0    0 -0.15424571058E+00 -0.26763455712E+02 -0.57773160737E+02  0.63671378616E+02  0.00000000000E+00 0.  1.
         11    1    1    2    0    0 -0.97902641283E+02  0.35339131610E+02 -0.11966506859E+03  0.15859858143E+03  0.00000000000E+00 0. -1.
<mgrwt>
<rscale>  0 0.15237975E+03</rscale>
<asrwt>0</asrwt>
<pdfrwt beam="2">  1        1 0.61573527E-01 0.15910418E+03</pdfrwt>
<pdfrwt beam="1">  1       -1 0.83076166E-02 0.15910418E+03</pdfrwt>
<totfact> 0.47740932E+03</totfact>
</mgrwt>
</event>
<event>
 6    1  0.1190675E-005  0.2426595E+03  0.7546771E-02  0.1118034E+00
         -2   -1    0    0    0  501 -0.00000000000E+00  0.00000000000E+00  0.17851765512E+03  0.17851765512E+03  0.00000000000E+00 0.  1.
          2   -1    0    0  501    0  0.00000000000E+00 -0.00000000000E+00 -0.82461894754E+02  0.82461894754E+02  0.00000000000E+00 0. -1.
          5    1    1    2  502    0 -0.57016240667E+01  0.17310958192E+02 -0.43162035210E+02  0.47087461962E+02  0.47000000000E+01 0. -1.
         -5    1    1    2    0  502  0.96212963296E+01 -0.46666571999E+02  0.68321719300E+02  0.83428326205E+02  0.47000000000E+01 0. -1.
        -11    1    1    2    0    0 -0.46066356782E+02 -0.52145573356E+01  0.76824159358E+01  0.46992769125E+02  0.00000000000E+00 0. -1.
         11    1    1    2    0    0  0.42146684519E+02  0.34570171143E+02  0.63213660336E+02  0.83470992578E+02  0.00000000000E+00 0.  1.
<mgrwt>
<rscale>  0 0.24265947E+03</rscale>
<asrwt>0</asrwt>
<pdfrwt beam="2">  1        2 0.12686445E-01 0.24265947E+03</pdfrwt>
<pdfrwt beam="1">  1       -2 0.27464255E-01 0.24265947E+03</pdfrwt>
<totfact> 0.56512804E+03</totfact>
</mgrwt>
</event>
<event>
 6    1  0.1190675E-005  0.1963328E+03  0.7546771E-02  0.1156632E+00
          2   -1    0    0  501    0  0.00000000000E+00  0.00000000000E+00  0.76451034357E+03  0.76451034357E+03  0.00000000000E+00 0.  1.
         -2   -1    0    0    0  501 -0.00000000000E+00 -0.00000000000E+00 -0.55007614812E+02  0.55007614812E+02  0.00000000000E+00 0. -1.
          5    1    1    2  502    0 -0.21884293245E+02 -0.12909527183E+02  0.49190063500E+02  0.55563751944E+02  0.47000000000E+01 0. -1.
         -5    1    1    2    0  502  0.18922648100E+02  0.16780633097E+03  0.48213771630E+03  0.51087757712E+03  0.47000000000E+01 0.  1.
        -11    1    1    2    0    0 -0.26834133842E+02 -0.11118795392E+02  0.51620371416E+02  0.59231419831E+02  0.00000000000E+00 0.  1.
         11    1    1    2    0    0  0.29795778988E+02 -0.14377800840E+03  0.12655457755E+03  0.19384520949E+03  0.00000000000E+00 0. -1.
<mgrwt>
<rscale>  0 0.19204254E+03</rscale>
<asrwt>0</asrwt>
<pdfrwt beam="1">  1        2 0.11761697E+00 0.19633280E+03</pdfrwt>
<pdfrwt beam="2">  1       -2 0.84627105E-02 0.19633280E+03</pdfrwt>
<totfact> 0.32189204E+03</totfact>
</mgrwt>
</event>
<event>
 6    1  0.1190675E-005  0.1298053E+03  0.7546771E-02  0.1234672E+00
         -1   -1    0    0    0  501 -0.00000000000E+00  0.00000000000E+00  0.22847104791E+02  0.22847104791E+02  0.00000000000E+00 0.  1.
          1   -1    0    0  501    0  0.00000000000E+00 -0.00000000000E+00 -0.70252842966E+03  0.70252842966E+03  0.00000000000E+00 0. -1.
          5    1    1    2  502    0 -0.81457319424E+02 -0.22073499470E+02 -0.41165564869E+03  0.42024397362E+03  0.47000000000E+01 0. -1.
         -5    1    1    2    0  502  0.29082716523E+02 -0.15259750332E+02 -0.55981999136E+02  0.65074869249E+02  0.47000000000E+01 0.  1.
        -11    1    1    2    0    0  0.72280498913E+02  0.31924843375E+01 -0.12429246283E+03  0.14381682376E+03  0.00000000000E+00 0.  1.
         11    1    1    2    0    0 -0.19905896012E+02  0.34140765464E+02 -0.87751214202E+02  0.96239867812E+02  0.00000000000E+00 0. -1.
<mgrwt>
<rscale>  0 0.12525457E+03</rscale>
<asrwt>0</asrwt>
<pdfrwt beam="2">  1        1 0.10808129E+00 0.12980528E+03</pdfrwt>
<pdfrwt beam="1">  1       -1 0.35149393E-02 0.12980528E+03</pdfrwt>
<totfact> 0.80185540E+03</totfact>
</mgrwt>
</event>
<event>
 6    1  0.1190675E-005  0.1370981E+03  0.7546771E-02  0.1228805E+00
          2   -1    0    0  501    0  0.00000000000E+00  0.00000000000E+00  0.12568347205E+04  0.12568347205E+04  0.00000000000E+00 0. -1.
         -2   -1    0    0    0  501 -0.00000000000E+00 -0.00000000000E+00 -0.21929543508E+02  0.21929543508E+02  0.00000000000E+00 0.  1.
          5    1    1    2  502    0  0.83038404396E+02  0.14428528964E+02  0.77069886311E+03  0.77530793022E+03  0.47000000000E+01 0. -1.
         -5    1    1    2    0  502 -0.32195140577E+02 -0.38623068969E+02  0.31707495020E+03  0.32107146024E+03  0.47000000000E+01 0. -1.
        -11    1    1    2    0    0 -0.46430396689E+02 -0.38546132975E+00  0.16328488902E+02  0.49219405391E+02  0.00000000000E+00 0.  1.
         11    1    1    2    0    0 -0.44128671289E+01  0.24580001334E+02  0.13080287476E+03  0.13316546815E+03  0.00000000000E+00 0. -1.
<mgrwt>
<rscale>  0 0.12909474E+03</rscale>
<asrwt>0</asrwt>
<pdfrwt beam="1">  1        2 0.19335913E+00 0.13709814E+03</pdfrwt>
<pdfrwt beam="2">  1       -2 0.33737769E-02 0.13709814E+03</pdfrwt>
<totfact> 0.64429720E+03</totfact>
</mgrwt>
</event>
<event>
 6    1  0.1190675E-005  0.4209393E+03  0.7546771E-02  0.1036761E+00
          2   -1    0    0  501    0  0.00000000000E+00  0.00000000000E+00  0.12574125585E+03  0.12574125585E+03  0.00000000000E+00 0. -1.
         -2   -1    0    0    0  501 -0.00000000000E+00 -0.00000000000E+00 -0.35229065653E+03  0.35229065653E+03  0.00000000000E+00 0.  1.
          5    1    1    2  502    0  0.66262248061E+02  0.70909048090E+02  0.50392906279E+02  0.10945461901E+03  0.47000000000E+01 0.  1.
         -5    1    1    2    0  502  0.25861129023E+01  0.30634227652E+02 -0.58050651754E+02  0.65856754041E+02  0.47000000000E+01 0.  1.
        -11    1    1    2    0    0 -0.96239277910E+02 -0.68388117188E+02 -0.22979840563E+03  0.25835293769E+03  0.00000000000E+00 0.  1.
         11    1    1    2    0    0  0.27390916946E+02 -0.33155158554E+02  0.10906750423E+02  0.44367601633E+02  0.00000000000E+00 0. -1.
<mgrwt>
<rscale>  0 0.42093928E+03</rscale>
<asrwt>0</asrwt>
<pdfrwt beam="1">  1        2 0.19344809E-01 0.42093928E+03</pdfrwt>
<pdfrwt beam="2">  1       -2 0.54198562E-01 0.42093928E+03</pdfrwt>
<totfact> 0.94831554E+02</totfact>
</mgrwt>
</event>
<event>
 6    1  0.1190675E-005  0.1484104E+03  0.7546771E-02  0.1213496E+00
         -2   -1    0    0    0  501 -0.00000000000E+00  0.00000000000E+00  0.24913014812E+02  0.24913014812E+02  0.00000000000E+00 0.  1.
          2   -1    0    0  501    0  0.00000000000E+00 -0.00000000000E+00 -0.72740984535E+03  0.72740984535E+03  0.00000000000E+00 0. -1.
          5    1    1    2  502    0  0.93037410790E+02 -0.54612668510E+02 -0.34503064055E+03  0.36153386603E+03  0.47000000000E+01 0. -1.
         -5    1    1    2    0  502 -0.36227769785E+02  0.16446992017E+02 -0.10837704247E+03  0.11554491847E+03  0.47000000000E+01 0.  1.
        -11    1    1    2    0    0 -0.83358314377E+02  0.27804309216E+02 -0.17403129485E+03  0.19495789231E+03  0.00000000000E+00 0.  1.
         11    1    1    2    0    0  0.26548673372E+02  0.10361367277E+02 -0.75057852673E+02  0.80286183354E+02  0.00000000000E+00 0. -1.
<mgrwt>
<rscale>  0 0.13987603E+03</rscale>
<asrwt>0</asrwt>
<pdfrwt beam="2">  1        2 0.11190919E+00 0.14841038E+03</pdfrwt>
<pdfrwt beam="1">  1       -2 0.38327722E-02 0.14841038E+03</pdfrwt>
<totfact> 0.11279483E+04</totfact>
</mgrwt>
</event>
<event>
 6    1  0.1190675E-005  0.1712354E+03  0.7546771E-02  0.1183193E+00
         -2   -1    0    0    0  501 -0.00000000000E+00  0.00000000000E+00  0.32679584085E+02  0.32679584085E+02  0.00000000000E+00 0.  1.
          2   -1    0    0  501    0  0.00000000000E+00 -0.00000000000E+00 -0.79257936169E+03  0.79257936169E+03  0.00000000000E+00 0. -1.
          5    1    1    2  502    0 -0.10936820222E+03  0.81510714772E+02 -0.38514982401E+03  0.40861703001E+03  0.47000000000E+01 0. -1.
         -5    1    1    2    0  502  0.34278137785E+01 -0.33801134149E+02 -0.79601403963E+02  0.86676064112E+02  0.47000000000E+01 0.  1.
        -11    1    1    2    0    0  0.70727451182E+02 -0.65083626396E+02 -0.13926424088E+03  0.16921223231E+03  0.00000000000E+00 0.  1.
         11    1    1    2    0    0  0.35212937259E+02  0.17374045774E+02 -0.15588430875E+03  0.16075361934E+03  0.00000000000E+00 0. -1.
<mgrwt>
<rscale>  0 0.16497358E+03</rscale>
<asrwt>0</asrwt>
<pdfrwt beam="2">  1        2 0.12193529E+00 0.17123535E+03</pdfrwt>
<pdfrwt beam="1">  1       -2 0.50276283E-02 0.17123535E+03</pdfrwt>
<totfact> 0.68129277E+03</totfact>
</mgrwt>
</event>
<event>
 6    1  0.1190675E-005  0.6208932E+03  0.7546771E-02  0.1007512E+00
         -1   -1    0    0    0  501 -0.00000000000E+00  0.00000000000E+00  0.54184142207E+03  0.54184142207E+03  0.00000000000E+00 0.  1.
          1   -1    0    0  501    0  0.00000000000E+00 -0.00000000000E+00 -0.63896461819E+03  0.63896461819E+03  0.00000000000E+00 0. -1.
          5    1    1    2  502    0  0.25455173217E+03  0.30313417108E+03 -0.27300388063E+03  0.48087432751E+03  0.47000000000E+01 0. -1.
         -5    1    1    2    0  502  0.36783380070E+02 -0.22133059805E+03 -0.13017864385E+03  0.25943943416E+03  0.47000000000E+01 0.  1.
        -11    1    1    2    0    0 -0.19243431523E+03 -0.58613555059E+02  0.26057851759E+03  0.32919246399E+03  0.00000000000E+00 0.  1.
         11    1    1    2    0    0 -0.98900797007E+02 -0.23190017962E+02  0.45480810765E+02  0.11129981460E+03  0.00000000000E+00 0. -1.
<mgrwt>
<rscale>  0 0.52475714E+03</rscale>
<asrwt>0</asrwt>
<pdfrwt beam="2">  1        1 0.98302250E-01 0.62089316E+03</pdfrwt>
<pdfrwt beam="1">  1       -1 0.83360218E-01 0.62089316E+03</pdfrwt>
<totfact> 0.46202641E+01</totfact>
</mgrwt>
</event>
<event>
 6    1  0.1190675E-005  0.1310128E+03  0.7546771E-02  0.1248352E+00
          1   -1    0    0  501    0  0.00000000000E+00  0.00000000000E+00  0.65665609469E+03  0.65665609469E+03  0.00000000000E+00 0. -1.
         -1   -1    0    0    0  501 -0.00000000000E+00 -0.00000000000E+00 -0.17690786969E+02  0.17690786969E+02  0.00000000000E+00 0.  1.
          5    1    1    2  502    0 -0.26400032154E+02 -0.36151541313E+02  0.18831935845E+03  0.19362377541E+03  0.47000000000E+01 0.  1.
         -5    1    1    2    0  502  0.51327485362E+02  0.66443048624E+02  0.24170272021E+03  0.25591304074E+03  0.47000000000E+01 0.  1.
        -11    1    1    2    0    0  0.11524913643E+02 -0.31811497835E+02  0.42033085532E+02  0.53959015080E+02  0.00000000000E+00 0.  1.
         11    1    1    2    0    0 -0.36452366851E+02  0.15199905241E+01  0.16691014354E+03  0.17085105044E+03  0.00000000000E+00 0. -1.
<mgrwt>
<rscale>  0 0.11686972E+03</rscale>
<asrwt>0</asrwt>
<pdfrwt beam="1">  1        1 0.10102400E+00 0.13101283E+03</pdfrwt>
<pdfrwt beam="2">  1       -1 0.27216600E-02 0.13101283E+03</pdfrwt>
<totfact> 0.12809093E+04</totfact>
</mgrwt>
</event>
<event>
 6    1  0.1190675E-005  0.1417533E+03  0.7546771E-02  0.1221173E+00
          3   -1    0    0  501    0  0.00000000000E+00  0.00000000000E+00  0.45582762240E+03  0.45582762240E+03  0.00000000000E+00 0. -1.
         -3   -1    0    0    0  501 -0.00000000000E+00 -0.00000000000E+00 -0.46800770696E+02  0.46800770696E+02  0.00000000000E+00 0.  1.
          5    1    1    2  502    0  0.56665378124E+02  0.36726127717E+02  0.30373060963E+03  0.31118185481E+03  0.47000000000E+01 0. -1.
         -5    1    1    2    0  502  0.98390678282E+01 -0.43523036188E+02  0.38053346468E+02  0.58832041544E+02  0.47000000000E+01 0. -1.
        -11    1    1    2    0    0 -0.13275483874E+02 -0.11569247742E+02  0.73849414517E+02  0.75919839238E+02  0.00000000000E+00 0. -1.
         11    1    1    2    0    0 -0.53228962078E+02  0.18366156213E+02 -0.66065189096E+01  0.56694657509E+02  0.00000000000E+00 0.  1.
<mgrwt>
<rscale>  0 0.13432710E+03</rscale>
<asrwt>0</asrwt>
<pdfrwt beam="1">  1        3 0.70127324E-01 0.14175335E+03</pdfrwt>
<pdfrwt beam="2">  1       -3 0.72001189E-02 0.14175335E+03</pdfrwt>
<totfact> 0.58613574E+02</totfact>
</mgrwt>
</event>
<event>
 6    1  0.1190675E-005  0.1352836E+03  0.7546771E-02  0.1232147E+00
         -1   -1    0    0    0  501 -0.00000000000E+00  0.00000000000E+00  0.32688846332E+02  0.32688846332E+02  0.00000000000E+00 0.  1.
          1   -1    0    0  501    0  0.00000000000E+00 -0.00000000000E+00 -0.50612820060E+03  0.50612820060E+03  0.00000000000E+00 0. -1.
          5    1    1    2  502    0 -0.27960615586E+01  0.48524158139E+02 -0.81910422797E+02  0.95361518687E+02  0.47000000000E+01 0. -1.
         -5    1    1    2    0  502  0.53546281290E+02 -0.58601028972E+02 -0.27741163024E+03  0.28858376155E+03  0.47000000000E+01 0. -1.
        -11    1    1    2    0    0  0.26127181137E+02  0.58812975419E+00 -0.19592830704E+02  0.32662738798E+02  0.00000000000E+00 0.  1.
         11    1    1    2    0    0 -0.76877400869E+02  0.94887410782E+01 -0.94524470522E+02  0.12220902789E+03  0.00000000000E+00 0. -1.
<mgrwt>
<rscale>  0 0.12688856E+03</rscale>
<asrwt>0</asrwt>
<pdfrwt beam="2">  1        1 0.77865878E-01 0.13528356E+03</pdfrwt>
<pdfrwt beam="1">  1       -1 0.50290532E-02 0.13528356E+03</pdfrwt>
<totfact> 0.74193846E+03</totfact>
</mgrwt>
</event>
<event>
 6    1  0.1190675E-005  0.3739480E+03  0.7546771E-02  0.1053194E+00
          1   -1    0    0  501    0  0.00000000000E+00  0.00000000000E+00  0.72853840608E+02  0.72853840608E+02  0.00000000000E+00 0. -1.
         -1   -1    0    0    0  501 -0.00000000000E+00 -0.00000000000E+00 -0.47985485936E+03  0.47985485936E+03  0.00000000000E+00 0.  1.
          5    1    1    2  502    0 -0.10076466673E+03  0.80581052550E+02 -0.39321703068E+02  0.13496336697E+03  0.47000000000E+01 0. -1.
         -5    1    1    2    0  502 -0.11121135843E+02  0.84630659017E+01 -0.98773073779E+02  0.99867478443E+02  0.47000000000E+01 0. -1.
        -11    1    1    2    0    0  0.44758665049E+02 -0.89371644988E+02 -0.18645019051E+03  0.21155212730E+03  0.00000000000E+00 0.  1.
         11    1    1    2    0    0  0.67127137520E+02  0.32752653685E+00 -0.82456051398E+02  0.10632572726E+03  0.00000000000E+00 0. -1.
<mgrwt>
<rscale>  0 0.37394796E+03</rscale>
<asrwt>0</asrwt>
<pdfrwt beam="1">  1        1 0.11208283E-01 0.37394796E+03</pdfrwt>
<pdfrwt beam="2">  1       -1 0.73823823E-01 0.37394796E+03</pdfrwt>
<totfact> 0.10624673E+03</totfact>
</mgrwt>
</event>
<event>
 6    1  0.1190675E-005  0.3953637E+03  0.7546771E-02  0.1045397E+00
         -3   -1    0    0    0  501 -0.00000000000E+00  0.00000000000E+00  0.13728248092E+03  0.13728248092E+03  0.00000000000E+00 0.  1.
          3   -1    0    0  501    0  0.00000000000E+00 -0.00000000000E+00 -0.28465483119E+03  0.28465483119E+03  0.00000000000E+00 0. -1.
          5    1    1    2  502    0 -0.14488831477E+02 -0.41935398593E+02 -0.11587577098E+03  0.12416838645E+03  0.47000000000E+01 0. -1.
         -5    1    1    2    0  502 -0.11318950190E+03  0.19792153086E+02 -0.70108557634E+02  0.13468813058E+03  0.47000000000E+01 0. -1.
        -11    1    1    2    0    0  0.63568474551E+02  0.49628789659E+02  0.46155191204E+02  0.92920769448E+02  0.00000000000E+00 0. -1.
         11    1    1    2    0    0  0.64109858828E+02 -0.27485544152E+02 -0.75432128593E+01  0.70160025631E+02  0.00000000000E+00 0.  1.
<mgrwt>
<rscale>  0 0.39536374E+03</rscale>
<asrwt>0</asrwt>
<pdfrwt beam="2">  1        3 0.43793051E-01 0.39536374E+03</pdfrwt>
<pdfrwt beam="1">  1       -3 0.21120382E-01 0.39536374E+03</pdfrwt>
<totfact> 0.27602307E+02</totfact>
</mgrwt>
</event>
<event>
 6    1  0.1190675E-005  0.1345140E+03  0.7546771E-02  0.1233088E+00
         -2   -1    0    0    0  501 -0.00000000000E+00  0.00000000000E+00  0.34662030207E+02  0.34662030207E+02  0.00000000000E+00 0. -1.
          2   -1    0    0  501    0  0.00000000000E+00 -0.00000000000E+00 -0.42027723175E+03  0.42027723175E+03  0.00000000000E+00 0.  1.
          5    1    1    2  502    0 -0.16727153818E+02 -0.85246136019E+02 -0.11904276568E+03  0.14744480812E+03  0.47000000000E+01 0.  1.
         -5    1    1    2    0  502 -0.48163051830E-01  0.38474062804E+02 -0.12934009905E+03  0.13502298712E+03  0.47000000000E+01 0.  1.
        -11    1    1    2    0    0  0.41980460016E+02  0.25921231496E+02 -0.12989135125E+03  0.13894614926E+03  0.00000000000E+00 0.  1.
         11    1    1    2    0    0 -0.25205143146E+02  0.20850841720E+02 -0.73409855642E+01  0.33525317455E+02  0.00000000000E+00 0. -1.
<mgrwt>
<rscale>  0 0.12627635E+03</rscale>
<asrwt>0</asrwt>
<pdfrwt beam="2">  1        2 0.64658033E-01 0.13451397E+03</pdfrwt>
<pdfrwt beam="1">  1       -2 0.53326203E-02 0.13451397E+03</pdfrwt>
<totfact> 0.12678523E+04</totfact>
</mgrwt>
</event>
<event>
 6    1  0.1190675E-005  0.1524510E+03  0.7546771E-02  0.1206415E+00
         -2   -1    0    0    0  501 -0.00000000000E+00  0.00000000000E+00  0.25782330194E+02  0.25782330194E+02  0.00000000000E+00 0.  1.
          2   -1    0    0  501    0  0.00000000000E+00 -0.00000000000E+00 -0.89368320273E+03  0.89368320273E+03  0.00000000000E+00 0. -1.
          5    1    1    2  502    0 -0.52477719221E+01  0.47450934423E+02 -0.20154833980E+03  0.20717855479E+03  0.47000000000E+01 0.  1.
         -5    1    1    2    0  502 -0.79738684844E+02 -0.67329780039E+02 -0.45103006355E+03  0.46297058801E+03  0.47000000000E+01 0.  1.
        -11    1    1    2    0    0  0.45457879755E+02  0.10977615791E+02 -0.21797313624E+02  0.51595055592E+02  0.00000000000E+00 0.  1.
         11    1    1    2    0    0  0.39528577011E+02  0.89012298249E+01 -0.19352515556E+03  0.19772133453E+03  0.00000000000E+00 0. -1.
<mgrwt>
<rscale>  0 0.14526543E+03</rscale>
<asrwt>0</asrwt>
<pdfrwt beam="2">  1        2 0.13748973E+00 0.15245098E+03</pdfrwt>
<pdfrwt beam="1">  1       -2 0.39665123E-02 0.15245098E+03</pdfrwt>
<totfact> 0.82914961E+03</totfact>
</mgrwt>
</event>
<event>
 6    1  0.1190675E-005  0.1391936E+03  0.7546771E-02  0.1225330E+00
          1   -1    0    0  501    0  0.00000000000E+00  0.00000000000E+00  0.23954969843E+03  0.23954969843E+03  0.00000000000E+00 0. -1.
         -1   -1    0    0    0  501 -0.00000000000E+00 -0.00000000000E+00 -0.91720899960E+02  0.91720899960E+02  0.00000000000E+00 0.  1.
          5    1    1    2  502    0  0.13922484392E+02 -0.39136864160E+02  0.13125544279E+03  0.13775199080E+03  0.47000000000E+01 0.  1.
         -5    1    1    2    0  502  0.45075195214E+02  0.55627472128E+02  0.37364447066E+02  0.80897347197E+02  0.47000000000E+01 0.  1.
        -11    1    1    2    0    0 -0.13820598369E+02 -0.13426410817E+02 -0.53433235609E+02  0.56801303809E+02  0.00000000000E+00 0.  1.
         11    1    1    2    0    0 -0.45177081237E+02 -0.30641971505E+01  0.32642144219E+02  0.55819956579E+02  0.00000000000E+00 0. -1.
<mgrwt>
<rscale>  0 0.13144292E+03</rscale>
<asrwt>0</asrwt>
<pdfrwt beam="1">  1        1 0.36853799E-01 0.13919363E+03</pdfrwt>
<pdfrwt beam="2">  1       -1 0.14110908E-01 0.13919363E+03</pdfrwt>
<totfact> 0.39802203E+03</totfact>
</mgrwt>
</event>
<event>
 6    1  0.1190675E-005  0.1396297E+03  0.7546771E-02  0.1217759E+00
         -2   -1    0    0    0  501 -0.00000000000E+00  0.00000000000E+00  0.22293724538E+03  0.22293724538E+03  0.00000000000E+00 0.  1.
          2   -1    0    0  501    0  0.00000000000E+00 -0.00000000000E+00 -0.18630954163E+03  0.18630954163E+03  0.00000000000E+00 0. -1.
          5    1    1    2  502    0  0.58803204644E+02  0.17581289185E+02 -0.23243521787E+02  0.65797187712E+02  0.47000000000E+01 0. -1.
         -5    1    1    2    0  502  0.12996643916E+02 -0.61587484901E+02 -0.11217624582E+03  0.12871492212E+03  0.47000000000E+01 0.  1.
        -11    1    1    2    0    0 -0.50189527466E+02  0.67049755803E+02  0.74132010131E+02  0.11184906502E+03  0.00000000000E+00 0. -1.
         11    1    1    2    0    0 -0.21610321094E+02 -0.23043560086E+02  0.97915461228E+02  0.10288561215E+03  0.00000000000E+00 0.  1.
<mgrwt>
<rscale>  0 0.13675834E+03</rscale>
<asrwt>0</asrwt>
<pdfrwt beam="2">  1        2 0.28663006E-01 0.13962968E+03</pdfrwt>
<pdfrwt beam="1">  1       -2 0.34298038E-01 0.13962968E+03</pdfrwt>
<totfact> 0.14432843E+03</totfact>
</mgrwt>
</event>
<event>
 6    1  0.1190675E-005  0.1537520E+03  0.7546771E-02  0.1204418E+00
          1   -1    0    0  501    0  0.00000000000E+00  0.00000000000E+00  0.99626848572E+03  0.99626848572E+03  0.00000000000E+00 0. -1.
         -1   -1    0    0    0  501 -0.00000000000E+00 -0.00000000000E+00 -0.33996915593E+02  0.33996915593E+02  0.00000000000E+00 0.  1.
          5    1    1    2  502    0 -0.68634968358E+00 -0.93435284026E+02  0.32512150357E+03  0.33831450673E+03  0.47000000000E+01 0. -1.
         -5    1    1    2    0  502  0.27099334355E+02  0.78953097760E+01  0.51270656504E+03  0.51350445147E+03  0.47000000000E+01 0. -1.
        -11    1    1    2    0    0 -0.54508478489E+02  0.57940469591E+02  0.49246256298E+02  0.93559959400E+02  0.00000000000E+00 0.  1.
         11    1    1    2    0    0  0.28095493818E+02  0.27599504659E+02  0.75197245215E+02  0.84886483719E+02  0.00000000000E+00 0. -1.
<mgrwt>
<rscale>  0 0.14683456E+03</rscale>
<asrwt>0</asrwt>
<pdfrwt beam="1">  1        1 0.15327205E+00 0.15375196E+03</pdfrwt>
<pdfrwt beam="2">  1       -1 0.52302955E-02 0.15375196E+03</pdfrwt>
<totfact> 0.26196342E+03</totfact>
</mgrwt>
</event>
<event>
 6    1  0.1190675E-005  0.1387903E+03  0.7546771E-02  0.1226908E+00
          2   -1    0    0  501    0  0.00000000000E+00  0.00000000000E+00  0.10679427728E+03  0.10679427728E+03  0.00000000000E+00 0. -1.
         -2   -1    0    0    0  501 -0.00000000000E+00 -0.00000000000E+00 -0.16128143575E+03  0.16128143575E+03  0.00000000000E+00 0.  1.
          5    1    1    2  502    0 -0.15607263034E+02 -0.30878383694E+02 -0.18149282288E+02  0.39351590648E+02  0.47000000000E+01 0. -1.
         -5    1    1    2    0  502  0.31795964933E+02  0.88976154916E+02  0.33165668203E+02  0.10024864626E+03  0.47000000000E+01 0. -1.
        -11    1    1    2    0    0  0.32728478464E+02 -0.21523164065E+02 -0.47459983245E+01  0.39457881266E+02  0.00000000000E+00 0.  1.
         11    1    1    2    0    0 -0.48917180363E+02 -0.36574607157E+02 -0.64757546061E+02  0.89017594863E+02  0.00000000000E+00 0. -1.
<mgrwt>
<rscale>  0 0.13036989E+03</rscale>
<asrwt>0</asrwt>
<pdfrwt beam="1">  1        2 0.16429889E-01 0.13879025E+03</pdfrwt>
<pdfrwt beam="2">  1       -2 0.24812529E-01 0.13879025E+03</pdfrwt>
<totfact> 0.48111890E+03</totfact>
</mgrwt>
</event>
<event>
 6    1  0.1190675E-005  0.3493364E+03  0.7546771E-02  0.1062888E+00
         -2   -1    0    0    0  501 -0.00000000000E+00  0.00000000000E+00  0.54975236887E+02  0.54975236887E+02  0.00000000000E+00 0.  1.
          2   -1    0    0  501    0  0.00000000000E+00 -0.00000000000E+00 -0.55495869805E+03  0.55495869805E+03  0.00000000000E+00 0. -1.
          5    1    1    2  502    0 -0.13442221947E+03  0.96747781873E+01 -0.15650844453E+03  0.20659118479E+03  0.47000000000E+01 0.  1.
         -5    1    1    2    0  502  0.27286386105E+01 -0.43343316164E+02 -0.10329755762E+03  0.11215419714E+03  0.47000000000E+01 0.  1.
        -11    1    1    2    0    0  0.63435169414E+02  0.47811554593E+02 -0.18806962374E+03  0.20415716702E+03  0.00000000000E+00 0. -1.
         11    1    1    2    0    0  0.68258411447E+02 -0.14143016616E+02 -0.52107835268E+02  0.87031385997E+02  0.00000000000E+00 0.  1.
<mgrwt>
<rscale>  0 0.34933643E+03</rscale>
<asrwt>0</asrwt>
<pdfrwt beam="2">  1        2 0.85378259E-01 0.34933643E+03</pdfrwt>
<pdfrwt beam="1">  1       -2 0.84577290E-02 0.34933643E+03</pdfrwt>
<totfact> 0.48042462E+03</totfact>
</mgrwt>
</event>
<event>
 6    1  0.1190675E-005  0.1399880E+03  0.7546771E-02  0.1224217E+00
         -2   -1    0    0    0  501 -0.00000000000E+00  0.00000000000E+00  0.45073169381E+02  0.45073169381E+02  0.00000000000E+00 0.  1.
          2   -1    0    0  501    0  0.00000000000E+00 -0.00000000000E+00 -0.43573585854E+03  0.43573585854E+03  0.00000000000E+00 0. -1.
          5    1    1    2  502    0  0.31135327895E+02 -0.12137313650E+02 -0.15594335568E+03  0.15955294797E+03  0.47000000000E+01 0. -1.
         -5    1    1    2    0  502 -0.94148356676E+02  0.13305473123E+02 -0.16309789441E+03  0.18884904511E+03  0.47000000000E+01 0. -1.
        -11    1    1    2    0    0  0.81650557189E+01  0.20424422841E+02  0.15719982904E+02  0.27035958385E+02  0.00000000000E+00 0.  1.
         11    1    1    2    0    0  0.54847973062E+02 -0.21592582315E+02 -0.87341421972E+02  0.10537107645E+03  0.00000000000E+00 0. -1.
<mgrwt>
<rscale>  0 0.13220700E+03</rscale>
<asrwt>0</asrwt>
<pdfrwt beam="2">  1        2 0.67036286E-01 0.13998796E+03</pdfrwt>
<pdfrwt beam="1">  1       -2 0.69343338E-02 0.13998796E+03</pdfrwt>
<totfact> 0.82082797E+03</totfact>
</mgrwt>
</event>
<event>
 6    1  0.1190675E-005  0.2535674E+03  0.7546771E-02  0.1111071E+00
          1   -1    0    0  501    0  0.00000000000E+00  0.00000000000E+00  0.26855955147E+03  0.26855955147E+03  0.00000000000E+00 0. -1.
         -1   -1    0    0    0  501 -0.00000000000E+00 -0.00000000000E+00 -0.59853021803E+02  0.59853021803E+02  0.00000000000E+00 0.  1.
          5    1    1    2  502    0 -0.47191472791E+00 -0.67761631111E+01 -0.25560123289E+02  0.26861663995E+02  0.47000000000E+01 0. -1.
         -5    1    1    2    0  502  0.55119502565E+02  0.18271566674E+02  0.13976455014E+03  0.15142070264E+03  0.47000000000E+01 0. -1.
        -11    1    1    2    0    0 -0.35279159326E+02  0.39134219785E+02  0.16634851062E+02  0.55252371087E+02  0.00000000000E+00 0.  1.
         11    1    1    2    0    0 -0.19368428511E+02 -0.50629623348E+02  0.77867251758E+02  0.94877835555E+02  0.00000000000E+00 0. -1.
<mgrwt>
<rscale>  0 0.25356735E+03</rscale>
<asrwt>0</asrwt>
<pdfrwt beam="1">  1        1 0.41316853E-01 0.25356735E+03</pdfrwt>
<pdfrwt beam="2">  1       -1 0.92081573E-02 0.25356735E+03</pdfrwt>
<totfact> 0.69048417E+03</totfact>
</mgrwt>
</event>
<event>
 6    1  0.1190675E-005  0.1572804E+03  0.7546771E-02  0.1200020E+00
          2   -1    0    0  501    0  0.00000000000E+00  0.00000000000E+00  0.78986867788E+02  0.78986867788E+02  0.00000000000E+00 0. -1.
         -2   -1    0    0    0  501 -0.00000000000E+00 -0.00000000000E+00 -0.26633814759E+03  0.26633814759E+03  0.00000000000E+00 0.  1.
          5    1    1    2  502    0  0.65066361094E+02  0.40015969676E+02 -0.58697590104E+02  0.96448982675E+02  0.47000000000E+01 0.  1.
         -5    1    1    2    0  502 -0.55230698777E+02  0.54926957944E+02 -0.26418777969E+02  0.82385937063E+02  0.47000000000E+01 0.  1.
        -11    1    1    2    0    0  0.58489638817E+01 -0.46137935000E+02 -0.10532270461E+03  0.11513379838E+03  0.00000000000E+00 0.  1.
         11    1    1    2    0    0 -0.15684626199E+02 -0.48804992620E+02  0.30877928722E+01  0.51356297262E+02  0.00000000000E+00 0. -1.
<mgrwt>
<rscale>  0 0.15036891E+03</rscale>
<asrwt>0</asrwt>
<pdfrwt beam="1">  1        2 0.12151826E-01 0.15728043E+03</pdfrwt>
<pdfrwt beam="2">  1       -2 0.40975099E-01 0.15728043E+03</pdfrwt>
<totfact> 0.27758107E+03</totfact>
</mgrwt>
</event>
<event>
 6    1  0.1190675E-005  0.1413487E+03  0.7546771E-02  0.1221823E+00
          2   -1    0    0  501    0  0.00000000000E+00  0.00000000000E+00  0.60210904248E+03  0.60210904248E+03  0.00000000000E+00 0. -1.
         -2   -1    0    0    0  501 -0.00000000000E+00 -0.00000000000E+00 -0.43423861957E+02  0.43423861957E+02  0.00000000000E+00 0.  1.
          5    1    1    2  502    0 -0.55700431371E+02  0.40456653136E+01  0.95972565333E+02  0.11113833164E+03  0.47000000000E+01 0.  1.
         -5    1    1    2    0  502  0.17610896154E+02 -0.57945458322E+02  0.39987582642E+03  0.40446333129E+03  0.47000000000E+01 0.  1.
        -11    1    1    2    0    0  0.29091594005E+02 -0.22054663100E+02  0.27344390710E+02  0.45611892194E+02  0.00000000000E+00 0.  1.
         11    1    1    2    0    0  0.89979412118E+01  0.75954456108E+02  0.35492398060E+02  0.84319349314E+02  0.00000000000E+00 0. -1.
<mgrwt>
<rscale>  0 0.13387023E+03</rscale>
<asrwt>0</asrwt>
<pdfrwt beam="1">  1        2 0.92632154E-01 0.14134867E+03</pdfrwt>
<pdfrwt beam="2">  1       -2 0.66805946E-02 0.14134867E+03</pdfrwt>
<totfact> 0.60806796E+03</totfact>
</mgrwt>
</event>
<event>
 6    1  0.1190675E-005  0.5447340E+03  0.7546771E-02  0.1002720E+00
          1   -1    0    0  501    0  0.00000000000E+00  0.00000000000E+00  0.19554865344E+03  0.19554865344E+03  0.00000000000E+00 0. -1.
         -1   -1    0    0    0  501 -0.00000000000E+00 -0.00000000000E+00 -0.37936233058E+03  0.37936233058E+03  0.00000000000E+00 0.  1.
          5    1    1    2  502    0 -0.48046645527E+02  0.39569014254E+02  0.50856200341E+02  0.80514782174E+02  0.47000000000E+01 0. -1.
         -5    1    1    2    0  502  0.13843262575E+03  0.50996941296E+02 -0.60946816676E+02  0.15968996323E+03  0.47000000000E+01 0.  1.
        -11    1    1    2    0    0 -0.13884024064E+03 -0.14103617163E+03 -0.70671358121E+02  0.21014817389E+03  0.00000000000E+00 0.  1.
         11    1    1    2    0    0  0.48454260417E+02  0.50470216084E+02 -0.10305170268E+03  0.12455806473E+03  0.00000000000E+00 0. -1.
<mgrwt>
<rscale>  0 0.54473404E+03</rscale>
<asrwt>0</asrwt>
<pdfrwt beam="1">  1        1 0.30084408E-01 0.54473404E+03</pdfrwt>
<pdfrwt beam="2">  1       -1 0.58363435E-01 0.54473404E+03</pdfrwt>
<totfact> 0.46130192E+02</totfact>
</mgrwt>
</event>
<event>
 6    1  0.1190675E-005  0.1571328E+03  0.7546771E-02  0.1199977E+00
         -2   -1    0    0    0  501 -0.00000000000E+00  0.00000000000E+00  0.13267534689E+02  0.13267534689E+02  0.00000000000E+00 0.  1.
          2   -1    0    0  501    0  0.00000000000E+00 -0.00000000000E+00 -0.17596509740E+04  0.17596509740E+04  0.00000000000E+00 0. -1.
          5    1    1    2  502    0 -0.22949797038E+01  0.41488874080E+02 -0.72844560896E+03  0.72964490598E+03  0.47000000000E+01 0. -1.
         -5    1    1    2    0  502 -0.91187405358E+02 -0.23407241798E+02 -0.49978961051E+03  0.50860081266E+03  0.47000000000E+01 0. -1.
        -11    1    1    2    0    0 -0.84544277264E+01  0.19277658060E+02 -0.12719299351E+03  0.12892308965E+03  0.00000000000E+00 0. -1.
         11    1    1    2    0    0  0.10193681279E+03 -0.37359290342E+02 -0.39095522634E+03  0.40574970040E+03  0.00000000000E+00 0.  1.
<mgrwt>
<rscale>  0 0.15040444E+03</rscale>
<asrwt>0</asrwt>
<pdfrwt beam="2">  1        2 0.27071551E+00 0.15713276E+03</pdfrwt>
<pdfrwt beam="1">  1       -2 0.20411593E-02 0.15713276E+03</pdfrwt>
<totfact> 0.73651870E+03</totfact>
</mgrwt>
</event>
<event>
 6    1  0.1190675E-005  0.1314034E+03  0.7546771E-02  0.1238252E+00
         -2   -1    0    0    0  501 -0.00000000000E+00  0.00000000000E+00  0.18543556467E+03  0.18543556467E+03  0.00000000000E+00 0.  1.
          2   -1    0    0  501    0  0.00000000000E+00 -0.00000000000E+00 -0.74046115414E+02  0.74046115414E+02  0.00000000000E+00 0. -1.
          5    1    1    2  502    0  0.35744583766E+02 -0.56456675919E+01 -0.25678599477E+02  0.44620951382E+02  0.47000000000E+01 0.  1.
         -5    1    1    2    0  502 -0.12032362088E+01  0.26843164043E+02  0.10585055996E+03  0.10930889386E+03  0.47000000000E+01 0.  1.
        -11    1    1    2    0    0 -0.29908648863E+02 -0.40323615229E+02 -0.17374455664E+02  0.53126198166E+02  0.00000000000E+00 0. -1.
         11    1    1    2    0    0 -0.46326986944E+01  0.19126118777E+02  0.48591944446E+02  0.52425636684E+02  0.00000000000E+00 0.  1.
<mgrwt>
<rscale>  0 0.12298503E+03</rscale>
<asrwt>0</asrwt>
<pdfrwt beam="2">  1        2 0.11391710E-01 0.13140340E+03</pdfrwt>
<pdfrwt beam="1">  1       -2 0.28528548E-01 0.13140340E+03</pdfrwt>
<totfact> 0.57809841E+03</totfact>
</mgrwt>
</event>
<event>
 6    1  0.1190675E-005  0.1320930E+03  0.7546771E-02  0.1232781E+00
         -2   -1    0    0    0  501 -0.00000000000E+00  0.00000000000E+00  0.10495433571E+03  0.10495433571E+03  0.00000000000E+00 0.  1.
          2   -1    0    0  501    0  0.00000000000E+00 -0.00000000000E+00 -0.16233685270E+03  0.16233685270E+03  0.00000000000E+00 0. -1.
          5    1    1    2  502    0 -0.16673921166E+02  0.18070629175E+02 -0.10465821092E+03  0.10761040098E+03  0.47000000000E+01 0. -1.
         -5    1    1    2    0  502 -0.37788241577E+02  0.86021016924E+01  0.25269480060E+02  0.46503591017E+02  0.47000000000E+01 0.  1.
        -11    1    1    2    0    0  0.19802492945E+02  0.34059110433E+02  0.17490699178E+02  0.43105525030E+02  0.00000000000E+00 0. -1.
         11    1    1    2    0    0  0.34659669798E+02 -0.60731841300E+02  0.45155146938E+01  0.70071671389E+02  0.00000000000E+00 0.  1.
<mgrwt>
<rscale>  0 0.12647575E+03</rscale>
<asrwt>0</asrwt>
<pdfrwt beam="2">  1        2 0.24974900E-01 0.13209297E+03</pdfrwt>
<pdfrwt beam="1">  1       -2 0.16146821E-01 0.13209297E+03</pdfrwt>
<totfact> 0.61855875E+03</totfact>
</mgrwt>
</event>
<event>
 6    1  0.1190675E-005  0.1378440E+03  0.7546771E-02  0.1228088E+00
          2   -1    0    0  501    0  0.00000000000E+00  0.00000000000E+00  0.11013170108E+03  0.11013170108E+03  0.00000000000E+00 0. -1.
         -2   -1    0    0    0  501 -0.00000000000E+00 -0.00000000000E+00 -0.13793007133E+03  0.13793007133E+03  0.00000000000E+00 0.  1.
          5    1    1    2  502    0 -0.17001179189E+02  0.58817672163E+02  0.20655131938E+02  0.64786442470E+02  0.47000000000E+01 0. -1.
         -5    1    1    2    0  502  0.63977356484E+02 -0.24631958867E+02 -0.25010888457E+02  0.73126397981E+02  0.47000000000E+01 0. -1.
        -11    1    1    2    0    0 -0.48404065986E+02 -0.44176305359E+02  0.17623597521E+02  0.67860818952E+02  0.00000000000E+00 0. -1.
         11    1    1    2    0    0  0.14278886908E+01  0.99905920629E+01 -0.41066211251E+02  0.42288113015E+02  0.00000000000E+00 0.  1.
<mgrwt>
<rscale>  0 0.12957455E+03</rscale>
<asrwt>0</asrwt>
<pdfrwt beam="1">  1        2 0.16943339E-01 0.13784404E+03</pdfrwt>
<pdfrwt beam="2">  1       -2 0.21220011E-01 0.13784404E+03</pdfrwt>
<totfact> 0.60785135E+03</totfact>
</mgrwt>
</event>
<event>
 6    1  0.1190675E-005  0.1260750E+03  0.7546771E-02  0.1247890E+00
          1   -1    0    0  501    0  0.00000000000E+00  0.00000000000E+00  0.76915701108E+02  0.76915701108E+02  0.00000000000E+00 0. -1.
         -1   -1    0    0    0  501 -0.00000000000E+00 -0.00000000000E+00 -0.32321449789E+03  0.32321449789E+03  0.00000000000E+00 0.  1.
          5    1    1    2  502    0 -0.56762548157E+01 -0.10796787515E+02  0.65166497163E+02  0.66464673639E+02  0.47000000000E+01 0. -1.
         -5    1    1    2    0  502 -0.31992830933E+01  0.24591013045E+02 -0.54499945521E+02  0.60060697604E+02  0.47000000000E+01 0. -1.
        -11    1    1    2    0    0  0.34834536429E+02 -0.38466252110E+02 -0.19735253304E+03  0.20406155879E+03  0.00000000000E+00 0.  1.
         11    1    1    2    0    0 -0.25958998520E+02  0.24672026581E+02 -0.59612815384E+02  0.69543268961E+02  0.00000000000E+00 0. -1.
<mgrwt>
<rscale>  0 0.11714046E+03</rscale>
<asrwt>0</asrwt>
<pdfrwt beam="1">  1        1 0.11833185E-01 0.12607495E+03</pdfrwt>
<pdfrwt beam="2">  1       -1 0.49725307E-01 0.12607495E+03</pdfrwt>
<totfact> 0.20563526E+03</totfact>
</mgrwt>
</event>
<event>
 6    1  0.1190675E-005  0.1447212E+03  0.7546771E-02  0.1216609E+00
          2   -1    0    0  501    0  0.00000000000E+00  0.00000000000E+00  0.53808676384E+03  0.53808676384E+03  0.00000000000E+00 0. -1.
         -2   -1    0    0    0  501 -0.00000000000E+00 -0.00000000000E+00 -0.35663197226E+02  0.35663197226E+02  0.00000000000E+00 0.  1.
          5    1    1    2  502    0 -0.80131694731E+02  0.63550872911E+02  0.32742134826E+03  0.34305485165E+03  0.47000000000E+01 0.  1.
         -5    1    1    2    0  502  0.29863400377E+02 -0.10707668447E+02  0.36509682240E+02  0.48595511551E+02  0.47000000000E+01 0.  1.
        -11    1    1    2    0    0  0.42623519099E+02 -0.77652988961E+02  0.85618894604E+02  0.12319637246E+03  0.00000000000E+00 0.  1.
         11    1    1    2    0    0  0.76447752557E+01  0.24809784497E+02  0.52873641515E+02  0.58903225401E+02  0.00000000000E+00 0. -1.
<mgrwt>
<rscale>  0 0.13759027E+03</rscale>
<asrwt>0</asrwt>
<pdfrwt beam="1">  1        2 0.82782573E-01 0.14472115E+03</pdfrwt>
<pdfrwt beam="2">  1       -2 0.54866461E-02 0.14472115E+03</pdfrwt>
<totfact> 0.93209536E+03</totfact>
</mgrwt>
</event>
<event>
 6    1  0.1190675E-005  0.1395300E+03  0.7546771E-02  0.1224467E+00
          2   -1    0    0  501    0  0.00000000000E+00  0.00000000000E+00  0.13219363649E+03  0.13219363649E+03  0.00000000000E+00 0. -1.
         -2   -1    0    0    0  501 -0.00000000000E+00 -0.00000000000E+00 -0.15024443728E+03  0.15024443728E+03  0.00000000000E+00 0.  1.
          5    1    1    2  502    0  0.63689013621E+02 -0.51404169737E+02 -0.96298240222E+01  0.82543943649E+02  0.47000000000E+01 0. -1.
         -5    1    1    2    0  502 -0.19785487191E+02  0.76254745888E+01  0.63351096802E+02  0.66970626636E+02  0.47000000000E+01 0. -1.
        -11    1    1    2    0    0 -0.44223966418E+02  0.25430044374E+02 -0.92256149402E+02  0.10542126666E+03  0.00000000000E+00 0.  1.
         11    1    1    2    0    0  0.32043998783E+00  0.18348650774E+02  0.20484075839E+02  0.27502236818E+02  0.00000000000E+00 0. -1.
<mgrwt>
<rscale>  0 0.13203533E+03</rscale>
<asrwt>0</asrwt>
<pdfrwt beam="1">  1        2 0.20337482E-01 0.13953004E+03</pdfrwt>
<pdfrwt beam="2">  1       -2 0.23114529E-01 0.13953004E+03</pdfrwt>
<totfact> 0.42642528E+03</totfact>
</mgrwt>
</event>
<event>
 6    1  0.1190675E-005  0.1263454E+03  0.7546771E-02  0.1248575E+00
         -2   -1    0    0    0  501 -0.00000000000E+00  0.00000000000E+00  0.37743302993E+02  0.37743302993E+02  0.00000000000E+00 0. -1.
          2   -1    0    0  501    0  0.00000000000E+00 -0.00000000000E+00 -0.32117440504E+03  0.32117440504E+03  0.00000000000E+00 0.  1.
          5    1    1    2  502    0 -0.29671087302E+02 -0.50853545727E+02 -0.40211161129E+02  0.71452669747E+02  0.47000000000E+01 0.  1.
         -5    1    1    2    0  502  0.45132027988E+02  0.40897422509E+02 -0.10094394757E+03  0.11798843024E+03  0.47000000000E+01 0.  1.
        -11    1    1    2    0    0  0.33683173927E+02 -0.91743992936E+01 -0.83533108505E+02  0.90534557075E+02  0.00000000000E+00 0.  1.
         11    1    1    2    0    0 -0.49144114614E+02  0.19130522512E+02 -0.58742884843E+02  0.78942050977E+02  0.00000000000E+00 0. -1.
<mgrwt>
<rscale>  0 0.11673961E+03</rscale>
<asrwt>0</asrwt>
<pdfrwt beam="2">  1        2 0.49411447E-01 0.12634542E+03</pdfrwt>
<pdfrwt beam="1">  1       -2 0.58066620E-02 0.12634542E+03</pdfrwt>
<totfact> 0.14765300E+04</totfact>
</mgrwt>
</event>
<event>
 6    1  0.1190675E-005  0.1431164E+03  0.7546771E-02  0.1218537E+00
          2   -1    0    0  501    0  0.00000000000E+00  0.00000000000E+00  0.13597281040E+03  0.13597281040E+03  0.00000000000E+00 0. -1.
         -2   -1    0    0    0  501 -0.00000000000E+00 -0.00000000000E+00 -0.12555816271E+03  0.12555816271E+03  0.00000000000E+00 0.  1.
          5    1    1    2  502    0 -0.60381541878E+02 -0.83148733450E+02 -0.14150376145E+02  0.10383624425E+03  0.47000000000E+01 0.  1.
         -5    1    1    2    0  502  0.32638583333E+02  0.19221122482E+02  0.95833239484E+01  0.39353002037E+02  0.47000000000E+01 0.  1.
        -11    1    1    2    0    0  0.62444910694E+02  0.38731466481E+02  0.18975749891E+01  0.73505742349E+02  0.00000000000E+00 0.  1.
         11    1    1    2    0    0 -0.34701952149E+02  0.25196144487E+02  0.13084124904E+02  0.44835984482E+02  0.00000000000E+00 0. -1.
<mgrwt>
<rscale>  0 0.13619916E+03</rscale>
<asrwt>0</asrwt>
<pdfrwt beam="1">  1        2 0.20918894E-01 0.14311639E+03</pdfrwt>
<pdfrwt beam="2">  1       -2 0.19316640E-01 0.14311639E+03</pdfrwt>
<totfact> 0.56202029E+03</totfact>
</mgrwt>
</event>
<event>
 6    1  0.1190675E-005  0.3735907E+03  0.7546771E-02  0.1053328E+00
         -1   -1    0    0    0  501 -0.00000000000E+00  0.00000000000E+00  0.21711548619E+03  0.21711548619E+03  0.00000000000E+00 0.  1.
          1   -1    0    0  501    0  0.00000000000E+00 -0.00000000000E+00 -0.16070942115E+03  0.16070942115E+03  0.00000000000E+00 0. -1.
          5    1    1    2  502    0  0.84132789172E+02 -0.12400768459E+03 -0.74944768674E+01  0.15011492010E+03  0.47000000000E+01 0. -1.
         -5    1    1    2    0  502 -0.20931879976E+02  0.64549469873E+00 -0.30082999670E+02  0.36954527894E+02  0.47000000000E+01 0.  1.
        -11    1    1    2    0    0 -0.35251123577E+02  0.42089697115E+01 -0.14910195366E+01  0.35532805669E+02  0.00000000000E+00 0. -1.
         11    1    1    2    0    0 -0.27949785618E+02  0.11915322018E+03  0.95474561110E+02  0.15522265368E+03  0.00000000000E+00 0.  1.
<mgrwt>
<rscale>  0 0.37359071E+03</rscale>
<asrwt>0</asrwt>
<pdfrwt beam="2">  1        1 0.24724526E-01 0.37359071E+03</pdfrwt>
<pdfrwt beam="1">  1       -1 0.33402382E-01 0.37359071E+03</pdfrwt>
<totfact> 0.16542636E+03</totfact>
</mgrwt>
</event>
<event>
 6    1  0.1190675E-005  0.1735745E+03  0.7546771E-02  0.1194837E+00
          2   -1    0    0  501    0  0.00000000000E+00  0.00000000000E+00  0.66615577884E+02  0.66615577884E+02  0.00000000000E+00 0. -1.
         -2   -1    0    0    0  501 -0.00000000000E+00 -0.00000000000E+00 -0.30324367096E+03  0.30324367096E+03  0.00000000000E+00 0.  1.
          5    1    1    2  502    0  0.46971908776E+01 -0.33946606712E+02  0.20283131194E+02  0.40099016452E+02  0.47000000000E+01 0. -1.
         -5    1    1    2    0  502 -0.66662159051E+02  0.35899999606E+02 -0.18183055435E+03  0.19702054187E+03  0.47000000000E+01 0.  1.
        -11    1    1    2    0    0 -0.13764892925E+02 -0.26311239156E+02 -0.16728079793E+02  0.34081992851E+02  0.00000000000E+00 0. -1.
         11    1    1    2    0    0  0.75729861098E+02  0.24357846262E+02 -0.58352590128E+02  0.98657697678E+02  0.00000000000E+00 0.  1.
<mgrwt>
<rscale>  0 0.15467991E+03</rscale>
<asrwt>0</asrwt>
<pdfrwt beam="1">  1        2 0.10248550E-01 0.17357452E+03</pdfrwt>
<pdfrwt beam="2">  1       -2 0.46652873E-01 0.17357452E+03</pdfrwt>
<totfact> 0.26721267E+03</totfact>
</mgrwt>
</event>
<event>
 6    1  0.1190675E-005  0.1437018E+03  0.7546771E-02  0.1219904E+00
          1   -1    0    0  501    0  0.00000000000E+00  0.00000000000E+00  0.25277903126E+03  0.25277903126E+03  0.00000000000E+00 0. -1.
         -1   -1    0    0    0  501 -0.00000000000E+00 -0.00000000000E+00 -0.70211050785E+02  0.70211050785E+02  0.00000000000E+00 0.  1.
          5    1    1    2  502    0 -0.86978164201E+02  0.42947909940E+02  0.23707630903E+02  0.99969324190E+02  0.47000000000E+01 0.  1.
         -5    1    1    2    0  502  0.41273087943E+02  0.11282422000E+02  0.34136112170E+02  0.54937464344E+02  0.47000000000E+01 0.  1.
        -11    1    1    2    0    0  0.22411090426E+02 -0.57545200617E+02  0.13004258811E+03  0.14396104269E+03  0.00000000000E+00 0. -1.
         11    1    1    2    0    0  0.23293985832E+02  0.33148686776E+01 -0.53183507156E+01  0.24122250820E+02  0.00000000000E+00 0.  1.
<mgrwt>
<rscale>  0 0.13522422E+03</rscale>
<asrwt>0</asrwt>
<pdfrwt beam="1">  1        1 0.38889081E-01 0.14370183E+03</pdfrwt>
<pdfrwt beam="2">  1       -1 0.10801700E-01 0.14370183E+03</pdfrwt>
<totfact> 0.56413712E+03</totfact>
</mgrwt>
</event>
<event>
 6    1  0.1190675E-005  0.3616577E+03  0.7546771E-02  0.1058597E+00
          1   -1    0    0  501    0  0.00000000000E+00  0.00000000000E+00  0.30740620232E+04  0.30740620232E+04  0.00000000000E+00 0. -1.
         -1   -1    0    0    0  501 -0.00000000000E+00 -0.00000000000E+00 -0.41827663443E+02  0.41827663443E+02  0.00000000000E+00 0.  1.
          5    1    1    2  502    0  0.10341548758E+03 -0.56404022963E+02  0.31920893652E+03  0.34028313510E+03  0.47000000000E+01 0.  1.
         -5    1    1    2    0  502  0.21515925058E+03 -0.60569762185E+02  0.12729727139E+04  0.12924565059E+04  0.47000000000E+01 0.  1.
        -11    1    1    2    0    0 -0.14292814801E+03  0.80322099732E+01  0.71620478331E+03  0.73037131894E+03  0.00000000000E+00 0. -1.
         11    1    1    2    0    0 -0.17564659015E+03  0.10894157517E+03  0.72384792604E+03  0.75277872676E+03  0.00000000000E+00 0.  1.
<mgrwt>
<rscale>  0 0.35996643E+03</rscale>
<asrwt>0</asrwt>
<pdfrwt beam="1">  1        1 0.47293244E+00 0.36165775E+03</pdfrwt>
<pdfrwt beam="2">  1       -1 0.64350276E-02 0.36165775E+03</pdfrwt>
<totfact> 0.75147122E+01</totfact>
</mgrwt>
</event>
<event>
 6    1  0.1190675E-005  0.2191800E+03  0.7546771E-02  0.1137902E+00
         -2   -1    0    0    0  501 -0.00000000000E+00  0.00000000000E+00  0.25647332628E+03  0.25647332628E+03  0.00000000000E+00 0.  1.
          2   -1    0    0  501    0  0.00000000000E+00 -0.00000000000E+00 -0.17274058146E+03  0.17274058146E+03  0.00000000000E+00 0. -1.
          5    1    1    2  502    0 -0.13907411852E+03 -0.22080030931E+02  0.76481994312E+02  0.16031445244E+03  0.47000000000E+01 0. -1.
         -5    1    1    2    0  502 -0.26811177796E+02 -0.47916845221E+02 -0.31439338057E+02  0.63445924126E+02  0.47000000000E+01 0. -1.
        -11    1    1    2    0    0  0.58157053148E+01  0.37220459444E+02  0.57755840984E+00  0.37676499350E+02  0.00000000000E+00 0. -1.
         11    1    1    2    0    0  0.16006959100E+03  0.32776416707E+02  0.38112530159E+02  0.16777703183E+03  0.00000000000E+00 0.  1.
<mgrwt>
<rscale>  0 0.21469352E+03</rscale>
<asrwt>0</asrwt>
<pdfrwt beam="2">  1        2 0.26575474E-01 0.21917998E+03</pdfrwt>
<pdfrwt beam="1">  1       -2 0.39457435E-01 0.21917998E+03</pdfrwt>
<totfact> 0.12219516E+03</totfact>
</mgrwt>
</event>
<event>
 6    1  0.1190675E-005  0.2481762E+03  0.7546771E-02  0.1114463E+00
         -2   -1    0    0    0  501 -0.00000000000E+00  0.00000000000E+00  0.83364330547E+02  0.83364330547E+02  0.00000000000E+00 0.  1.
          2   -1    0    0  501    0  0.00000000000E+00 -0.00000000000E+00 -0.18470561040E+03  0.18470561040E+03  0.00000000000E+00 0. -1.
          5    1    1    2  502    0 -0.10297059999E+02  0.33298010330E+01 -0.79390571868E+02  0.80262506321E+02  0.47000000000E+01 0.  1.
         -5    1    1    2    0  502  0.64496689004E+02  0.25529072334E+02  0.18186680705E+02  0.71863772388E+02  0.47000000000E+01 0.  1.
        -11    1    1    2    0    0 -0.33495195974E+02 -0.19920646611E+02  0.25478316906E+02  0.46560766178E+02  0.00000000000E+00 0.  1.
         11    1    1    2    0    0 -0.20704433031E+02 -0.89382267561E+01 -0.65615705595E+02  0.69382896058E+02  0.00000000000E+00 0. -1.
<mgrwt>
<rscale>  0 0.24817622E+03</rscale>
<asrwt>0</asrwt>
<pdfrwt beam="2">  1        2 0.28416247E-01 0.24817622E+03</pdfrwt>
<pdfrwt beam="1">  1       -2 0.12825282E-01 0.24817622E+03</pdfrwt>
<totfact> 0.81396810E+03</totfact>
</mgrwt>
</event>
<event>
 6    1  0.1190675E-005  0.2547957E+03  0.7546771E-02  0.1110311E+00
         -3   -1    0    0    0  501 -0.00000000000E+00  0.00000000000E+00  0.33928393226E+02  0.33928393226E+02  0.00000000000E+00 0.  1.
          3   -1    0    0  501    0  0.00000000000E+00 -0.00000000000E+00 -0.47836669732E+03  0.47836669732E+03  0.00000000000E+00 0. -1.
          5    1    1    2  502    0  0.12643951262E+02  0.73341178521E+01 -0.29242645531E+03  0.29282926861E+03  0.47000000000E+01 0.  1.
         -5    1    1    2    0  502  0.40466310278E+02 -0.25383858431E+02 -0.27775681131E+02  0.55456658740E+02  0.47000000000E+01 0.  1.
        -11    1    1    2    0    0 -0.34885413244E+02  0.54433770966E+02 -0.90085158562E+02  0.11088445911E+03  0.00000000000E+00 0. -1.
         11    1    1    2    0    0 -0.18224848295E+02 -0.36384030387E+02 -0.34151009088E+02  0.53124704087E+02  0.00000000000E+00 0.  1.
<mgrwt>
<rscale>  0 0.25479571E+03</rscale>
<asrwt>0</asrwt>
<pdfrwt beam="2">  1        3 0.73594874E-01 0.25479571E+03</pdfrwt>
<pdfrwt beam="1">  1       -3 0.52197530E-02 0.25479571E+03</pdfrwt>
<totfact> 0.95998078E+02</totfact>
</mgrwt>
</event>
<event>
 6    1  0.1190675E-005  0.2692924E+03  0.7546771E-02  0.1101685E+00
         -1   -1    0    0    0  501 -0.00000000000E+00  0.00000000000E+00  0.11825010739E+02  0.11825010739E+02  0.00000000000E+00 0. -1.
          1   -1    0    0  501    0  0.00000000000E+00 -0.00000000000E+00 -0.15331576453E+04  0.15331576453E+04  0.00000000000E+00 0.  1.
          5    1    1    2  502    0  0.36488090526E+02 -0.25648549074E+02 -0.12438297589E+04  0.12446380149E+04  0.47000000000E+01 0.  1.
         -5    1    1    2    0  502 -0.95239281648E+00  0.75714995142E+01 -0.35769297720E+01  0.96498229809E+01  0.47000000000E+01 0.  1.
        -11    1    1    2    0    0 -0.62396705518E+02  0.18762813135E+02 -0.14452344622E+03  0.15853207412E+03  0.00000000000E+00 0. -1.
         11    1    1    2    0    0  0.26861007809E+02 -0.68576357534E+00 -0.12940249964E+03  0.13216274409E+03  0.00000000000E+00 0.  1.
<mgrwt>
<rscale>  0 0.26929245E+03</rscale>
<asrwt>0</asrwt>
<pdfrwt beam="2">  1        1 0.23587043E+00 0.26929245E+03</pdfrwt>
<pdfrwt beam="1">  1       -1 0.18192322E-02 0.26929245E+03</pdfrwt>
<totfact> 0.53571498E+03</totfact>
</mgrwt>
</event>
<event>
 6    1  0.1190675E-005  0.2530486E+03  0.7546771E-02  0.1113837E+00
          1   -1    0    0  501    0  0.00000000000E+00  0.00000000000E+00  0.10040812066E+04  0.10040812066E+04  0.00000000000E+00 0. -1.
         -1   -1    0    0    0  501 -0.00000000000E+00 -0.00000000000E+00 -0.78649270621E+02  0.78649270621E+02  0.00000000000E+00 0.  1.
          5    1    1    2  502    0 -0.94782291170E+02  0.19056311350E+03  0.56441491653E+03  0.60322820801E+03  0.47000000000E+01 0.  1.
         -5    1    1    2    0  502 -0.32352498828E+02 -0.10996265150E+02  0.17275204564E+03  0.17616174755E+03  0.47000000000E+01 0.  1.
        -11    1    1    2    0    0  0.96621037600E+02 -0.15764975396E+03  0.10655685019E+03  0.21340907233E+03  0.00000000000E+00 0. -1.
         11    1    1    2    0    0  0.30513752399E+02 -0.21917094392E+02  0.81708123653E+02  0.89931449354E+02  0.00000000000E+00 0.  1.
<mgrwt>
<rscale>  0 0.24915974E+03</rscale>
<asrwt>0</asrwt>
<pdfrwt beam="1">  1        1 0.15447402E+00 0.25304856E+03</pdfrwt>
<pdfrwt beam="2">  1       -1 0.12099889E-01 0.25304856E+03</pdfrwt>
<totfact> 0.72082972E+02</totfact>
</mgrwt>
</event>
<event>
 6    1  0.1190675E-005  0.1325408E+03  0.7546771E-02  0.1236121E+00
         -2   -1    0    0    0  501 -0.00000000000E+00  0.00000000000E+00  0.21275448308E+03  0.21275448308E+03  0.00000000000E+00 0.  1.
          2   -1    0    0  501    0  0.00000000000E+00 -0.00000000000E+00 -0.67676274756E+02  0.67676274756E+02  0.00000000000E+00 0. -1.
          5    1    1    2  502    0  0.34145709998E+02 -0.50316877993E+02 -0.35226706967E+01  0.61091872873E+02  0.47000000000E+01 0.  1.
         -5    1    1    2    0  502 -0.57067608698E+02  0.12627440598E+02  0.57170937497E+02  0.81894873544E+02  0.47000000000E+01 0.  1.
        -11    1    1    2    0    0  0.53005335784E+02 -0.83454394658E+00  0.39354682641E+02  0.66023125728E+02  0.00000000000E+00 0.  1.
         11    1    1    2    0    0 -0.30083437084E+02  0.38523981342E+02  0.52075258882E+02  0.71420885690E+02  0.00000000000E+00 0. -1.
<mgrwt>
<rscale>  0 0.12432920E+03</rscale>
<asrwt>0</asrwt>
<pdfrwt beam="2">  1        2 0.10411735E-01 0.13254084E+03</pdfrwt>
<pdfrwt beam="1">  1       -2 0.32731459E-01 0.13254084E+03</pdfrwt>
<totfact> 0.50363903E+03</totfact>
</mgrwt>
</event>
<event>
 6    1  0.1190675E-005  0.1326229E+03  0.7546771E-02  0.1235855E+00
          2   -1    0    0  501    0  0.00000000000E+00  0.00000000000E+00  0.49135693671E+03  0.49135693671E+03  0.00000000000E+00 0. -1.
         -2   -1    0    0    0  501 -0.00000000000E+00 -0.00000000000E+00 -0.31222485070E+02  0.31222485070E+02  0.00000000000E+00 0.  1.
          5    1    1    2  502    0  0.39580271237E+02 -0.19021220600E+02  0.19693939777E+03  0.20183067433E+03  0.47000000000E+01 0. -1.
         -5    1    1    2    0  502 -0.45803799560E+02  0.62893397825E+02  0.13940685756E+03  0.15971828161E+03  0.47000000000E+01 0. -1.
        -11    1    1    2    0    0 -0.11218942568E+02 -0.43329936631E+02  0.13367787488E+03  0.14097206217E+03  0.00000000000E+00 0. -1.
         11    1    1    2    0    0  0.17442470891E+02 -0.54224059452E+00 -0.98896785735E+01  0.20058403674E+02  0.00000000000E+00 0.  1.
<mgrwt>
<rscale>  0 0.12449863E+03</rscale>
<asrwt>0</asrwt>
<pdfrwt beam="1">  1        2 0.75593369E-01 0.13262294E+03</pdfrwt>
<pdfrwt beam="2">  1       -2 0.48034596E-02 0.13262294E+03</pdfrwt>
<totfact> 0.12510859E+04</totfact>
</mgrwt>
</event>
<event>
 6    1  0.1190675E-005  0.1850933E+03  0.7546771E-02  0.1187713E+00
          2   -1    0    0  501    0  0.00000000000E+00  0.00000000000E+00  0.28961203432E+04  0.28961203432E+04  0.00000000000E+00 0. -1.
         -2   -1    0    0    0  501 -0.00000000000E+00 -0.00000000000E+00 -0.16316597971E+02  0.16316597971E+02  0.00000000000E+00 0.  1.
          5    1    1    2  502    0  0.96334485967E+02 -0.62236795834E+02  0.21344849606E+04  0.21375691542E+04  0.47000000000E+01 0. -1.
         -5    1    1    2    0  502 -0.51703465838E+02  0.30290380935E+02  0.54593170195E+03  0.54923061527E+03  0.47000000000E+01 0.  1.
        -11    1    1    2    0    0 -0.71819064375E+02  0.30222102247E+02  0.13803710551E+03  0.15851055475E+03  0.00000000000E+00 0.  1.
         11    1    1    2    0    0  0.27188044246E+02  0.17243126523E+01  0.61349977165E+02  0.67126616943E+02  0.00000000000E+00 0. -1.
<mgrwt>
<rscale>  0 0.16087406E+03</rscale>
<asrwt>0</asrwt>
<pdfrwt beam="1">  1        2 0.44555657E+00 0.18509326E+03</pdfrwt>
<pdfrwt beam="2">  1       -2 0.25102481E-02 0.18509326E+03</pdfrwt>
<totfact> 0.13445974E+03</totfact>
</mgrwt>
</event>
<event>
 6    1  0.1190675E-005  0.1252267E+03  0.7546771E-02  0.1260093E+00
         -1   -1    0    0    0  501 -0.00000000000E+00  0.00000000000E+00  0.96338912037E+01  0.96338912037E+01  0.00000000000E+00 0.  1.
          1   -1    0    0  501    0  0.00000000000E+00 -0.00000000000E+00 -0.13068567905E+04  0.13068567905E+04  0.00000000000E+00 0. -1.
          5    1    1    2  502    0 -0.17906436879E+02  0.13698444516E+02 -0.10504766729E+04  0.10507290888E+04  0.47000000000E+01 0. -1.
         -5    1    1    2    0  502  0.10697162950E+02 -0.11525872514E+02 -0.15489262652E+02  0.22567283618E+02  0.47000000000E+01 0. -1.
        -11    1    1    2    0    0  0.15236405665E+02 -0.36114412737E+02 -0.10072479148E+03  0.10808275757E+03  0.00000000000E+00 0.  1.
         11    1    1    2    0    0 -0.80271317357E+01  0.33941840736E+02 -0.13053217231E+03  0.13511155171E+03  0.00000000000E+00 0. -1.
<mgrwt>
<rscale>  0 0.11025801E+03</rscale>
<asrwt>0</asrwt>
<pdfrwt beam="2">  1        1 0.20105484E+00 0.12522670E+03</pdfrwt>
<pdfrwt beam="1">  1       -1 0.14821375E-02 0.12522670E+03</pdfrwt>
<totfact> 0.99078320E+03</totfact>
</mgrwt>
</event>
<event>
 6    1  0.1190675E-005  0.1370842E+03  0.7546771E-02  0.1228750E+00
          2   -1    0    0  501    0  0.00000000000E+00  0.00000000000E+00  0.15828566992E+03  0.15828566992E+03  0.00000000000E+00 0. -1.
         -2   -1    0    0    0  501 -0.00000000000E+00 -0.00000000000E+00 -0.10272459408E+03  0.10272459408E+03  0.00000000000E+00 0.  1.
          5    1    1    2  502    0  0.59017961221E+02  0.23652532037E+01  0.14120993484E+02  0.60911465475E+02  0.47000000000E+01 0. -1.
         -5    1    1    2    0  502 -0.47775000873E+02 -0.57513552810E+02  0.52673776757E+02  0.91579889840E+02  0.47000000000E+01 0. -1.
        -11    1    1    2    0    0 -0.10334443392E+02 -0.22587386454E+01 -0.42047989080E+02  0.43358228818E+02  0.00000000000E+00 0.  1.
         11    1    1    2    0    0 -0.90851695543E+00  0.57407038252E+02  0.30814294680E+02  0.65160679866E+02  0.00000000000E+00 0. -1.
<mgrwt>
<rscale>  0 0.12913143E+03</rscale>
<asrwt>0</asrwt>
<pdfrwt beam="1">  1        2 0.24351641E-01 0.13708418E+03</pdfrwt>
<pdfrwt beam="2">  1       -2 0.15803784E-01 0.13708418E+03</pdfrwt>
<totfact> 0.66058649E+03</totfact>
</mgrwt>
</event>
<event>
 6    1  0.1190675E-005  0.1652077E+03  0.7546771E-02  0.1210008E+00
          2   -1    0    0  501    0  0.00000000000E+00  0.00000000000E+00  0.25285955600E+03  0.25285955600E+03  0.00000000000E+00 0. -1.
         -2   -1    0    0    0  501 -0.00000000000E+00 -0.00000000000E+00 -0.72031077437E+02  0.72031077437E+02  0.00000000000E+00 0.  1.
          5    1    1    2  502    0 -0.27362707211E+02 -0.60642367746E+02  0.14871639187E+03  0.16298732994E+03  0.47000000000E+01 0. -1.
         -5    1    1    2    0  502  0.17507498148E+02  0.64758015673E+02  0.13585276549E+02  0.68605851239E+02  0.47000000000E+01 0.  1.
        -11    1    1    2    0    0  0.39917970646E+02  0.26759144140E+02  0.60639946307E+01  0.48438292770E+02  0.00000000000E+00 0. -1.
         11    1    1    2    0    0 -0.30062761583E+02 -0.30874792067E+02  0.12462815518E+02  0.44859159486E+02  0.00000000000E+00 0.  1.
<mgrwt>
<rscale>  0 0.14249710E+03</rscale>
<asrwt>0</asrwt>
<pdfrwt beam="1">  1        2 0.38901470E-01 0.16520766E+03</pdfrwt>
<pdfrwt beam="2">  1       -2 0.11081704E-01 0.16520766E+03</pdfrwt>
<totfact> 0.71384743E+03</totfact>
</mgrwt>
</event>
<event>
 6    1  0.1190675E-005  0.1612466E+03  0.7546771E-02  0.1198744E+00
          2   -1    0    0  501    0  0.00000000000E+00  0.00000000000E+00  0.39015549355E+02  0.39015549355E+02  0.00000000000E+00 0. -1.
         -2   -1    0    0    0  501 -0.00000000000E+00 -0.00000000000E+00 -0.52675262363E+03  0.52675262363E+03  0.00000000000E+00 0.  1.
          5    1    1    2  502    0 -0.37343865226E+02 -0.18506123900E+02 -0.80437876310E+01  0.42706362655E+02  0.47000000000E+01 0.  1.
         -5    1    1    2    0  502 -0.64506649329E+02  0.19800920913E+02 -0.27352700539E+03  0.28176638720E+03  0.47000000000E+01 0.  1.
        -11    1    1    2    0    0  0.20769181089E+02  0.15084464244E+02 -0.11652966297E+03  0.11932335185E+03  0.00000000000E+00 0.  1.
         11    1    1    2    0    0  0.81081333465E+02 -0.16379261257E+02 -0.89636618285E+02  0.12197207128E+03  0.00000000000E+00 0. -1.
<mgrwt>
<rscale>  0 0.15141565E+03</rscale>
<asrwt>0</asrwt>
<pdfrwt beam="1">  1        2 0.60023924E-02 0.16124656E+03</pdfrwt>
<pdfrwt beam="2">  1       -2 0.81038863E-01 0.16124656E+03</pdfrwt>
<totfact> 0.16646930E+03</totfact>
</mgrwt>
</event>
<event>
 6    1  0.1190675E-005  0.1304229E+03  0.7546771E-02  0.1238214E+00
         -2   -1    0    0    0  501 -0.00000000000E+00  0.00000000000E+00  0.62121400157E+02  0.62121400157E+02  0.00000000000E+00 0.  1.
          2   -1    0    0  501    0  0.00000000000E+00 -0.00000000000E+00 -0.26490739384E+03  0.26490739384E+03  0.00000000000E+00 0. -1.
          5    1    1    2  502    0 -0.77866449133E+02 -0.25888993679E+02 -0.90904372985E+02  0.12255251496E+03  0.47000000000E+01 0. -1.
         -5    1    1    2    0  502  0.42389466290E+02  0.14687014301E+02 -0.87485709824E+02  0.98429744818E+02  0.47000000000E+01 0. -1.
        -11    1    1    2    0    0  0.67310883541E+02  0.19201380025E+02 -0.20830687167E+02  0.73029895015E+02  0.00000000000E+00 0. -1.
         11    1    1    2    0    0 -0.31833900699E+02 -0.79994006468E+01 -0.35652237044E+01  0.33016639206E+02  0.00000000000E+00 0.  1.
<mgrwt>
<rscale>  0 0.12300924E+03</rscale>
<asrwt>0</asrwt>
<pdfrwt beam="2">  1        2 0.40754984E-01 0.13042292E+03</pdfrwt>
<pdfrwt beam="1">  1       -2 0.95571384E-02 0.13042292E+03</pdfrwt>
<totfact> 0.84442618E+03</totfact>
</mgrwt>
</event>
<event>
 6    1  0.1190675E-005  0.1518225E+03  0.7546771E-02  0.1206917E+00
          2   -1    0    0  501    0  0.00000000000E+00  0.00000000000E+00  0.29471901832E+03  0.29471901832E+03  0.00000000000E+00 0. -1.
         -2   -1    0    0    0  501 -0.00000000000E+00 -0.00000000000E+00 -0.65712380563E+02  0.65712380563E+02  0.00000000000E+00 0.  1.
          5    1    1    2  502    0  0.39602593386E+02 -0.81885400977E+01 -0.10302556554E+02  0.41995836262E+02  0.47000000000E+01 0.  1.
         -5    1    1    2    0  502  0.81542220202E+01  0.79914065523E+02  0.12341773620E+03  0.14733219884E+03  0.47000000000E+01 0.  1.
        -11    1    1    2    0    0 -0.61422684489E+02 -0.74541089805E+02  0.12222345227E+03  0.15578091194E+03  0.00000000000E+00 0. -1.
         11    1    1    2    0    0  0.13665869083E+02  0.28155643799E+01 -0.63319941604E+01  0.15322451848E+02  0.00000000000E+00 0.  1.
<mgrwt>
<rscale>  0 0.14487398E+03</rscale>
<asrwt>0</asrwt>
<pdfrwt beam="1">  1        2 0.45341387E-01 0.15182247E+03</pdfrwt>
<pdfrwt beam="2">  1       -2 0.10109597E-01 0.15182247E+03</pdfrwt>
<totfact> 0.69746945E+03</totfact>
</mgrwt>
</event>
<event>
 6    1  0.1190675E-005  0.3467296E+03  0.7546771E-02  0.1063965E+00
         -2   -1    0    0    0  501 -0.00000000000E+00  0.00000000000E+00  0.30409983238E+02  0.30409983238E+02  0.00000000000E+00 0.  1.
          2   -1    0    0  501    0  0.00000000000E+00 -0.00000000000E+00 -0.98833813466E+03  0.98833813466E+03  0.00000000000E+00 0. -1.
          5    1    1    2  502    0 -0.10620604090E+02  0.20124999253E+02 -0.17206861981E+02  0.28913300147E+02  0.47000000000E+01 0. -1.
         -5    1    1    2    0  502  0.14064827077E+03  0.15181920600E+02 -0.51695316296E+03  0.53598049356E+03  0.47000000000E+01 0. -1.
        -11    1    1    2    0    0 -0.26275007360E+02 -0.48527899716E+02 -0.10916309179E+03  0.12231890153E+03  0.00000000000E+00 0. -1.
         11    1    1    2    0    0 -0.10375265932E+03  0.13220979863E+02 -0.31460503469E+03  0.33153542266E+03  0.00000000000E+00 0.  1.
<mgrwt>
<rscale>  0 0.34672956E+03</rscale>
<asrwt>0</asrwt>
<pdfrwt beam="2">  1        2 0.15205204E+00 0.34672956E+03</pdfrwt>
<pdfrwt beam="1">  1       -2 0.46784584E-02 0.34672956E+03</pdfrwt>
<totfact> 0.58080589E+03</totfact>
</mgrwt>
</event>
<event>
 6    1  0.1190675E-005  0.1050062E+04  0.7546771E-02  0.9926764E-01
         -3   -1    0    0    0  501 -0.00000000000E+00  0.00000000000E+00  0.73715059101E+03  0.73715059101E+03  0.00000000000E+00 0.  1.
          3   -1    0    0  501    0  0.00000000000E+00 -0.00000000000E+00 -0.51074336367E+03  0.51074336367E+03  0.00000000000E+00 0. -1.
          5    1    1    2  502    0  0.41437399281E+01 -0.51261973964E+03  0.45461879278E+02  0.51466983642E+03  0.47000000000E+01 0. -1.
         -5    1    1    2    0  502  0.42529276463E+02  0.53521496646E+03  0.15035056246E+02  0.53713307718E+03  0.47000000000E+01 0.  1.
        -11    1    1    2    0    0 -0.62743868553E+02 -0.39214654364E+00  0.15383708904E+03  0.16614089437E+03  0.00000000000E+00 0.  1.
         11    1    1    2    0    0  0.16070852161E+02 -0.22203080277E+02  0.12073202771E+02  0.29950146713E+02  0.00000000000E+00 0. -1.
<mgrwt>
<rscale>  0 0.58981542E+03</rscale>
<asrwt>0</asrwt>
<pdfrwt beam="2">  1        3 0.78575901E-01 0.10500617E+04</pdfrwt>
<pdfrwt beam="1">  1       -3 0.11340778E+00 0.10500617E+04</pdfrwt>
<totfact> 0.25421576E+00</totfact>
</mgrwt>
</event>
<event>
 6    1  0.1190675E-005  0.1482022E+03  0.7546771E-02  0.1212427E+00
          1   -1    0    0  501    0  0.00000000000E+00  0.00000000000E+00  0.14791777611E+03  0.14791777611E+03  0.00000000000E+00 0. -1.
         -1   -1    0    0    0  501 -0.00000000000E+00 -0.00000000000E+00 -0.13709640707E+03  0.13709640707E+03  0.00000000000E+00 0.  1.
          5    1    1    2  502    0 -0.29906060839E+02  0.19170883480E+02 -0.22317131810E+02  0.42214211120E+02  0.47000000000E+01 0. -1.
         -5    1    1    2    0  502 -0.13657758780E+02 -0.85847857523E+02  0.75525672644E+02  0.11525018978E+03  0.47000000000E+01 0. -1.
        -11    1    1    2    0    0 -0.23238617956E+02  0.39162663309E+02 -0.39368149155E+01  0.45708271392E+02  0.00000000000E+00 0. -1.
         11    1    1    2    0    0  0.66802437574E+02  0.27514310734E+02 -0.38450356873E+02  0.81841510890E+02  0.00000000000E+00 0.  1.
<mgrwt>
<rscale>  0 0.14067213E+03</rscale>
<asrwt>0</asrwt>
<pdfrwt beam="1">  1        1 0.22756581E-01 0.14820219E+03</pdfrwt>
<pdfrwt beam="2">  1       -1 0.21091755E-01 0.14820219E+03</pdfrwt>
<totfact> 0.38526469E+03</totfact>
</mgrwt>
</event>
<event>
 6    1  0.1190675E-005  0.5766207E+03  0.7546771E-02  0.9955134E-01
          1   -1    0    0  501    0  0.00000000000E+00  0.00000000000E+00  0.22759875881E+03  0.22759875881E+03  0.00000000000E+00 0. -1.
         -1   -1    0    0    0  501 -0.00000000000E+00 -0.00000000000E+00 -0.36521668849E+03  0.36521668849E+03  0.00000000000E+00 0.  1.
          5    1    1    2  502    0 -0.71995449792E+01  0.12052570320E+03  0.12143779939E+03  0.17131114295E+03  0.47000000000E+01 0. -1.
         -5    1    1    2    0  502 -0.39358423136E+02 -0.21146952803E+02  0.57985997419E+02  0.73353561477E+02  0.47000000000E+01 0. -1.
        -11    1    1    2    0    0 -0.24201587162E+02 -0.55011315248E+02 -0.12296449798E+03  0.13686573491E+03  0.00000000000E+00 0. -1.
         11    1    1    2    0    0  0.70759555277E+02 -0.44367435144E+02 -0.19407722851E+03  0.21128500796E+03  0.00000000000E+00 0.  1.
<mgrwt>
<rscale>  0 0.57662072E+03</rscale>
<asrwt>0</asrwt>
<pdfrwt beam="1">  1        1 0.35015194E-01 0.57662072E+03</pdfrwt>
<pdfrwt beam="2">  1       -1 0.56187183E-01 0.57662072E+03</pdfrwt>
<totfact> 0.40803092E+02</totfact>
</mgrwt>
</event>
<event>
 6    1  0.1537133E-005  0.1900823E+03  0.7546771E-02  0.1163807E+00
          1   -1    0    0  501    0  0.00000000000E+00  0.00000000000E+00  0.23728076707E+03  0.23728076707E+03  0.00000000000E+00 0. -1.
         -1   -1    0    0    0  501 -0.00000000000E+00 -0.00000000000E+00 -0.13812535121E+03  0.13812535121E+03  0.00000000000E+00 0.  1.
          5    1    1    2  502    0  0.12444521133E+03 -0.12705681735E+02  0.81297282077E+02  0.14926279859E+03  0.47000000000E+01 0. -1.
         -5    1    1    2    0  502  0.11993403196E+02  0.56190537496E+02  0.44363326998E+00  0.57649848523E+02  0.47000000000E+01 0. -1.
        -11    1    1    2    0    0 -0.62803930863E+02 -0.62730455501E+02 -0.57101837992E+01  0.88949704767E+02  0.00000000000E+00 0.  1.
         11    1    1    2    0    0 -0.73634683662E+02  0.19245599740E+02  0.23124684309E+02  0.79543766392E+02  0.00000000000E+00 0. -1.
<mgrwt>
<rscale>  0 0.18419123E+03</rscale>
<asrwt>0</asrwt>
<pdfrwt beam="1">  1        1 0.36504733E-01 0.19008226E+03</pdfrwt>
<pdfrwt beam="2">  1       -1 0.21250054E-01 0.19008226E+03</pdfrwt>
<totfact> 0.21255368E+03</totfact>
</mgrwt>
</event>
<event>
 6    1  0.1190675E-005  0.2022906E+03  0.7546771E-02  0.1169682E+00
          2   -1    0    0  501    0  0.00000000000E+00  0.00000000000E+00  0.13454951718E+04  0.13454951718E+04  0.00000000000E+00 0. -1.
         -2   -1    0    0    0  501 -0.00000000000E+00 -0.00000000000E+00 -0.25057579907E+02  0.25057579907E+02  0.00000000000E+00 0.  1.
          5    1    1    2  502    0  0.11872313092E+03  0.38257413884E+02  0.91028780701E+03  0.91880617822E+03  0.47000000000E+01 0. -1.
         -5    1    1    2    0  502 -0.36896268982E+02 -0.50322305333E+02  0.19354044205E+03  0.20340516657E+03  0.47000000000E+01 0.  1.
        -11    1    1    2    0    0 -0.11768618181E+02 -0.26680928258E+02  0.18163996330E+02  0.34355539135E+02  0.00000000000E+00 0.  1.
         11    1    1    2    0    0 -0.70058243755E+02  0.38745819708E+02  0.19844534646E+03  0.21398586775E+03  0.00000000000E+00 0. -1.
<mgrwt>
<rscale>  0 0.17807173E+03</rscale>
<asrwt>0</asrwt>
<pdfrwt beam="1">  1        2 0.20699920E+00 0.20229063E+03</pdfrwt>
<pdfrwt beam="2">  1       -2 0.38550133E-02 0.20229063E+03</pdfrwt>
<totfact> 0.47814910E+03</totfact>
</mgrwt>
</event>
<event>
 6    1  0.1190675E-005  0.1739386E+03  0.7546771E-02  0.1177233E+00
          2   -1    0    0  501    0  0.00000000000E+00  0.00000000000E+00  0.11390887176E+04  0.11390887176E+04  0.00000000000E+00 0.  1.
         -2   -1    0    0    0  501 -0.00000000000E+00 -0.00000000000E+00 -0.25833157650E+02  0.25833157650E+02  0.00000000000E+00 0. -1.
          5    1    1    2  502    0 -0.75047582294E+02 -0.27772331250E+02  0.23576860031E+03  0.24902282001E+03  0.47000000000E+01 0. -1.
         -5    1    1    2    0  502 -0.34437752192E+02  0.79176030641E+02  0.46806478702E+03  0.47598480801E+03  0.47000000000E+01 0. -1.
        -11    1    1    2    0    0  0.65832912958E+02 -0.15485504020E+02  0.76000030331E+02  0.10173385805E+03  0.00000000000E+00 0. -1.
         11    1    1    2    0    0  0.43652421528E+02 -0.35918195371E+02  0.33342214228E+03  0.33818038918E+03  0.00000000000E+00 0.  1.
<mgrwt>
<rscale>  0 0.17059066E+03</rscale>
<asrwt>0</asrwt>
<pdfrwt beam="1">  1        2 0.17524438E+00 0.17393856E+03</pdfrwt>
<pdfrwt beam="2">  1       -2 0.39743328E-02 0.17393856E+03</pdfrwt>
<totfact> 0.59243450E+03</totfact>
</mgrwt>
</event>
<event>
 6    1  0.1190675E-005  0.1272746E+03  0.7546771E-02  0.1245669E+00
         -1   -1    0    0    0  501 -0.00000000000E+00  0.00000000000E+00  0.11732596937E+02  0.11732596937E+02  0.00000000000E+00 0.  1.
          1   -1    0    0  501    0  0.00000000000E+00 -0.00000000000E+00 -0.13353019208E+04  0.13353019208E+04  0.00000000000E+00 0. -1.
          5    1    1    2  502    0  0.26263111938E+02 -0.65717678550E-01 -0.93811986656E+03  0.93849918988E+03  0.47000000000E+01 0.  1.
         -5    1    1    2    0  502 -0.31852602534E+02 -0.23206162659E+02 -0.10318073541E+03  0.11055075049E+03  0.47000000000E+01 0.  1.
        -11    1    1    2    0    0 -0.52706446950E+01 -0.35267524185E+02 -0.11731973887E+03  0.12261932591E+03  0.00000000000E+00 0.  1.
         11    1    1    2    0    0  0.10860135290E+02  0.58539404522E+02 -0.16494898302E+03  0.17536525146E+03  0.00000000000E+00 0. -1.
<mgrwt>
<rscale>  0 0.11845431E+03</rscale>
<asrwt>0</asrwt>
<pdfrwt beam="2">  1        1 0.20543103E+00 0.12727464E+03</pdfrwt>
<pdfrwt beam="1">  1       -1 0.18050152E-02 0.12727464E+03</pdfrwt>
<totfact> 0.71561287E+03</totfact>
</mgrwt>
</event>
<event>
 6    1  0.1190675E-005  0.2411381E+03  0.7546771E-02  0.1122120E+00
         -2   -1    0    0    0  501 -0.00000000000E+00  0.00000000000E+00  0.34034453093E+02  0.34034453093E+02  0.00000000000E+00 0. -1.
          2   -1    0    0  501    0  0.00000000000E+00 -0.00000000000E+00 -0.16385593505E+04  0.16385593505E+04  0.00000000000E+00 0.  1.
          5    1    1    2  502    0 -0.53372873813E+02 -0.10466788723E+03 -0.51052795116E+03  0.52389398660E+03  0.47000000000E+01 0. -1.
         -5    1    1    2    0  502 -0.12303155072E+03 -0.21274263855E+01 -0.47382582735E+03  0.48956541246E+03  0.47000000000E+01 0. -1.
        -11    1    1    2    0    0  0.32644866635E+02  0.63579480326E+02 -0.23941035027E+03  0.24985066231E+03  0.00000000000E+00 0.  1.
         11    1    1    2    0    0  0.14375955790E+03  0.43215833290E+02 -0.38076076867E+03  0.40928374228E+03  0.00000000000E+00 0. -1.
<mgrwt>
<rscale>  0 0.23653920E+03</rscale>
<asrwt>0</asrwt>
<pdfrwt beam="2">  1        2 0.25208604E+00 0.24113812E+03</pdfrwt>
<pdfrwt beam="1">  1       -2 0.52360700E-02 0.24113812E+03</pdfrwt>
<totfact> 0.21024717E+03</totfact>
</mgrwt>
</event>
<event>
 6    1  0.1190675E-005  0.1404956E+03  0.7546771E-02  0.1228157E+00
          1   -1    0    0  501    0  0.00000000000E+00  0.00000000000E+00  0.51614228017E+03  0.51614228017E+03  0.00000000000E+00 0. -1.
         -1   -1    0    0    0  501 -0.00000000000E+00 -0.00000000000E+00 -0.43400023433E+02  0.43400023433E+02  0.00000000000E+00 0.  1.
          5    1    1    2  502    0  0.50521883427E+02  0.37541123981E+02  0.41994378490E+03  0.42466065178E+03  0.47000000000E+01 0. -1.
         -5    1    1    2    0  502 -0.21527382430E+02  0.41212750481E+00  0.45821473486E+01  0.22509644992E+02  0.47000000000E+01 0.  1.
        -11    1    1    2    0    0  0.22895101781E+02  0.10084280950E+02 -0.28060329327E+01  0.25174436015E+02  0.00000000000E+00 0. -1.
         11    1    1    2    0    0 -0.51889602778E+02 -0.48037532436E+02  0.51022357418E+02  0.87197570812E+02  0.00000000000E+00 0.  1.
<mgrwt>
<rscale>  0 0.12952859E+03</rscale>
<asrwt>0</asrwt>
<pdfrwt beam="1">  1        1 0.79406500E-01 0.14049558E+03</pdfrwt>
<pdfrwt beam="2">  1       -1 0.66769271E-02 0.14049558E+03</pdfrwt>
<totfact> 0.47526303E+03</totfact>
</mgrwt>
</event>
<event>
 6    1  0.1190675E-005  0.1431521E+03  0.7546771E-02  0.1218866E+00
         -1   -1    0    0    0  501 -0.00000000000E+00  0.00000000000E+00  0.10234325631E+03  0.10234325631E+03  0.00000000000E+00 0.  1.
          1   -1    0    0  501    0  0.00000000000E+00 -0.00000000000E+00 -0.22798988065E+03  0.22798988065E+03  0.00000000000E+00 0. -1.
          5    1    1    2  502    0  0.62628351402E+02  0.15582325574E+02 -0.84358808915E+02  0.10631847399E+03  0.47000000000E+01 0.  1.
         -5    1    1    2    0  502 -0.55149217420E+02  0.53781718522E+02 -0.69828061334E+02  0.10407669085E+03  0.47000000000E+01 0.  1.
        -11    1    1    2    0    0  0.42132778639E+02 -0.40615084263E+02  0.81779091966E+01  0.59090052500E+02  0.00000000000E+00 0.  1.
         11    1    1    2    0    0 -0.49611912622E+02 -0.28748959833E+02  0.20362336714E+02  0.60847919619E+02  0.00000000000E+00 0. -1.
<mgrwt>
<rscale>  0 0.13596375E+03</rscale>
<asrwt>0</asrwt>
<pdfrwt beam="2">  1        1 0.35075366E-01 0.14315214E+03</pdfrwt>
<pdfrwt beam="1">  1       -1 0.15745116E-01 0.14315214E+03</pdfrwt>
<totfact> 0.35688185E+03</totfact>
</mgrwt>
</event>
<event>
 6    1  0.1190675E-005  0.2406087E+03  0.7546771E-02  0.1134869E+00
          2   -1    0    0  501    0  0.00000000000E+00  0.00000000000E+00  0.77792052744E+03  0.77792052744E+03  0.00000000000E+00 0. -1.
         -2   -1    0    0    0  501 -0.00000000000E+00 -0.00000000000E+00 -0.54423198095E+02  0.54423198095E+02  0.00000000000E+00 0.  1.
          5    1    1    2  502    0 -0.62030625325E+01 -0.24957830236E+02  0.31573707521E+03  0.31681755308E+03  0.47000000000E+01 0. -1.
         -5    1    1    2    0  502 -0.78944792972E+02  0.12867164238E+03  0.18574664062E+03  0.23940045195E+03  0.47000000000E+01 0.  1.
        -11    1    1    2    0    0  0.25005048353E+02  0.15720680258E+02  0.29667414917E+02  0.41863441555E+02  0.00000000000E+00 0. -1.
         11    1    1    2    0    0  0.60142807151E+02 -0.11943449240E+03  0.19234619859E+03  0.23426227895E+03  0.00000000000E+00 0.  1.
<mgrwt>
<rscale>  0 0.21868257E+03</rscale>
<asrwt>0</asrwt>
<pdfrwt beam="1">  1        2 0.11968007E+00 0.24060871E+03</pdfrwt>
<pdfrwt beam="2">  1       -2 0.83728003E-02 0.24060871E+03</pdfrwt>
<totfact> 0.32189365E+03</totfact>
</mgrwt>
</event>
<event>
 6    1  0.1190675E-005  0.1524272E+03  0.7546771E-02  0.1206379E+00
          2   -1    0    0  501    0  0.00000000000E+00  0.00000000000E+00  0.84699617664E+03  0.84699617664E+03  0.00000000000E+00 0. -1.
         -2   -1    0    0    0  501 -0.00000000000E+00 -0.00000000000E+00 -0.25214178481E+02  0.25214178481E+02  0.00000000000E+00 0.  1.
          5    1    1    2  502    0 -0.11798277715E+02  0.36823143895E+02  0.16681368277E+03  0.17130101589E+03  0.47000000000E+01 0.  1.
         -5    1    1    2    0  502  0.96019109948E+02 -0.59625744438E+02  0.41255488616E+03  0.42778326635E+03  0.47000000000E+01 0.  1.
        -11    1    1    2    0    0 -0.94891165773E+02  0.31673476156E+01  0.14599640601E+03  0.17415313951E+03  0.00000000000E+00 0.  1.
         11    1    1    2    0    0  0.10670333540E+02  0.19635252928E+02  0.96417023209E+02  0.98972933370E+02  0.00000000000E+00 0. -1.
<mgrwt>
<rscale>  0 0.14529282E+03</rscale>
<asrwt>0</asrwt>
<pdfrwt beam="1">  1        2 0.13030708E+00 0.15242716E+03</pdfrwt>
<pdfrwt beam="2">  1       -2 0.38791050E-02 0.15242716E+03</pdfrwt>
<totfact> 0.91872502E+03</totfact>
</mgrwt>
</event>
<event>
 6    1  0.1190675E-005  0.1455954E+03  0.7546771E-02  0.1214755E+00
         -2   -1    0    0    0  501 -0.00000000000E+00  0.00000000000E+00  0.11488615983E+03  0.11488615983E+03  0.00000000000E+00 0.  1.
          2   -1    0    0  501    0  0.00000000000E+00 -0.00000000000E+00 -0.17609623581E+03  0.17609623581E+03  0.00000000000E+00 0. -1.
          5    1    1    2  502    0  0.73271432382E+01 -0.33280655770E+02  0.30845449796E+02  0.46204121565E+02  0.47000000000E+01 0. -1.
         -5    1    1    2    0  502  0.10081370820E+02 -0.39283696465E+02 -0.11484158083E+03  0.12188322909E+03  0.47000000000E+01 0. -1.
        -11    1    1    2    0    0 -0.19532114315E+01 -0.13881873291E+02 -0.20621842951E+02  0.24935553887E+02  0.00000000000E+00 0. -1.
         11    1    1    2    0    0 -0.15455302627E+02  0.86446225526E+02  0.43407898012E+02  0.97959491101E+02  0.00000000000E+00 0.  1.
<mgrwt>
<rscale>  0 0.13894572E+03</rscale>
<asrwt>0</asrwt>
<pdfrwt beam="2">  1        2 0.27091728E-01 0.14559536E+03</pdfrwt>
<pdfrwt beam="1">  1       -2 0.17674794E-01 0.14559536E+03</pdfrwt>
<totfact> 0.48993761E+03</totfact>
</mgrwt>
</event>
<event>
 6    1  0.1190675E-005  0.1257396E+03  0.7546771E-02  0.1249020E+00
         -1   -1    0    0    0  501 -0.00000000000E+00  0.00000000000E+00  0.62638200081E+01  0.62638200081E+01  0.00000000000E+00 0.  1.
          1   -1    0    0  501    0  0.00000000000E+00 -0.00000000000E+00 -0.39893517846E+04  0.39893517846E+04  0.00000000000E+00 0. -1.
          5    1    1    2  502    0 -0.13772484043E+02  0.27496946637E+02 -0.33088686121E+04  0.33090148602E+04  0.47000000000E+01 0.  1.
         -5    1    1    2    0  502  0.25077324280E+02 -0.21053385042E+02 -0.26381180865E+03  0.26587756129E+03  0.47000000000E+01 0.  1.
        -11    1    1    2    0    0  0.40411906946E+02 -0.39423444709E+01 -0.16634123464E+03  0.17122520447E+03  0.00000000000E+00 0.  1.
         11    1    1    2    0    0 -0.51716747183E+02 -0.25012171246E+01 -0.24406630928E+03  0.24949797866E+03  0.00000000000E+00 0. -1.
<mgrwt>
<rscale>  0 0.11647954E+03</rscale>
<asrwt>0</asrwt>
<pdfrwt beam="2">  1        1 0.61374776E+00 0.12573956E+03</pdfrwt>
<pdfrwt beam="1">  1       -1 0.96366253E-03 0.12573956E+03</pdfrwt>
<totfact> 0.26720663E+02</totfact>
</mgrwt>
</event>
<event>
 6    1  0.1320929E-005  0.2908718E+03  0.7546771E-02  0.1089895E+00
          1   -1    0    0  501    0  0.00000000000E+00  0.00000000000E+00  0.20622144290E+03  0.20622144290E+03  0.00000000000E+00 0. -1.
         -1   -1    0    0    0  501 -0.00000000000E+00 -0.00000000000E+00 -0.10256743902E+03  0.10256743902E+03  0.00000000000E+00 0.  1.
          5    1    1    2  502    0 -0.14231444158E+02 -0.29678277814E+02 -0.50255566380E+01  0.33625591390E+02  0.47000000000E+01 0. -1.
         -5    1    1    2    0  502  0.10128873795E+03  0.27113710064E+02  0.10582966277E+03  0.14905223658E+03  0.47000000000E+01 0. -1.
        -11    1    1    2    0    0 -0.37923218737E+02 -0.52106541880E+00 -0.44042074233E+02  0.58121823193E+02  0.00000000000E+00 0.  1.
         11    1    1    2    0    0 -0.49134075051E+02  0.30856331683E+01  0.46891971974E+02  0.67989230756E+02  0.00000000000E+00 0. -1.
<mgrwt>
<rscale>  0 0.29087183E+03</rscale>
<asrwt>0</asrwt>
<pdfrwt beam="1">  1        1 0.31726376E-01 0.29087183E+03</pdfrwt>
<pdfrwt beam="2">  1       -1 0.15779606E-01 0.29087183E+03</pdfrwt>
<totfact> 0.41637219E+03</totfact>
</mgrwt>
</event>
<event>
 6    1  0.1190675E-005  0.1877237E+03  0.7546771E-02  0.1188530E+00
          2   -1    0    0  501    0  0.00000000000E+00  0.00000000000E+00  0.39264239250E+03  0.39264239250E+03  0.00000000000E+00 0. -1.
         -2   -1    0    0    0  501 -0.00000000000E+00 -0.00000000000E+00 -0.54296541608E+02  0.54296541608E+02  0.00000000000E+00 0.  1.
          5    1    1    2  502    0 -0.55996977639E+02  0.43085288223E+02  0.15042528862E+03  0.16625841640E+03  0.47000000000E+01 0. -1.
         -5    1    1    2    0  502  0.97811131428E+02 -0.46855420232E+02  0.10776829816E+03  0.15296582600E+03  0.47000000000E+01 0.  1.
        -11    1    1    2    0    0  0.92115504231E+01  0.32325660960E+02  0.54121245927E+02  0.63709577604E+02  0.00000000000E+00 0.  1.
         11    1    1    2    0    0 -0.51025704212E+02 -0.28555528950E+02  0.26031018182E+02  0.64005114105E+02  0.00000000000E+00 0. -1.
<mgrwt>
<rscale>  0 0.16014763E+03</rscale>
<asrwt>0</asrwt>
<pdfrwt beam="1">  1        2 0.60406520E-01 0.18772370E+03</pdfrwt>
<pdfrwt beam="2">  1       -2 0.83533143E-02 0.18772370E+03</pdfrwt>
<totfact> 0.70104700E+03</totfact>
</mgrwt>
</event>
<event>
 6    1  0.1190675E-005  0.1448306E+03  0.7546771E-02  0.1216862E+00
         -1   -1    0    0    0  501 -0.00000000000E+00  0.00000000000E+00  0.14764269622E+02  0.14764269622E+02  0.00000000000E+00 0.  1.
          1   -1    0    0  501    0  0.00000000000E+00 -0.00000000000E+00 -0.11654367838E+04  0.11654367838E+04  0.00000000000E+00 0. -1.
          5    1    1    2  502    0 -0.16242538789E+02  0.29745107887E+02 -0.23559287477E+03  0.23806445378E+03  0.47000000000E+01 0. -1.
         -5    1    1    2    0  502  0.38527973615E+02 -0.99413163543E+02 -0.42156924817E+03  0.43486791424E+03  0.47000000000E+01 0. -1.
        -11    1    1    2    0    0  0.12460827248E+02 -0.16728801385E+02 -0.51670433510E+02  0.55722156371E+02  0.00000000000E+00 0.  1.
         11    1    1    2    0    0 -0.34746262075E+02  0.86396857040E+02 -0.44183995776E+03  0.45154652906E+03  0.00000000000E+00 0. -1.
<mgrwt>
<rscale>  0 0.13740679E+03</rscale>
<asrwt>0</asrwt>
<pdfrwt beam="2">  1        1 0.17929800E+00 0.14483065E+03</pdfrwt>
<pdfrwt beam="1">  1       -1 0.22714257E-02 0.14483065E+03</pdfrwt>
<totfact> 0.67283116E+03</totfact>
</mgrwt>
</event>
<event>
 6    1  0.1190675E-005  0.1709104E+03  0.7546771E-02  0.1183533E+00
         -1   -1    0    0    0  501 -0.00000000000E+00  0.00000000000E+00  0.70911554194E+02  0.70911554194E+02  0.00000000000E+00 0.  1.
          1   -1    0    0  501    0  0.00000000000E+00 -0.00000000000E+00 -0.37220948474E+03  0.37220948474E+03  0.00000000000E+00 0. -1.
          5    1    1    2  502    0  0.64256209584E+02 -0.87817109637E+02 -0.13440456372E+03  0.17299532353E+03  0.47000000000E+01 0.  1.
         -5    1    1    2    0  502 -0.54871269979E+02 -0.28367734889E+02 -0.71835748433E+02  0.94858048708E+02  0.47000000000E+01 0.  1.
        -11    1    1    2    0    0 -0.12396836175E+02  0.10574658344E+03 -0.31849094423E+02  0.11113229176E+03  0.00000000000E+00 0.  1.
         11    1    1    2    0    0  0.30118965691E+01  0.10438261088E+02 -0.63208523969E+02  0.64135374933E+02  0.00000000000E+00 0. -1.
<mgrwt>
<rscale>  0 0.16466101E+03</rscale>
<asrwt>0</asrwt>
<pdfrwt beam="2">  1        1 0.57262997E-01 0.17091039E+03</pdfrwt>
<pdfrwt beam="1">  1       -1 0.10909470E-01 0.17091039E+03</pdfrwt>
<totfact> 0.34604514E+03</totfact>
</mgrwt>
</event>
<event>
 6    1  0.1190675E-005  0.1503233E+03  0.7546771E-02  0.1209245E+00
         -1   -1    0    0    0  501 -0.00000000000E+00  0.00000000000E+00  0.27650799880E+03  0.27650799880E+03  0.00000000000E+00 0.  1.
          1   -1    0    0  501    0  0.00000000000E+00 -0.00000000000E+00 -0.10785259841E+03  0.10785259841E+03  0.00000000000E+00 0. -1.
          5    1    1    2  502    0 -0.15489784378E+02 -0.44466741370E+02 -0.41503536455E+02  0.62943292307E+02  0.47000000000E+01 0.  1.
         -5    1    1    2    0  502  0.88502169813E+02  0.39619098592E+01  0.14184736081E+02  0.89842236888E+02  0.47000000000E+01 0.  1.
        -11    1    1    2    0    0 -0.12699665498E+02  0.28073189424E+01 -0.81944762837E+01  0.15372442388E+02  0.00000000000E+00 0. -1.
         11    1    1    2    0    0 -0.60312719937E+02  0.37697512569E+02  0.20416867705E+03  0.21620262563E+03  0.00000000000E+00 0.  1.
<mgrwt>
<rscale>  0 0.14307891E+03</rscale>
<asrwt>0</asrwt>
<pdfrwt beam="2">  1        1 0.16592708E-01 0.15032332E+03</pdfrwt>
<pdfrwt beam="1">  1       -1 0.42539692E-01 0.15032332E+03</pdfrwt>
<totfact> 0.17661990E+03</totfact>
</mgrwt>
</event>
<event>
 6    1  0.1190675E-005  0.1774701E+03  0.7546771E-02  0.1190954E+00
          1   -1    0    0  501    0  0.00000000000E+00  0.00000000000E+00  0.13055988820E+04  0.13055988820E+04  0.00000000000E+00 0. -1.
         -1   -1    0    0    0  501 -0.00000000000E+00 -0.00000000000E+00 -0.36910366783E+02  0.36910366783E+02  0.00000000000E+00 0.  1.
          5    1    1    2  502    0 -0.99298415339E+02 -0.23417129395E+02  0.71893123673E+03  0.72614926178E+03  0.47000000000E+01 0. -1.
         -5    1    1    2    0  502  0.69975885815E+02 -0.26915435516E+02  0.47769427405E+03  0.48356486093E+03  0.47000000000E+01 0.  1.
        -11    1    1    2    0    0  0.14054369055E+02  0.74758051131E+02  0.70869906349E+02  0.10396554778E+03  0.00000000000E+00 0. -1.
         11    1    1    2    0    0  0.15268160469E+02 -0.24425486221E+02  0.11930980765E+01  0.28829578288E+02  0.00000000000E+00 0.  1.
<mgrwt>
<rscale>  0 0.15801667E+03</rscale>
<asrwt>0</asrwt>
<pdfrwt beam="1">  1        1 0.20086133E+00 0.17747013E+03</pdfrwt>
<pdfrwt beam="2">  1       -1 0.56785190E-02 0.17747013E+03</pdfrwt>
<totfact> 0.14084700E+03</totfact>
</mgrwt>
</event>
<event>
 6    1  0.1190675E-005  0.1277698E+03  0.7546771E-02  0.1245342E+00
         -2   -1    0    0    0  501 -0.00000000000E+00  0.00000000000E+00  0.49327001879E+02  0.49327001879E+02  0.00000000000E+00 0.  1.
          2   -1    0    0  501    0  0.00000000000E+00 -0.00000000000E+00 -0.25688546106E+03  0.25688546106E+03  0.00000000000E+00 0. -1.
          5    1    1    2  502    0 -0.14826239485E+02 -0.75446779824E+02 -0.87325998496E+02  0.11644721541E+03  0.47000000000E+01 0.  1.
         -5    1    1    2    0  502  0.10951993391E+02  0.49267163473E+02 -0.53237767009E+02  0.73508838870E+02  0.47000000000E+01 0.  1.
        -11    1    1    2    0    0 -0.93480337799E+01 -0.32372701391E+02 -0.15168253701E+02  0.36952042586E+02  0.00000000000E+00 0.  1.
         11    1    1    2    0    0  0.13222279874E+02  0.58552317742E+02 -0.51826439972E+02  0.79304366073E+02  0.00000000000E+00 0. -1.
<mgrwt>
<rscale>  0 0.11864946E+03</rscale>
<asrwt>0</asrwt>
<pdfrwt beam="2">  1        2 0.39520841E-01 0.12776983E+03</pdfrwt>
<pdfrwt beam="1">  1       -2 0.75887694E-02 0.12776983E+03</pdfrwt>
<totfact> 0.12451474E+04</totfact>
</mgrwt>
</event>
<event>
 6    1  0.1190675E-005  0.2475366E+03  0.7546771E-02  0.1114872E+00
          2   -1    0    0  501    0  0.00000000000E+00  0.00000000000E+00  0.45579656798E+02  0.45579656798E+02  0.00000000000E+00 0. -1.
         -2   -1    0    0    0  501 -0.00000000000E+00 -0.00000000000E+00 -0.33608388072E+03  0.33608388072E+03  0.00000000000E+00 0.  1.
          5    1    1    2  502    0  0.48695074108E+00 -0.19906044216E+02  0.17396069254E+02  0.26855184654E+02  0.47000000000E+01 0. -1.
         -5    1    1    2    0  502  0.36909893816E+02  0.37776039360E+02 -0.15408148998E+03  0.16294957799E+03  0.47000000000E+01 0. -1.
        -11    1    1    2    0    0  0.23648061212E+02 -0.41355136616E+02 -0.81063916993E+02  0.94025723937E+02  0.00000000000E+00 0.  1.
         11    1    1    2    0    0 -0.61044905768E+02  0.23485141472E+02 -0.72754886203E+02  0.97833050942E+02  0.00000000000E+00 0. -1.
<mgrwt>
<rscale>  0 0.24753657E+03</rscale>
<asrwt>0</asrwt>
<pdfrwt beam="1">  1        2 0.70122552E-02 0.24753657E+03</pdfrwt>
<pdfrwt beam="2">  1       -2 0.51705210E-01 0.24753657E+03</pdfrwt>
<totfact> 0.35839744E+03</totfact>
</mgrwt>
</event>
<event>
 6    1  0.1190675E-005  0.1312515E+03  0.7546771E-02  0.1237663E+00
         -2   -1    0    0    0  501 -0.00000000000E+00  0.00000000000E+00  0.14606854670E+02  0.14606854670E+02  0.00000000000E+00 0.  1.
          2   -1    0    0  501    0  0.00000000000E+00 -0.00000000000E+00 -0.10640073884E+04  0.10640073884E+04  0.00000000000E+00 0. -1.
          5    1    1    2  502    0 -0.19804774000E+02 -0.48161444196E+02 -0.19099598454E+03  0.19802350843E+03  0.47000000000E+01 0.  1.
         -5    1    1    2    0  502 -0.15509147381E+02  0.67002506073E+02 -0.57756043643E+03  0.58165970911E+03  0.47000000000E+01 0.  1.
        -11    1    1    2    0    0  0.60097388276E+02  0.13503669938E+02 -0.16402712049E+03  0.17521113388E+03  0.00000000000E+00 0.  1.
         11    1    1    2    0    0 -0.24783466895E+02 -0.32344731814E+02 -0.11681699230E+03  0.12371989168E+03  0.00000000000E+00 0. -1.
<mgrwt>
<rscale>  0 0.12335482E+03</rscale>
<asrwt>0</asrwt>
<pdfrwt beam="2">  1        2 0.16369345E+00 0.13125147E+03</pdfrwt>
<pdfrwt beam="1">  1       -2 0.22472084E-02 0.13125147E+03</pdfrwt>
<totfact> 0.14957000E+04</totfact>
</mgrwt>
</event>
<event>
 6    1  0.1190675E-005  0.1871806E+03  0.7546771E-02  0.1165971E+00
          2   -1    0    0  501    0  0.00000000000E+00  0.00000000000E+00  0.37956908804E+03  0.37956908804E+03  0.00000000000E+00 0. -1.
         -2   -1    0    0    0  501 -0.00000000000E+00 -0.00000000000E+00 -0.15866913714E+03  0.15866913714E+03  0.00000000000E+00 0.  1.
          5    1    1    2  502    0 -0.27899501395E+02  0.35785472875E+02  0.15838878105E+02  0.48290188513E+02  0.47000000000E+01 0.  1.
         -5    1    1    2    0  502 -0.11021958119E+03 -0.17428613761E+02  0.28407056208E+03  0.30523808232E+03  0.47000000000E+01 0.  1.
        -11    1    1    2    0    0  0.55041245210E+02 -0.12624460479E+02  0.15684178660E+02  0.58608097878E+02  0.00000000000E+00 0. -1.
         11    1    1    2    0    0  0.83077837376E+02 -0.57323986357E+01 -0.94693667947E+02  0.12610185648E+03  0.00000000000E+00 0.  1.
<mgrwt>
<rscale>  0 0.18190639E+03</rscale>
<asrwt>0</asrwt>
<pdfrwt beam="1">  1        2 0.58395244E-01 0.18718057E+03</pdfrwt>
<pdfrwt beam="2">  1       -2 0.24410637E-01 0.18718057E+03</pdfrwt>
<totfact> 0.12474258E+03</totfact>
</mgrwt>
</event>
<event>
 6    1  0.1190675E-005  0.1557978E+03  0.7546771E-02  0.1202256E+00
         -4   -1    0    0    0  501 -0.00000000000E+00  0.00000000000E+00  0.73853783485E+02  0.73853783485E+02  0.00000000000E+00 0.  1.
          4   -1    0    0  501    0  0.00000000000E+00 -0.00000000000E+00 -0.27468323595E+03  0.27468323595E+03  0.00000000000E+00 0. -1.
          5    1    1    2  502    0  0.84864355800E+02  0.86630450120E+02 -0.66909456725E+02  0.13858484467E+03  0.47000000000E+01 0.  1.
         -5    1    1    2    0  502 -0.11379975518E+02 -0.29639581805E+02 -0.35498308822E+02  0.47856332722E+02  0.47000000000E+01 0.  1.
        -11    1    1    2    0    0 -0.33344302702E+02  0.54032226734E+01 -0.78222816652E+02  0.85204732163E+02  0.00000000000E+00 0. -1.
         11    1    1    2    0    0 -0.40140077581E+02 -0.62394090988E+02 -0.20198870266E+02  0.76891109880E+02  0.00000000000E+00 0.  1.
<mgrwt>
<rscale>  0 0.14855801E+03</rscale>
<asrwt>0</asrwt>
<pdfrwt beam="2">  1        4 0.42258960E-01 0.15579782E+03</pdfrwt>
<pdfrwt beam="1">  1       -4 0.11362120E-01 0.15579782E+03</pdfrwt>
<totfact> 0.56658718E+02</totfact>
</mgrwt>
</event>
<event>
 6    1  0.1190675E-005  0.1850645E+03  0.7546771E-02  0.1168158E+00
         -3   -1    0    0    0  501 -0.00000000000E+00  0.00000000000E+00  0.43262995843E+03  0.43262995843E+03  0.00000000000E+00 0.  1.
          3   -1    0    0  501    0  0.00000000000E+00 -0.00000000000E+00 -0.15259007743E+03  0.15259007743E+03  0.00000000000E+00 0. -1.
          5    1    1    2  502    0  0.11343497326E+02  0.83044264695E+02 -0.10350638500E+03  0.13326922588E+03  0.47000000000E+01 0.  1.
         -5    1    1    2    0  502 -0.15480922551E+02  0.53375207022E+02  0.32961145043E+02  0.64785019644E+02  0.47000000000E+01 0.  1.
        -11    1    1    2    0    0  0.24358927561E+02 -0.14033208607E+03  0.28830662740E+03  0.32156984177E+03  0.00000000000E+00 0.  1.
         11    1    1    2    0    0 -0.20221502336E+02  0.39126143514E+01  0.62278493558E+02  0.65595948561E+02  0.00000000000E+00 0. -1.
<mgrwt>
<rscale>  0 0.17963354E+03</rscale>
<asrwt>0</asrwt>
<pdfrwt beam="2">  1        3 0.23475397E-01 0.18506446E+03</pdfrwt>
<pdfrwt beam="1">  1       -3 0.66558455E-01 0.18506446E+03</pdfrwt>
<totfact> 0.90469106E+01</totfact>
</mgrwt>
</event>
<event>
 6    1  0.1190675E-005  0.1291448E+03  0.7546771E-02  0.1242656E+00
         -1   -1    0    0    0  501 -0.00000000000E+00  0.00000000000E+00  0.59980269399E+02  0.59980269399E+02  0.00000000000E+00 0.  1.
          1   -1    0    0  501    0  0.00000000000E+00 -0.00000000000E+00 -0.22227241486E+03  0.22227241486E+03  0.00000000000E+00 0. -1.
          5    1    1    2  502    0  0.60212057364E+02  0.24763955418E+02 -0.64469280179E+02  0.91744882292E+02  0.47000000000E+01 0. -1.
         -5    1    1    2    0  502 -0.63121306500E+02  0.76304667255E+01 -0.55603949531E+02  0.84595582391E+02  0.47000000000E+01 0. -1.
        -11    1    1    2    0    0  0.35535335547E+02  0.79795555200E+01  0.37004783230E+01  0.36607743970E+02  0.00000000000E+00 0.  1.
         11    1    1    2    0    0 -0.32626086411E+02 -0.40373977663E+02 -0.45919394070E+02  0.69304475603E+02  0.00000000000E+00 0. -1.
<mgrwt>
<rscale>  0 0.12026803E+03</rscale>
<asrwt>0</asrwt>
<pdfrwt beam="2">  1        1 0.34195756E-01 0.12914480E+03</pdfrwt>
<pdfrwt beam="1">  1       -1 0.92277337E-02 0.12914480E+03</pdfrwt>
<totfact> 0.83524226E+03</totfact>
</mgrwt>
</event>
<event>
 6    1  0.1190675E-005  0.1458864E+03  0.7546771E-02  0.1215532E+00
          2   -1    0    0  501    0  0.00000000000E+00  0.00000000000E+00  0.86480897381E+03  0.86480897381E+03  0.00000000000E+00 0. -1.
         -2   -1    0    0    0  501 -0.00000000000E+00 -0.00000000000E+00 -0.34810617194E+02  0.34810617194E+02  0.00000000000E+00 0.  1.
          5    1    1    2  502    0 -0.14728104585E+02 -0.30685918601E+02  0.59284263506E+03  0.59383753890E+03  0.47000000000E+01 0. -1.
         -5    1    1    2    0  502  0.51509925827E+02 -0.34927763621E+02  0.13849015859E+03  0.15190403272E+03  0.47000000000E+01 0. -1.
        -11    1    1    2    0    0 -0.92067038502E+01  0.68717535404E+01 -0.17431037538E+02  0.20876433176E+02  0.00000000000E+00 0.  1.
         11    1    1    2    0    0 -0.27575117391E+02  0.58741928681E+02  0.11609660050E+03  0.13300158620E+03  0.00000000000E+00 0. -1.
<mgrwt>
<rscale>  0 0.13837503E+03</rscale>
<asrwt>0</asrwt>
<pdfrwt beam="1">  1        2 0.13304752E+00 0.14588638E+03</pdfrwt>
<pdfrwt beam="2">  1       -2 0.53554802E-02 0.14588638E+03</pdfrwt>
<totfact> 0.55051459E+03</totfact>
</mgrwt>
</event>
<event>
 6    1  0.1190675E-005  0.2975086E+03  0.7546771E-02  0.1086493E+00
         -2   -1    0    0    0  501 -0.00000000000E+00  0.00000000000E+00  0.39339003170E+02  0.39339003170E+02  0.00000000000E+00 0. -1.
          2   -1    0    0  501    0  0.00000000000E+00 -0.00000000000E+00 -0.56249106609E+03  0.56249106609E+03  0.00000000000E+00 0.  1.
          5    1    1    2  502    0  0.51446997572E+01  0.87678663337E+01  0.14167194880E+02  0.18059424864E+02  0.47000000000E+01 0.  1.
         -5    1    1    2    0  502  0.72936135110E+02  0.50565784437E+02 -0.25882505295E+03  0.27365868595E+03  0.47000000000E+01 0.  1.
        -11    1    1    2    0    0 -0.46293334748E+01 -0.46679053754E+02 -0.44971094478E+02  0.64982798696E+02  0.00000000000E+00 0. -1.
         11    1    1    2    0    0 -0.73451501393E+02 -0.12654597017E+02 -0.23352311037E+03  0.24512915975E+03  0.00000000000E+00 0.  1.
<mgrwt>
<rscale>  0 0.29750857E+03</rscale>
<asrwt>0</asrwt>
<pdfrwt beam="2">  1        2 0.86537075E-01 0.29750857E+03</pdfrwt>
<pdfrwt beam="1">  1       -2 0.60521551E-02 0.29750857E+03</pdfrwt>
<totfact> 0.79337831E+03</totfact>
</mgrwt>
</event>
<event>
 6    1  0.1190675E-005  0.1769464E+03  0.7546771E-02  0.1195487E+00
          2   -1    0    0  501    0  0.00000000000E+00  0.00000000000E+00  0.18213163943E+03  0.18213163943E+03  0.00000000000E+00 0. -1.
         -2   -1    0    0    0  501 -0.00000000000E+00 -0.00000000000E+00 -0.19562428580E+03  0.19562428580E+03  0.00000000000E+00 0.  1.
          5    1    1    2  502    0 -0.10396935750E+03 -0.21448983103E+02  0.59698670831E+02  0.12188399187E+03  0.47000000000E+01 0. -1.
         -5    1    1    2    0  502  0.69483327296E+02 -0.31502120141E+01  0.57361889531E+02  0.90279194605E+02  0.47000000000E+01 0.  1.
        -11    1    1    2    0    0 -0.19026841364E+02 -0.22384455541E+02 -0.50720598303E+02  0.58614534327E+02  0.00000000000E+00 0. -1.
         11    1    1    2    0    0  0.53512871568E+02  0.46983650659E+02 -0.79832608434E+02  0.10697820443E+03  0.00000000000E+00 0.  1.
<mgrwt>
<rscale>  0 0.15413078E+03</rscale>
<asrwt>0</asrwt>
<pdfrwt beam="1">  1        2 0.28020252E-01 0.17694644E+03</pdfrwt>
<pdfrwt beam="2">  1       -2 0.30096044E-01 0.17694644E+03</pdfrwt>
<totfact> 0.18932603E+03</totfact>
</mgrwt>
</event>
<event>
 6    1  0.1190675E-005  0.1765357E+03  0.7546771E-02  0.1200380E+00
          1   -1    0    0  501    0  0.00000000000E+00  0.00000000000E+00  0.89276668652E+02  0.89276668652E+02  0.00000000000E+00 0. -1.
         -1   -1    0    0    0  501 -0.00000000000E+00 -0.00000000000E+00 -0.20256192579E+03  0.20256192579E+03  0.00000000000E+00 0.  1.
          5    1    1    2  502    0 -0.47204418792E+02  0.49693403162E+02  0.24561992432E+02  0.72959392429E+02  0.47000000000E+01 0. -1.
         -5    1    1    2    0  502  0.47181260870E+02 -0.37837952297E+02 -0.10450125004E+03  0.12083204571E+03  0.47000000000E+01 0.  1.
        -11    1    1    2    0    0 -0.15509768649E+01  0.36695188487E+02 -0.33142051554E+02  0.49470576796E+02  0.00000000000E+00 0. -1.
         11    1    1    2    0    0  0.15741347866E+01 -0.48550639353E+02 -0.20394798026E+00  0.48576579508E+02  0.00000000000E+00 0.  1.
<mgrwt>
<rscale>  0 0.15007554E+03</rscale>
<asrwt>0</asrwt>
<pdfrwt beam="1">  1        1 0.13734872E-01 0.17653565E+03</pdfrwt>
<pdfrwt beam="2">  1       -1 0.31163373E-01 0.17653565E+03</pdfrwt>
<totfact> 0.39028153E+03</totfact>
</mgrwt>
</event>
<event>
 6    1  0.1190675E-005  0.1387691E+03  0.7546771E-02  0.1226002E+00
         -1   -1    0    0    0  501 -0.00000000000E+00  0.00000000000E+00  0.16719166252E+02  0.16719166252E+02  0.00000000000E+00 0.  1.
          1   -1    0    0  501    0  0.00000000000E+00 -0.00000000000E+00 -0.10135492250E+04  0.10135492250E+04  0.00000000000E+00 0. -1.
          5    1    1    2  502    0 -0.69627640755E+02  0.20079380685E+02 -0.20602137692E+03  0.21844470155E+03  0.47000000000E+01 0. -1.
         -5    1    1    2    0  502  0.10156030318E+02 -0.32359899081E+02 -0.49480426248E+03  0.49598755649E+03  0.47000000000E+01 0.  1.
        -11    1    1    2    0    0 -0.12175971647E+02  0.14156751231E+02 -0.10394932962E+02  0.21371067410E+02  0.00000000000E+00 0. -1.
         11    1    1    2    0    0  0.71647582084E+02 -0.18762328348E+01 -0.28560948635E+03  0.29446506577E+03  0.00000000000E+00 0.  1.
<mgrwt>
<rscale>  0 0.13098437E+03</rscale>
<asrwt>0</asrwt>
<pdfrwt beam="2">  1        1 0.15593062E+00 0.13876914E+03</pdfrwt>
<pdfrwt beam="1">  1       -1 0.25721799E-02 0.13876914E+03</pdfrwt>
<totfact> 0.71851655E+03</totfact>
</mgrwt>
</event>
<event>
 6    1  0.1190675E-005  0.1287851E+03  0.7546771E-02  0.1243941E+00
         -1   -1    0    0    0  501 -0.00000000000E+00  0.00000000000E+00  0.10786516822E+03  0.10786516822E+03  0.00000000000E+00 0.  1.
          1   -1    0    0  501    0  0.00000000000E+00 -0.00000000000E+00 -0.17246102073E+03  0.17246102073E+03  0.00000000000E+00 0. -1.
          5    1    1    2  502    0 -0.16507813025E+01  0.17285091260E+02 -0.12429394807E+03  0.12558891267E+03  0.47000000000E+01 0. -1.
         -5    1    1    2    0  502 -0.15776006419E+02 -0.42885560062E+02  0.95265208624E+01  0.46913731893E+02  0.47000000000E+01 0. -1.
        -11    1    1    2    0    0 -0.20293872023E+02  0.14355613192E+02 -0.16897542903E+02  0.30057475409E+02  0.00000000000E+00 0. -1.
         11    1    1    2    0    0  0.37720659745E+02  0.11244855610E+02  0.67069117595E+02  0.77766068978E+02  0.00000000000E+00 0.  1.
<mgrwt>
<rscale>  0 0.11948996E+03</rscale>
<asrwt>0</asrwt>
<pdfrwt beam="2">  1        1 0.26532464E-01 0.12878509E+03</pdfrwt>
<pdfrwt beam="1">  1       -1 0.16594641E-01 0.12878509E+03</pdfrwt>
<totfact> 0.46216590E+03</totfact>
</mgrwt>
</event>
<event>
 6    1  0.1190675E-005  0.2884089E+03  0.7546771E-02  0.1091183E+00
          1   -1    0    0  501    0  0.00000000000E+00  0.00000000000E+00  0.45985701413E+03  0.45985701413E+03  0.00000000000E+00 0. -1.
         -1   -1    0    0    0  501 -0.00000000000E+00 -0.00000000000E+00 -0.45220425191E+02  0.45220425191E+02  0.00000000000E+00 0.  1.
          5    1    1    2  502    0 -0.86424470240E+02  0.44663241740E+02  0.98973500743E+02  0.13885905829E+03  0.47000000000E+01 0. -1.
         -5    1    1    2    0  502  0.48709989778E+01 -0.23696783338E+01  0.18157304657E+03  0.18171462035E+03  0.47000000000E+01 0. -1.
        -11    1    1    2    0    0  0.56690660533E+02 -0.40801807669E+01  0.12596689770E+03  0.13819601363E+03  0.00000000000E+00 0. -1.
         11    1    1    2    0    0  0.24862810729E+02 -0.38213382639E+02  0.81231439189E+01  0.46307747054E+02  0.00000000000E+00 0.  1.
<mgrwt>
<rscale>  0 0.28840894E+03</rscale>
<asrwt>0</asrwt>
<pdfrwt beam="1">  1        1 0.70747230E-01 0.28840894E+03</pdfrwt>
<pdfrwt beam="2">  1       -1 0.69569888E-02 0.28840894E+03</pdfrwt>
<totfact> 0.53681830E+03</totfact>
</mgrwt>
</event>
<event>
 6    1  0.1190675E-005  0.3239911E+03  0.7546771E-02  0.1073827E+00
         -2   -1    0    0    0  501 -0.00000000000E+00  0.00000000000E+00  0.13018604877E+02  0.13018604877E+02  0.00000000000E+00 0.  1.
          2   -1    0    0  501    0  0.00000000000E+00 -0.00000000000E+00 -0.20157740088E+04  0.20157740088E+04  0.00000000000E+00 0. -1.
          5    1    1    2  502    0 -0.11837492817E+03  0.10547977454E+02 -0.12887857663E+04  0.12942622318E+04  0.47000000000E+01 0. -1.
         -5    1    1    2    0  502  0.30920586482E+02 -0.11031266974E+02 -0.29759344796E+03  0.29943567220E+03  0.47000000000E+01 0. -1.
        -11    1    1    2    0    0  0.64395857639E+02  0.40546802726E+02 -0.30820614552E+03  0.31746164781E+03  0.00000000000E+00 0. -1.
         11    1    1    2    0    0  0.23058484044E+02 -0.40063513206E+02 -0.10817004420E+03  0.11763306185E+03  0.00000000000E+00 0.  1.
<mgrwt>
<rscale>  0 0.32399114E+03</rscale>
<asrwt>0</asrwt>
<pdfrwt beam="2">  1        2 0.31011905E+00 0.32399114E+03</pdfrwt>
<pdfrwt beam="1">  1       -2 0.20028625E-02 0.32399114E+03</pdfrwt>
<totfact> 0.56234352E+03</totfact>
</mgrwt>
</event>
<event>
 6    1  0.1190675E-005  0.2250819E+03  0.7546771E-02  0.1133237E+00
         -2   -1    0    0    0  501 -0.00000000000E+00  0.00000000000E+00  0.36893708619E+02  0.36893708619E+02  0.00000000000E+00 0.  1.
          2   -1    0    0  501    0  0.00000000000E+00 -0.00000000000E+00 -0.13550514054E+04  0.13550514054E+04  0.00000000000E+00 0. -1.
          5    1    1    2  502    0 -0.11090504034E+03  0.22955403667E+02 -0.45407154912E+03  0.46800634638E+03  0.47000000000E+01 0.  1.
         -5    1    1    2    0  502 -0.63256434440E+02 -0.91550351251E+02 -0.39742810845E+03  0.41273966940E+03  0.47000000000E+01 0.  1.
        -11    1    1    2    0    0  0.14797644662E+02 -0.12828114439E+02 -0.12966281041E+02  0.23487342371E+02  0.00000000000E+00 0.  1.
         11    1    1    2    0    0  0.15936383011E+03  0.81423062023E+02 -0.45369175812E+03  0.48771175582E+03  0.00000000000E+00 0. -1.
<mgrwt>
<rscale>  0 0.22086911E+03</rscale>
<asrwt>0</asrwt>
<pdfrwt beam="2">  1        2 0.20846946E+00 0.22508194E+03</pdfrwt>
<pdfrwt beam="1">  1       -2 0.56759547E-02 0.22508194E+03</pdfrwt>
<totfact> 0.26343923E+03</totfact>
</mgrwt>
</event>
<event>
 6    1  0.1190675E-005  0.2364602E+03  0.7546771E-02  0.1125085E+00
         -2   -1    0    0    0  501 -0.00000000000E+00  0.00000000000E+00  0.51072310365E+02  0.51072310365E+02  0.00000000000E+00 0.  1.
          2   -1    0    0  501    0  0.00000000000E+00 -0.00000000000E+00 -0.11518178659E+04  0.11518178659E+04  0.00000000000E+00 0. -1.
          5    1    1    2  502    0 -0.63504973811E+02  0.20687572112E+02 -0.34779257312E+03  0.35417879843E+03  0.47000000000E+01 0.  1.
         -5    1    1    2    0  502 -0.30913982097E+02  0.15643807385E+03 -0.42374923900E+03  0.45278477535E+03  0.47000000000E+01 0.  1.
        -11    1    1    2    0    0  0.73525043434E+02 -0.68284470353E+02 -0.10172989192E+03  0.14289041890E+03  0.00000000000E+00 0.  1.
         11    1    1    2    0    0  0.20893912474E+02 -0.10884117561E+03 -0.22747385145E+03  0.25303618354E+03  0.00000000000E+00 0. -1.
<mgrwt>
<rscale>  0 0.23222284E+03</rscale>
<asrwt>0</asrwt>
<pdfrwt beam="2">  1        2 0.17720275E+00 0.23646023E+03</pdfrwt>
<pdfrwt beam="1">  1       -2 0.78572785E-02 0.23646023E+03</pdfrwt>
<totfact> 0.20702250E+03</totfact>
</mgrwt>
</event>
<event>
 6    1  0.1190675E-005  0.1899241E+03  0.7546771E-02  0.1163526E+00
         -1   -1    0    0    0  501 -0.00000000000E+00  0.00000000000E+00  0.75047613155E+02  0.75047613155E+02  0.00000000000E+00 0.  1.
          1   -1    0    0  501    0  0.00000000000E+00 -0.00000000000E+00 -0.50848960788E+03  0.50848960788E+03  0.00000000000E+00 0. -1.
          5    1    1    2  502    0 -0.88089667333E+02 -0.80593589853E+02 -0.32031985039E+03  0.34188011462E+03  0.47000000000E+01 0. -1.
         -5    1    1    2    0  502  0.14324946523E+02 -0.41770108577E+02 -0.21911338661E+02  0.49519115757E+02  0.47000000000E+01 0. -1.
        -11    1    1    2    0    0  0.28047719860E+02 -0.97251946889E+00  0.58493700706E+01  0.28667673670E+02  0.00000000000E+00 0.  1.
         11    1    1    2    0    0  0.45717000950E+02  0.12333621790E+03 -0.97060175739E+02  0.16347031699E+03  0.00000000000E+00 0. -1.
<mgrwt>
<rscale>  0 0.18449147E+03</rscale>
<asrwt>0</asrwt>
<pdfrwt beam="2">  1        1 0.78229168E-01 0.18992412E+03</pdfrwt>
<pdfrwt beam="1">  1       -1 0.11545787E-01 0.18992412E+03</pdfrwt>
<totfact> 0.21280405E+03</totfact>
</mgrwt>
</event>
<event>
 6    1  0.1190675E-005  0.1844032E+03  0.7546771E-02  0.1168446E+00
          1   -1    0    0  501    0  0.00000000000E+00  0.00000000000E+00  0.46019807734E+03  0.46019807734E+03  0.00000000000E+00 0. -1.
         -1   -1    0    0    0  501 -0.00000000000E+00 -0.00000000000E+00 -0.78231884834E+02  0.78231884834E+02  0.00000000000E+00 0.  1.
          5    1    1    2  502    0  0.73250884548E+02 -0.28093443975E+02  0.26097415574E+03  0.27255189166E+03  0.47000000000E+01 0.  1.
         -5    1    1    2    0  502  0.62176427259E+02  0.34704589859E+02  0.43992674514E+02  0.83831748609E+02  0.47000000000E+01 0.  1.
        -11    1    1    2    0    0 -0.57968857328E+02 -0.37470104430E+02  0.70383042051E+00  0.69028200927E+02  0.00000000000E+00 0.  1.
         11    1    1    2    0    0 -0.77458454479E+02  0.30858958546E+02  0.76295531835E+02  0.11301812098E+03  0.00000000000E+00 0. -1.
<mgrwt>
<rscale>  0 0.17933757E+03</rscale>
<asrwt>0</asrwt>
<pdfrwt beam="1">  1        1 0.70799702E-01 0.18440318E+03</pdfrwt>
<pdfrwt beam="2">  1       -1 0.12035675E-01 0.18440318E+03</pdfrwt>
<totfact> 0.22719792E+03</totfact>
</mgrwt>
</event>
<event>
 6    1  0.1190675E-005  0.1408046E+03  0.7546771E-02  0.1225431E+00
          1   -1    0    0  501    0  0.00000000000E+00  0.00000000000E+00  0.11480671180E+03  0.11480671180E+03  0.00000000000E+00 0. -1.
         -1   -1    0    0    0  501 -0.00000000000E+00 -0.00000000000E+00 -0.13603684392E+03  0.13603684392E+03  0.00000000000E+00 0.  1.
          5    1    1    2  502    0  0.98021538739E+01  0.53956917685E+02  0.10057462082E+02  0.55952423810E+02  0.47000000000E+01 0. -1.
         -5    1    1    2    0  502  0.54033661298E+02 -0.65204682034E+02 -0.48090134864E+01  0.84950007199E+02  0.47000000000E+01 0. -1.
        -11    1    1    2    0    0 -0.30502267014E+02 -0.20001064930E+02 -0.47299756013E+02  0.59730208524E+02  0.00000000000E+00 0.  1.
         11    1    1    2    0    0 -0.33333548157E+02  0.31248829279E+02  0.20821175298E+02  0.50210916192E+02  0.00000000000E+00 0. -1.
<mgrwt>
<rscale>  0 0.13137382E+03</rscale>
<asrwt>0</asrwt>
<pdfrwt beam="1">  1        1 0.17662571E-01 0.14080465E+03</pdfrwt>
<pdfrwt beam="2">  1       -1 0.20928745E-01 0.14080465E+03</pdfrwt>
<totfact> 0.53708114E+03</totfact>
</mgrwt>
</event>
<event>
 6    1  0.1190675E-005  0.2971823E+03  0.7546771E-02  0.1086658E+00
         -1   -1    0    0    0  501 -0.00000000000E+00  0.00000000000E+00  0.17946224636E+03  0.17946224636E+03  0.00000000000E+00 0. -1.
          1   -1    0    0  501    0  0.00000000000E+00 -0.00000000000E+00 -0.12303047378E+03  0.12303047378E+03  0.00000000000E+00 0.  1.
          5    1    1    2  502    0  0.36039253419E+02  0.87878220042E+02 -0.27138413111E+01  0.95136030395E+02  0.47000000000E+01 0.  1.
         -5    1    1    2    0  502 -0.20023693220E+02 -0.32497194116E+02 -0.23261752868E+02  0.44946802579E+02  0.47000000000E+01 0.  1.
        -11    1    1    2    0    0 -0.45571522339E+02  0.76383483310E+00 -0.13391579484E+02  0.47504541815E+02  0.00000000000E+00 0.  1.
         11    1    1    2    0    0  0.29555962140E+02 -0.56144860759E+02  0.95798946243E+02  0.11490534535E+03  0.00000000000E+00 0. -1.
<mgrwt>
<rscale>  0 0.29718227E+03</rscale>
<asrwt>0</asrwt>
<pdfrwt beam="2">  1        1 0.18927765E-01 0.29718227E+03</pdfrwt>
<pdfrwt beam="1">  1       -1 0.27609576E-01 0.29718227E+03</pdfrwt>
<totfact> 0.32246844E+03</totfact>
</mgrwt>
</event>
<event>
 6    1  0.1190675E-005  0.1252954E+03  0.7546771E-02  0.1249829E+00
          2   -1    0    0  501    0  0.00000000000E+00  0.00000000000E+00  0.11238842488E+04  0.11238842488E+04  0.00000000000E+00 0. -1.
         -2   -1    0    0    0  501 -0.00000000000E+00 -0.00000000000E+00 -0.12879367568E+02  0.12879367568E+02  0.00000000000E+00 0.  1.
          5    1    1    2  502    0  0.25572966254E+02  0.51876174006E+02  0.24928959852E+03  0.25595411300E+03  0.47000000000E+01 0. -1.
         -5    1    1    2    0  502 -0.20723396583E+02 -0.49540885151E+02  0.61688670666E+03  0.61923748055E+03  0.47000000000E+01 0. -1.
        -11    1    1    2    0    0  0.31866215366E+02  0.29468309000E+02  0.10937694019E+03  0.11767392218E+03  0.00000000000E+00 0.  1.
         11    1    1    2    0    0 -0.36715785037E+02 -0.31803597855E+02  0.13545163591E+03  0.14389810068E+03  0.00000000000E+00 0. -1.
<mgrwt>
<rscale>  0 0.11600954E+03</rscale>
<asrwt>0</asrwt>
<pdfrwt beam="1">  1        2 0.17290519E+00 0.12529539E+03</pdfrwt>
<pdfrwt beam="2">  1       -2 0.19814421E-02 0.12529539E+03</pdfrwt>
<totfact> 0.16542596E+04</totfact>
</mgrwt>
</event>
<event>
 6    1  0.1190675E-005  0.1894778E+03  0.7546771E-02  0.1168058E+00
          1   -1    0    0  501    0  0.00000000000E+00  0.00000000000E+00  0.32500458822E+03  0.32500458822E+03  0.00000000000E+00 0. -1.
         -1   -1    0    0    0  501 -0.00000000000E+00 -0.00000000000E+00 -0.10200818624E+03  0.10200818624E+03  0.00000000000E+00 0.  1.
          5    1    1    2  502    0  0.11809688768E+03 -0.16612787969E+02  0.97943390411E+02  0.15439513376E+03  0.47000000000E+01 0. -1.
         -5    1    1    2    0  502 -0.52146896692E+01  0.66154197138E+02  0.95487377066E+02  0.11637654388E+03  0.47000000000E+01 0.  1.
        -11    1    1    2    0    0  0.80120215701E+01 -0.15242601834E+02  0.25172372938E+02  0.30498815709E+02  0.00000000000E+00 0. -1.
         11    1    1    2    0    0 -0.12089421958E+03 -0.34298807335E+02  0.43932615618E+01  0.12574228111E+03  0.00000000000E+00 0.  1.
<mgrwt>
<rscale>  0 0.17973721E+03</rscale>
<asrwt>0</asrwt>
<pdfrwt beam="1">  1        1 0.50000705E-01 0.18947781E+03</pdfrwt>
<pdfrwt beam="2">  1       -1 0.15693567E-01 0.18947781E+03</pdfrwt>
<totfact> 0.23337023E+03</totfact>
</mgrwt>
</event>
<event>
 6    1  0.1190675E-005  0.1290436E+03  0.7546771E-02  0.1241733E+00
         -2   -1    0    0    0  501 -0.00000000000E+00  0.00000000000E+00  0.35388135499E+02  0.35388135499E+02  0.00000000000E+00 0.  1.
          2   -1    0    0  501    0  0.00000000000E+00 -0.00000000000E+00 -0.36846077781E+03  0.36846077781E+03  0.00000000000E+00 0. -1.
          5    1    1    2  502    0  0.47297475340E+01 -0.39857204644E+02 -0.51132308808E+01  0.40733308285E+02  0.47000000000E+01 0.  1.
         -5    1    1    2    0  502 -0.28978395494E+02  0.18864136510E+02 -0.19009987346E+03  0.19327611063E+03  0.47000000000E+01 0.  1.
        -11    1    1    2    0    0 -0.23593882064E+02  0.31830481684E+02 -0.25181178072E+02  0.46946166661E+02  0.00000000000E+00 0.  1.
         11    1    1    2    0    0  0.47842530024E+02 -0.10837413549E+02 -0.11267835990E+03  0.12289332773E+03  0.00000000000E+00 0. -1.
<mgrwt>
<rscale>  0 0.12083086E+03</rscale>
<asrwt>0</asrwt>
<pdfrwt beam="2">  1        2 0.56686272E-01 0.12904361E+03</pdfrwt>
<pdfrwt beam="1">  1       -2 0.54443286E-02 0.12904361E+03</pdfrwt>
<totfact> 0.14093366E+04</totfact>
</mgrwt>
</event>
<event>
 6    1  0.1190675E-005  0.1573588E+03  0.7546771E-02  0.1200690E+00
         -2   -1    0    0    0  501 -0.00000000000E+00  0.00000000000E+00  0.21148686328E+03  0.21148686328E+03  0.00000000000E+00 0.  1.
          2   -1    0    0  501    0  0.00000000000E+00 -0.00000000000E+00 -0.10656744396E+03  0.10656744396E+03  0.00000000000E+00 0. -1.
          5    1    1    2  502    0 -0.51804667975E+02  0.30151166695E+02 -0.21753413012E+02  0.63938387959E+02  0.47000000000E+01 0.  1.
         -5    1    1    2    0  502 -0.27385133888E+02 -0.83684372688E+02  0.31819078100E+02  0.93742005106E+02  0.47000000000E+01 0.  1.
        -11    1    1    2    0    0  0.19522987311E+02  0.18933991336E+02 -0.14701076522E+02  0.30915444560E+02  0.00000000000E+00 0. -1.
         11    1    1    2    0    0  0.59666814552E+02  0.34599214656E+02  0.10955483076E+03  0.12945846962E+03  0.00000000000E+00 0.  1.
<mgrwt>
<rscale>  0 0.14982390E+03</rscale>
<asrwt>0</asrwt>
<pdfrwt beam="2">  1        2 0.16394991E-01 0.15735879E+03</pdfrwt>
<pdfrwt beam="1">  1       -2 0.32536440E-01 0.15735879E+03</pdfrwt>
<totfact> 0.29944005E+03</totfact>
</mgrwt>
</event>
<event>
 6    1  0.1190675E-005  0.1799657E+03  0.7546771E-02  0.1173084E+00
         -2   -1    0    0    0  501 -0.00000000000E+00  0.00000000000E+00  0.30993636685E+02  0.30993636685E+02  0.00000000000E+00 0. -1.
          2   -1    0    0  501    0  0.00000000000E+00 -0.00000000000E+00 -0.98884995849E+03  0.98884995849E+03  0.00000000000E+00 0.  1.
          5    1    1    2  502    0 -0.43348897454E+02 -0.36760001691E+02 -0.70406782341E+02  0.90607006541E+02  0.47000000000E+01 0.  1.
         -5    1    1    2    0  502 -0.70803990863E+02 -0.24289081219E+02 -0.55947257112E+03  0.56447746848E+03  0.47000000000E+01 0.  1.
        -11    1    1    2    0    0  0.10122037880E+03  0.47903830446E+01 -0.19386933324E+03  0.21875518559E+03  0.00000000000E+00 0.  1.
         11    1    1    2    0    0  0.12932509521E+02  0.56258699866E+02 -0.13410763510E+03  0.14600393456E+03  0.00000000000E+00 0. -1.
<mgrwt>
<rscale>  0 0.17464976E+03</rscale>
<asrwt>0</asrwt>
<pdfrwt beam="2">  1        2 0.15213074E+00 0.17996575E+03</pdfrwt>
<pdfrwt beam="1">  1       -2 0.47682525E-02 0.17996575E+03</pdfrwt>
<totfact> 0.55299665E+03</totfact>
</mgrwt>
</event>
<event>
 6    1  0.1190675E-005  0.4281235E+03  0.7546771E-02  0.1034454E+00
         -1   -1    0    0    0  501 -0.00000000000E+00  0.00000000000E+00  0.15763425613E+03  0.15763425613E+03  0.00000000000E+00 0.  1.
          1   -1    0    0  501    0  0.00000000000E+00 -0.00000000000E+00 -0.29068832038E+03  0.29068832038E+03  0.00000000000E+00 0. -1.
          5    1    1    2  502    0 -0.30308430216E+02  0.19686087990E+02 -0.38172983841E+02  0.52776980757E+02  0.47000000000E+01 0. -1.
         -5    1    1    2    0  502  0.11391363320E+02 -0.11302786227E+03 -0.19912191402E+03  0.22929606942E+03  0.47000000000E+01 0.  1.
        -11    1    1    2    0    0  0.12024943382E+02  0.50431383305E+02  0.11076894966E+03  0.12230161035E+03  0.00000000000E+00 0.  1.
         11    1    1    2    0    0  0.68921235138E+01  0.42910390974E+02 -0.65281160552E+01  0.43947915983E+02  0.00000000000E+00 0. -1.
<mgrwt>
<rscale>  0 0.42812352E+03</rscale>
<asrwt>0</asrwt>
<pdfrwt beam="2">  1        1 0.44721280E-01 0.42812352E+03</pdfrwt>
<pdfrwt beam="1">  1       -1 0.24251424E-01 0.42812352E+03</pdfrwt>
<totfact> 0.13427316E+03</totfact>
</mgrwt>
</event>
<event>
 6    1  0.1190675E-005  0.2004299E+03  0.7546771E-02  0.1154219E+00
         -2   -1    0    0    0  501 -0.00000000000E+00  0.00000000000E+00  0.68578206869E+02  0.68578206869E+02  0.00000000000E+00 0.  1.
          2   -1    0    0  501    0  0.00000000000E+00 -0.00000000000E+00 -0.59658297986E+03  0.59658297986E+03  0.00000000000E+00 0. -1.
          5    1    1    2  502    0  0.98674144336E+02  0.21804608377E+02 -0.10546693160E+03  0.14614168252E+03  0.47000000000E+01 0. -1.
         -5    1    1    2    0  502  0.38889537602E+02  0.53185019885E+02 -0.28746716367E+03  0.29495847617E+03  0.47000000000E+01 0. -1.
        -11    1    1    2    0    0 -0.29285729258E+02 -0.10643195207E+02 -0.81377962851E+02  0.87139568395E+02  0.00000000000E+00 0. -1.
         11    1    1    2    0    0 -0.10827795268E+03 -0.64346433055E+02 -0.53692714873E+02  0.13692145966E+03  0.00000000000E+00 0.  1.
<mgrwt>
<rscale>  0 0.19478095E+03</rscale>
<asrwt>0</asrwt>
<pdfrwt beam="2">  1        2 0.91781998E-01 0.20042990E+03</pdfrwt>
<pdfrwt beam="1">  1       -2 0.10550493E-01 0.20042990E+03</pdfrwt>
<totfact> 0.30579108E+03</totfact>
</mgrwt>
</event>
<event>
 6    1  0.1190675E-005  0.1311703E+03  0.7546771E-02  0.1238923E+00
         -2   -1    0    0    0  501 -0.00000000000E+00  0.00000000000E+00  0.13230056153E+02  0.13230056153E+02  0.00000000000E+00 0.  1.
          2   -1    0    0  501    0  0.00000000000E+00 -0.00000000000E+00 -0.13785827786E+04  0.13785827786E+04  0.00000000000E+00 0. -1.
          5    1    1    2  502    0 -0.11771816458E+02 -0.48077114650E+02 -0.85166724222E+03  0.85311732258E+03  0.47000000000E+01 0. -1.
         -5    1    1    2    0  502 -0.27977394821E+02  0.49546781396E+02 -0.25599210015E+03  0.26228164920E+03  0.47000000000E+01 0. -1.
        -11    1    1    2    0    0 -0.11057863137E+02 -0.55816159753E+01  0.12975149154E+01  0.12454489914E+02  0.00000000000E+00 0.  1.
         11    1    1    2    0    0  0.50807074417E+02  0.41119492290E+01 -0.25899089504E+03  0.26395937310E+03  0.00000000000E+00 0. -1.
<mgrwt>
<rscale>  0 0.12256595E+03</rscale>
<asrwt>0</asrwt>
<pdfrwt beam="2">  1        2 0.21208977E+00 0.13117030E+03</pdfrwt>
<pdfrwt beam="1">  1       -2 0.20353922E-02 0.13117030E+03</pdfrwt>
<totfact> 0.11587236E+04</totfact>
</mgrwt>
</event>
<event>
 6    1  0.1190675E-005  0.1364144E+03  0.7546771E-02  0.1228411E+00
          1   -1    0    0  501    0  0.00000000000E+00  0.00000000000E+00  0.20937440936E+02  0.20937440936E+02  0.00000000000E+00 0. -1.
         -1   -1    0    0    0  501 -0.00000000000E+00 -0.00000000000E+00 -0.80048200116E+03  0.80048200116E+03  0.00000000000E+00 0.  1.
          5    1    1    2  502    0  0.15080064972E+02 -0.69303901704E+02 -0.30705835998E+03  0.31517830760E+03  0.47000000000E+01 0. -1.
         -5    1    1    2    0  502 -0.40627511087E+01  0.15758771510E+02  0.37902725500E+01  0.17358023853E+02  0.47000000000E+01 0.  1.
        -11    1    1    2    0    0 -0.21381483676E+02 -0.17658689381E+02 -0.55981779250E+02  0.62473648548E+02  0.00000000000E+00 0. -1.
         11    1    1    2    0    0  0.10364169813E+02  0.71203819576E+02 -0.42029469355E+03  0.42640946209E+03  0.00000000000E+00 0.  1.
<mgrwt>
<rscale>  0 0.12935847E+03</rscale>
<asrwt>0</asrwt>
<pdfrwt beam="1">  1        1 0.32211451E-02 0.13641436E+03</pdfrwt>
<pdfrwt beam="2">  1       -1 0.12315106E+00 0.13641436E+03</pdfrwt>
<totfact> 0.18614849E+03</totfact>
</mgrwt>
</event>
<event>
 6    1  0.1190675E-005  0.1573411E+03  0.7546771E-02  0.1199202E+00
         -1   -1    0    0    0  501 -0.00000000000E+00  0.00000000000E+00  0.12136932787E+03  0.12136932787E+03  0.00000000000E+00 0. -1.
          1   -1    0    0  501    0  0.00000000000E+00 -0.00000000000E+00 -0.26458426433E+03  0.26458426433E+03  0.00000000000E+00 0.  1.
          5    1    1    2  502    0  0.37077188640E+02  0.75888201309E+02 -0.13893062606E+03  0.16265775688E+03  0.47000000000E+01 0.  1.
         -5    1    1    2    0  502  0.51884117045E+02 -0.40996498824E+02 -0.48964592968E+02  0.82415386196E+02  0.47000000000E+01 0.  1.
        -11    1    1    2    0    0 -0.82321198951E+02 -0.17638466321E+01 -0.30564058653E+01  0.82396799504E+02  0.00000000000E+00 0.  1.
         11    1    1    2    0    0 -0.66401067335E+01 -0.33127855853E+02  0.47736688431E+02  0.58483649623E+02  0.00000000000E+00 0. -1.
<mgrwt>
<rscale>  0 0.15103912E+03</rscale>
<asrwt>0</asrwt>
<pdfrwt beam="2">  1        1 0.40705271E-01 0.15734113E+03</pdfrwt>
<pdfrwt beam="1">  1       -1 0.18672204E-01 0.15734113E+03</pdfrwt>
<totfact> 0.22725082E+03</totfact>
</mgrwt>
</event>
<event>
 6    1  0.1190675E-005  0.2492090E+03  0.7546771E-02  0.1117892E+00
         -1   -1    0    0    0  501 -0.00000000000E+00  0.00000000000E+00  0.15765734525E+03  0.15765734525E+03  0.00000000000E+00 0.  1.
          1   -1    0    0  501    0  0.00000000000E+00 -0.00000000000E+00 -0.44553472366E+03  0.44553472366E+03  0.00000000000E+00 0. -1.
          5    1    1    2  502    0 -0.74803558858E+02  0.11163916603E+03 -0.23188341927E+03  0.26805015564E+03  0.47000000000E+01 0. -1.
         -5    1    1    2    0  502  0.15133139917E+02  0.95534941932E+02 -0.52791795457E+02  0.11029506209E+03  0.47000000000E+01 0. -1.
        -11    1    1    2    0    0 -0.78081238901E+01 -0.65259972078E+02  0.12572390268E+02  0.66917081163E+02  0.00000000000E+00 0.  1.
         11    1    1    2    0    0  0.67478542831E+02 -0.14191413588E+03 -0.15774553948E+02  0.15792977002E+03  0.00000000000E+00 0. -1.
<mgrwt>
<rscale>  0 0.24287537E+03</rscale>
<asrwt>0</asrwt>
<pdfrwt beam="2">  1        1 0.68543804E-01 0.24920900E+03</pdfrwt>
<pdfrwt beam="1">  1       -1 0.24254976E-01 0.24920900E+03</pdfrwt>
<totfact> 0.77343605E+02</totfact>
</mgrwt>
</event>
<event>
 6    1  0.1190675E-005  0.1278440E+03  0.7546771E-02  0.1246003E+00
         -1   -1    0    0    0  501 -0.00000000000E+00  0.00000000000E+00  0.26026665448E+03  0.26026665448E+03  0.00000000000E+00 0.  1.
          1   -1    0    0  501    0  0.00000000000E+00 -0.00000000000E+00 -0.48821066238E+02  0.48821066238E+02  0.00000000000E+00 0. -1.
          5    1    1    2  502    0 -0.27944203765E+01  0.65695983901E+02  0.42664787273E+02  0.78524806010E+02  0.47000000000E+01 0.  1.
         -5    1    1    2    0  502  0.27394654147E+02 -0.55009001589E+02  0.50158808966E+02  0.79463535338E+02  0.47000000000E+01 0.  1.
        -11    1    1    2    0    0  0.20481413643E+02  0.26266297672E+02  0.58767888960E+02  0.67550510517E+02  0.00000000000E+00 0.  1.
         11    1    1    2    0    0 -0.45081647414E+02 -0.36953279984E+02  0.59854103039E+02  0.83548868848E+02  0.00000000000E+00 0. -1.
<mgrwt>
<rscale>  0 0.11825578E+03</rscale>
<asrwt>0</asrwt>
<pdfrwt beam="2">  1        1 0.75109334E-02 0.12784403E+03</pdfrwt>
<pdfrwt beam="1">  1       -1 0.40041023E-01 0.12784403E+03</pdfrwt>
<totfact> 0.55369138E+03</totfact>
</mgrwt>
</event>
<event>
 6    1  0.1190675E-005  0.1469736E+03  0.7546771E-02  0.1226058E+00
         -2   -1    0    0    0  501 -0.00000000000E+00  0.00000000000E+00  0.36563263664E+02  0.36563263664E+02  0.00000000000E+00 0.  1.
          2   -1    0    0  501    0  0.00000000000E+00 -0.00000000000E+00 -0.39428359685E+03  0.39428359685E+03  0.00000000000E+00 0. -1.
          5    1    1    2  502    0 -0.44801426823E+02  0.18528655283E+02 -0.23814342288E+03  0.24307377228E+03  0.47000000000E+01 0. -1.
         -5    1    1    2    0  502  0.31906986779E+02 -0.39081489321E+01  0.46572991982E+01  0.32819352054E+02  0.47000000000E+01 0.  1.
        -11    1    1    2    0    0  0.36436892044E+02  0.20051391623E+02 -0.28413785884E+02  0.50369123836E+02  0.00000000000E+00 0.  1.
         11    1    1    2    0    0 -0.23542452000E+02 -0.34671897973E+02 -0.95820423626E+02  0.10458461234E+03  0.00000000000E+00 0. -1.
<mgrwt>
<rscale>  0 0.13094637E+03</rscale>
<asrwt>0</asrwt>
<pdfrwt beam="2">  1        2 0.60659016E-01 0.14697362E+03</pdfrwt>
<pdfrwt beam="1">  1       -2 0.56251174E-02 0.14697362E+03</pdfrwt>
<totfact> 0.12609174E+04</totfact>
</mgrwt>
</event>
<event>
 6    1  0.1190675E-005  0.1414348E+03  0.7546771E-02  0.1222443E+00
          2   -1    0    0  501    0  0.00000000000E+00  0.00000000000E+00  0.16681256333E+04  0.16681256333E+04  0.00000000000E+00 0. -1.
         -2   -1    0    0    0  501 -0.00000000000E+00 -0.00000000000E+00 -0.11440301465E+02  0.11440301465E+02  0.00000000000E+00 0.  1.
          5    1    1    2  502    0 -0.62630690592E+02 -0.28857408144E+02  0.42178562688E+03  0.42741146270E+03  0.47000000000E+01 0.  1.
         -5    1    1    2    0  502  0.51079684018E+02 -0.36299857209E+02  0.81951945164E+03  0.82192520060E+03  0.47000000000E+01 0.  1.
        -11    1    1    2    0    0 -0.20824301979E+02  0.61102526311E+02  0.36166407839E+03  0.36738001561E+03  0.00000000000E+00 0. -1.
         11    1    1    2    0    0  0.32375308553E+02  0.40547390426E+01  0.53716174911E+02  0.62849255840E+02  0.00000000000E+00 0.  1.
<mgrwt>
<rscale>  0 0.13343681E+03</rscale>
<asrwt>0</asrwt>
<pdfrwt beam="1">  1        2 0.25663452E+00 0.14143479E+03</pdfrwt>
<pdfrwt beam="2">  1       -2 0.17600477E-02 0.14143479E+03</pdfrwt>
<totfact> 0.10146204E+04</totfact>
</mgrwt>
</event>
<event>
 6    1  0.1190675E-005  0.3357204E+03  0.7546771E-02  0.1069827E+00
          2   -1    0    0  501    0  0.00000000000E+00  0.00000000000E+00  0.82096099434E+03  0.82096099434E+03  0.00000000000E+00 0. -1.
         -2   -1    0    0    0  501 -0.00000000000E+00 -0.00000000000E+00 -0.14039839114E+03  0.14039839114E+03  0.00000000000E+00 0.  1.
          5    1    1    2  502    0 -0.32511965816E+02  0.23456497807E+03  0.32341028133E+03  0.40086663235E+03  0.47000000000E+01 0.  1.
         -5    1    1    2    0  502 -0.81827839360E+02  0.55280632057E+02  0.13329524343E+03  0.16595618547E+03  0.47000000000E+01 0.  1.
        -11    1    1    2    0    0  0.49235489884E+02 -0.19837967524E+03  0.18512974787E+03  0.27577464089E+03  0.00000000000E+00 0. -1.
         11    1    1    2    0    0  0.65104315292E+02 -0.91465934889E+02  0.38727330565E+02  0.11876192676E+03  0.00000000000E+00 0.  1.
<mgrwt>
<rscale>  0 0.33297687E+03</rscale>
<asrwt>0</asrwt>
<pdfrwt beam="1">  1        2 0.12630169E+00 0.33572038E+03</pdfrwt>
<pdfrwt beam="2">  1       -2 0.21599753E-01 0.33572038E+03</pdfrwt>
<totfact> 0.63169309E+02</totfact>
</mgrwt>
</event>
<event>
 6    1  0.1190675E-005  0.1568722E+03  0.7546771E-02  0.1199946E+00
          2   -1    0    0  501    0  0.00000000000E+00  0.00000000000E+00  0.26525197842E+03  0.26525197842E+03  0.00000000000E+00 0.  1.
         -2   -1    0    0    0  501 -0.00000000000E+00 -0.00000000000E+00 -0.81684229414E+02  0.81684229414E+02  0.00000000000E+00 0. -1.
          5    1    1    2  502    0  0.83961645624E+02  0.98947045654E+01 -0.10429773692E+02  0.85313148421E+02  0.47000000000E+01 0.  1.
         -5    1    1    2    0  502  0.78694201157E+01 -0.33363685097E+02  0.78314697951E+02  0.85617434973E+02  0.47000000000E+01 0.  1.
        -11    1    1    2    0    0  0.18296576714E+02 -0.47612103870E+01  0.14777641759E+02  0.23996094261E+02  0.00000000000E+00 0. -1.
         11    1    1    2    0    0 -0.11012764245E+03  0.28230190919E+02  0.10090518299E+03  0.15200953018E+03  0.00000000000E+00 0.  1.
<mgrwt>
<rscale>  0 0.15043008E+03</rscale>
<asrwt>0</asrwt>
<pdfrwt beam="1">  1        2 0.40807996E-01 0.15687225E+03</pdfrwt>
<pdfrwt beam="2">  1       -2 0.12566805E-01 0.15687225E+03</pdfrwt>
<totfact> 0.55286289E+03</totfact>
</mgrwt>
</event>
<event>
 6    1  0.1190675E-005  0.1250519E+03  0.7546771E-02  0.1251864E+00
         -2   -1    0    0    0  501 -0.00000000000E+00  0.00000000000E+00  0.23854352703E+03  0.23854352703E+03  0.00000000000E+00 0.  1.
          2   -1    0    0  501    0  0.00000000000E+00 -0.00000000000E+00 -0.60069115014E+02  0.60069115014E+02  0.00000000000E+00 0. -1.
          5    1    1    2  502    0  0.42191999770E+02  0.37063672112E+02 -0.70065605332E+01  0.56789633962E+02  0.47000000000E+01 0.  1.
         -5    1    1    2    0  502 -0.45710232473E+02 -0.38198968198E+02  0.42089041228E+02  0.73090108193E+02  0.47000000000E+01 0.  1.
        -11    1    1    2    0    0  0.24954025742E+02 -0.27926057421E+02  0.11999664002E+03  0.12570505837E+03  0.00000000000E+00 0.  1.
         11    1    1    2    0    0 -0.21435793039E+02  0.29061353507E+02  0.23395291307E+02  0.43027841524E+02  0.00000000000E+00 0. -1.
<mgrwt>
<rscale>  0 0.11483825E+03</rscale>
<asrwt>0</asrwt>
<pdfrwt beam="2">  1        2 0.92414024E-02 0.12505186E+03</pdfrwt>
<pdfrwt beam="1">  1       -2 0.36699004E-01 0.12505186E+03</pdfrwt>
<totfact> 0.47027674E+03</totfact>
</mgrwt>
</event>
<event>
 6    1  0.1190675E-005  0.1734120E+03  0.7546771E-02  0.1181175E+00
         -2   -1    0    0    0  501 -0.00000000000E+00  0.00000000000E+00  0.56190510277E+02  0.56190510277E+02  0.00000000000E+00 0.  1.
          2   -1    0    0  501    0  0.00000000000E+00 -0.00000000000E+00 -0.48284201822E+03  0.48284201822E+03  0.00000000000E+00 0. -1.
          5    1    1    2  502    0 -0.89957208145E+02 -0.13258895488E+02 -0.11217231414E+03  0.14447427337E+03  0.47000000000E+01 0.  1.
         -5    1    1    2    0  502 -0.12870928002E+02  0.75498462884E+02 -0.17352538170E+03  0.18973356788E+03  0.47000000000E+01 0.  1.
        -11    1    1    2    0    0 -0.81116239394E+01 -0.17292866635E+02  0.10161924238E+01  0.19127841656E+02  0.00000000000E+00 0.  1.
         11    1    1    2    0    0  0.11093976009E+03 -0.44946700761E+02 -0.14197000453E+03  0.18569684559E+03  0.00000000000E+00 0. -1.
<mgrwt>
<rscale>  0 0.16684834E+03</rscale>
<asrwt>0</asrwt>
<pdfrwt beam="2">  1        2 0.74283389E-01 0.17341196E+03</pdfrwt>
<pdfrwt beam="1">  1       -2 0.86446937E-02 0.17341196E+03</pdfrwt>
<totfact> 0.52828278E+03</totfact>
</mgrwt>
</event>
<event>
 6    1  0.1190675E-005  0.1399122E+03  0.7546771E-02  0.1225481E+00
          1   -1    0    0  501    0  0.00000000000E+00  0.00000000000E+00  0.72146704405E+02  0.72146704405E+02  0.00000000000E+00 0. -1.
         -1   -1    0    0    0  501 -0.00000000000E+00 -0.00000000000E+00 -0.21671082214E+03  0.21671082214E+03  0.00000000000E+00 0.  1.
          5    1    1    2  502    0  0.17651152874E+02  0.21441895387E+02 -0.71767419776E+02  0.77097150510E+02  0.47000000000E+01 0.  1.
         -5    1    1    2    0  502  0.14103148346E+02 -0.75683463785E+02  0.62757469668E+01  0.77384497696E+02  0.47000000000E+01 0.  1.
        -11    1    1    2    0    0 -0.36370798315E+02  0.72542360182E+02 -0.38901619840E+02  0.89992027519E+02  0.00000000000E+00 0. -1.
         11    1    1    2    0    0  0.46164970953E+01 -0.18300791784E+02 -0.40170825084E+02  0.44383850816E+02  0.00000000000E+00 0.  1.
<mgrwt>
<rscale>  0 0.13134008E+03</rscale>
<asrwt>0</asrwt>
<pdfrwt beam="1">  1        1 0.11099493E-01 0.13991219E+03</pdfrwt>
<pdfrwt beam="2">  1       -1 0.33340126E-01 0.13991219E+03</pdfrwt>
<totfact> 0.45436577E+03</totfact>
</mgrwt>
</event>
<event>
 6    1  0.1190675E-005  0.2128830E+03  0.7546771E-02  0.1142967E+00
          1   -1    0    0  501    0  0.00000000000E+00  0.00000000000E+00  0.91635662990E+03  0.91635662990E+03  0.00000000000E+00 0. -1.
         -1   -1    0    0    0  501 -0.00000000000E+00 -0.00000000000E+00 -0.55740456388E+02  0.55740456388E+02  0.00000000000E+00 0.  1.
          5    1    1    2  502    0 -0.11886885976E+02 -0.11225130227E+03  0.55732897057E+03  0.56866450949E+03  0.47000000000E+01 0. -1.
         -5    1    1    2    0  502  0.38742593034E+02 -0.57965660216E+02  0.97908831611E+02  0.12028813569E+03  0.47000000000E+01 0. -1.
        -11    1    1    2    0    0 -0.15265563434E+01  0.64943337740E+02  0.19148477160E+02  0.67724675478E+02  0.00000000000E+00 0.  1.
         11    1    1    2    0    0 -0.25329150715E+02  0.10527362474E+03  0.18622989417E+03  0.21541976563E+03  0.00000000000E+00 0. -1.
<mgrwt>
<rscale>  0 0.20824046E+03</rscale>
<asrwt>0</asrwt>
<pdfrwt beam="1">  1        1 0.14097793E+00 0.21288300E+03</pdfrwt>
<pdfrwt beam="2">  1       -1 0.85754555E-02 0.21288300E+03</pdfrwt>
<totfact> 0.14339325E+03</totfact>
</mgrwt>
</event>
<event>
 6    1  0.1190675E-005  0.3127515E+03  0.7546771E-02  0.1079034E+00
         -3   -1    0    0    0  501 -0.00000000000E+00  0.00000000000E+00  0.59681900550E+02  0.59681900550E+02  0.00000000000E+00 0.  1.
          3   -1    0    0  501    0  0.00000000000E+00 -0.00000000000E+00 -0.40972846640E+03  0.40972846640E+03  0.00000000000E+00 0. -1.
          5    1    1    2  502    0  0.63139633705E+02  0.10878118373E+03 -0.19794141780E+03  0.23456950816E+03  0.47000000000E+01 0. -1.
         -5    1    1    2    0  502  0.15811398232E+02 -0.26128288067E+02 -0.76895791279E+01  0.31841912294E+02  0.47000000000E+01 0. -1.
        -11    1    1    2    0    0 -0.58972655097E+02 -0.68310769593E+01 -0.89000517654E+02  0.10698378290E+03  0.00000000000E+00 0. -1.
         11    1    1    2    0    0 -0.19978376840E+02 -0.75821818704E+02 -0.55415051272E+02  0.96015163595E+02  0.00000000000E+00 0.  1.
<mgrwt>
<rscale>  0 0.31275149E+03</rscale>
<asrwt>0</asrwt>
<pdfrwt beam="2">  1        3 0.63035148E-01 0.31275149E+03</pdfrwt>
<pdfrwt beam="1">  1       -3 0.91818310E-02 0.31275149E+03</pdfrwt>
<totfact> 0.54278721E+02</totfact>
</mgrwt>
</event>
<event>
 6    1  0.1190675E-005  0.2906463E+03  0.7546771E-02  0.1091762E+00
         -2   -1    0    0    0  501 -0.00000000000E+00  0.00000000000E+00  0.76899810090E+03  0.76899810090E+03  0.00000000000E+00 0. -1.
          2   -1    0    0  501    0  0.00000000000E+00 -0.00000000000E+00 -0.11263997382E+03  0.11263997382E+03  0.00000000000E+00 0.  1.
          5    1    1    2  502    0  0.90554161728E+02  0.96505149893E+02  0.56039248942E+02  0.14379077712E+03  0.47000000000E+01 0.  1.
         -5    1    1    2    0  502  0.14691016994E+03  0.15124499821E+02  0.16404348993E+03  0.22077976609E+03  0.47000000000E+01 0.  1.
        -11    1    1    2    0    0 -0.16420957322E+03 -0.71995522619E+02  0.21102134134E+03  0.27690819004E+03  0.00000000000E+00 0.  1.
         11    1    1    2    0    0 -0.73254758449E+02 -0.39634127095E+02  0.22525404687E+03  0.24015934148E+03  0.00000000000E+00 0. -1.
<mgrwt>
<rscale>  0 0.28731009E+03</rscale>
<asrwt>0</asrwt>
<pdfrwt beam="2">  1        2 0.17329227E-01 0.29064630E+03</pdfrwt>
<pdfrwt beam="1">  1       -2 0.11830740E+00 0.29064630E+03</pdfrwt>
<totfact> 0.18927559E+02</totfact>
</mgrwt>
</event>
<event>
 6    1  0.1190675E-005  0.1326423E+03  0.7546771E-02  0.1236494E+00
          2   -1    0    0  501    0  0.00000000000E+00  0.00000000000E+00  0.65995352292E+03  0.65995352292E+03  0.00000000000E+00 0. -1.
         -2   -1    0    0    0  501 -0.00000000000E+00 -0.00000000000E+00 -0.21079538946E+02  0.21079538946E+02  0.00000000000E+00 0.  1.
          5    1    1    2  502    0 -0.54072942035E+02  0.66644395619E+00  0.34517182498E+03  0.34941380335E+03  0.47000000000E+01 0. -1.
         -5    1    1    2    0  502  0.28527967155E+02 -0.36973397148E+02  0.55731215689E+02  0.72862441689E+02  0.47000000000E+01 0. -1.
        -11    1    1    2    0    0 -0.34616643414E+02  0.15651947293E+02  0.90940745659E+02  0.98557164510E+02  0.00000000000E+00 0.  1.
         11    1    1    2    0    0  0.60161618294E+02  0.20655005900E+02  0.14703019765E+03  0.16019965233E+03  0.00000000000E+00 0. -1.
<mgrwt>
<rscale>  0 0.12409302E+03</rscale>
<asrwt>0</asrwt>
<pdfrwt beam="1">  1        2 0.10153130E+00 0.13264230E+03</pdfrwt>
<pdfrwt beam="2">  1       -2 0.32430065E-02 0.13264230E+03</pdfrwt>
<totfact> 0.16082987E+04</totfact>
</mgrwt>
</event>
<event>
 6    1  0.1190675E-005  0.1569371E+03  0.7546771E-02  0.1199828E+00
         -1   -1    0    0    0  501 -0.00000000000E+00  0.00000000000E+00  0.47019478439E+02  0.47019478439E+02  0.00000000000E+00 0.  1.
          1   -1    0    0  501    0  0.00000000000E+00 -0.00000000000E+00 -0.44771495885E+03  0.44771495885E+03  0.00000000000E+00 0. -1.
          5    1    1    2  502    0 -0.79990336224E+02  0.55580460510E+01 -0.96339180549E+02  0.12542995445E+03  0.47000000000E+01 0. -1.
         -5    1    1    2    0  502  0.13332560835E+02 -0.73097220848E+02 -0.13393839454E+03  0.15324015273E+03  0.47000000000E+01 0. -1.
        -11    1    1    2    0    0  0.34630143054E+02  0.45246733614E+02 -0.19561265818E+02  0.60242483606E+02  0.00000000000E+00 0.  1.
         11    1    1    2    0    0  0.32027632335E+02  0.22292441183E+02 -0.15085663950E+03  0.15582184650E+03  0.00000000000E+00 0. -1.
<mgrwt>
<rscale>  0 0.15052594E+03</rscale>
<asrwt>0</asrwt>
<pdfrwt beam="2">  1        1 0.68879222E-01 0.15693714E+03</pdfrwt>
<pdfrwt beam="1">  1       -1 0.72337661E-02 0.15693714E+03</pdfrwt>
<totfact> 0.50972440E+03</totfact>
</mgrwt>
</event>
<event>
 6    1  0.1190675E-005  0.1259577E+03  0.7546771E-02  0.1249090E+00
          2   -1    0    0  501    0  0.00000000000E+00  0.00000000000E+00  0.16215769701E+02  0.16215769701E+02  0.00000000000E+00 0. -1.
         -2   -1    0    0    0  501 -0.00000000000E+00 -0.00000000000E+00 -0.79113703799E+03  0.79113703799E+03  0.00000000000E+00 0.  1.
          5    1    1    2  502    0 -0.54937752863E+02 -0.36937263432E+02 -0.25084900225E+03  0.25947992225E+03  0.47000000000E+01 0.  1.
         -5    1    1    2    0  502  0.42566477563E+02  0.27622115392E+02 -0.83677017736E+02  0.97973565660E+02  0.47000000000E+01 0.  1.
        -11    1    1    2    0    0 -0.16403106858E+02 -0.34437046105E+02 -0.22634789061E+03  0.22953940760E+03  0.00000000000E+00 0. -1.
         11    1    1    2    0    0  0.28774382159E+02  0.43752194145E+02 -0.21404735769E+03  0.22035991218E+03  0.00000000000E+00 0.  1.
<mgrwt>
<rscale>  0 0.11643912E+03</rscale>
<asrwt>0</asrwt>
<pdfrwt beam="1">  1        2 0.24947335E-02 0.12595768E+03</pdfrwt>
<pdfrwt beam="2">  1       -2 0.12171340E+00 0.12595768E+03</pdfrwt>
<totfact> 0.20607916E+03</totfact>
</mgrwt>
</event>
<event>
 6    1  0.1190675E-005  0.1448237E+03  0.7546771E-02  0.1217477E+00
          1   -1    0    0  501    0  0.00000000000E+00  0.00000000000E+00  0.17512276682E+03  0.17512276682E+03  0.00000000000E+00 0. -1.
         -1   -1    0    0    0  501 -0.00000000000E+00 -0.00000000000E+00 -0.10059244559E+03  0.10059244559E+03  0.00000000000E+00 0.  1.
          5    1    1    2  502    0 -0.26645335450E+02 -0.19303802769E+02  0.43607424854E+02  0.54829811280E+02  0.47000000000E+01 0.  1.
         -5    1    1    2    0  502  0.51458065320E+02  0.88090564017E+02  0.23549691121E+02  0.10480724167E+03  0.47000000000E+01 0.  1.
        -11    1    1    2    0    0 -0.28565708278E+02 -0.50911825892E+02  0.45359455974E+02  0.73928979103E+02  0.00000000000E+00 0. -1.
         11    1    1    2    0    0  0.37529784082E+01 -0.17874935357E+02 -0.37986250719E+02  0.42149180355E+02  0.00000000000E+00 0.  1.
<mgrwt>
<rscale>  0 0.13696132E+03</rscale>
<asrwt>0</asrwt>
<pdfrwt beam="1">  1        1 0.26941964E-01 0.14482372E+03</pdfrwt>
<pdfrwt beam="2">  1       -1 0.15475761E-01 0.14482372E+03</pdfrwt>
<totfact> 0.50965610E+03</totfact>
</mgrwt>
</event>
<event>
 6    1  0.1190675E-005  0.3256368E+03  0.7546771E-02  0.1109236E+00
          2   -1    0    0  501    0  0.00000000000E+00  0.00000000000E+00  0.22914287176E+04  0.22914287176E+04  0.00000000000E+00 0. -1.
         -2   -1    0    0    0  501 -0.00000000000E+00 -0.00000000000E+00 -0.49531582173E+02  0.49531582173E+02  0.00000000000E+00 0.  1.
          5    1    1    2  502    0  0.76195049207E+02  0.11380048561E+01  0.20984351167E+04  0.20998235663E+04  0.47000000000E+01 0. -1.
         -5    1    1    2    0  502 -0.18277508664E+02  0.60227975429E+02  0.75686710447E+02  0.98549705660E+02  0.47000000000E+01 0.  1.
        -11    1    1    2    0    0 -0.38373523631E+02  0.18940106446E+02  0.23794628578E+02  0.48963652817E+02  0.00000000000E+00 0. -1.
         11    1    1    2    0    0 -0.19544016912E+02 -0.80306086731E+02  0.43980679743E+02  0.93623375040E+02  0.00000000000E+00 0.  1.
<mgrwt>
<rscale>  0 0.25654722E+03</rscale>
<asrwt>0</asrwt>
<pdfrwt beam="1">  1        2 0.35252741E+00 0.32563680E+03</pdfrwt>
<pdfrwt beam="2">  1       -2 0.76202452E-02 0.32563680E+03</pdfrwt>
<totfact> 0.52639594E+02</totfact>
</mgrwt>
</event>
<event>
 6    1  0.1190675E-005  0.5455261E+03  0.7546771E-02  0.1041435E+00
         -2   -1    0    0    0  501 -0.00000000000E+00  0.00000000000E+00  0.10399978113E+03  0.10399978113E+03  0.00000000000E+00 0.  1.
          2   -1    0    0  501    0  0.00000000000E+00 -0.00000000000E+00 -0.21668363127E+04  0.21668363127E+04  0.00000000000E+00 0. -1.
          5    1    1    2  502    0 -0.22549796476E+03  0.12163334916E+02 -0.18959364915E+04  0.19093440100E+04  0.47000000000E+01 0. -1.
         -5    1    1    2    0  502  0.13632128363E+03 -0.11004713188E+02 -0.12998493474E+03  0.18873995163E+03  0.47000000000E+01 0.  1.
        -11    1    1    2    0    0  0.47523812516E+02 -0.67668216480E+02 -0.44513198125E+02  0.93909132064E+02  0.00000000000E+00 0.  1.
         11    1    1    2    0    0  0.41652868620E+02  0.66509594752E+02  0.75980927643E+01  0.78843000146E+02  0.00000000000E+00 0. -1.
<mgrwt>
<rscale>  0 0.40684616E+03</rscale>
<asrwt>0</asrwt>
<pdfrwt beam="2">  1        2 0.33335943E+00 0.54552606E+03</pdfrwt>
<pdfrwt beam="1">  1       -2 0.15999966E-01 0.54552606E+03</pdfrwt>
<totfact> 0.17807548E+02</totfact>
</mgrwt>
</event>
<event>
 6    1  0.1190675E-005  0.1269537E+03  0.7546771E-02  0.1245420E+00
          1   -1    0    0  501    0  0.00000000000E+00  0.00000000000E+00  0.12789262471E+03  0.12789262471E+03  0.00000000000E+00 0. -1.
         -1   -1    0    0    0  501 -0.00000000000E+00 -0.00000000000E+00 -0.10174242324E+03  0.10174242324E+03  0.00000000000E+00 0.  1.
          5    1    1    2  502    0 -0.54779197745E+02 -0.17610461843E+02  0.61783859961E+02  0.84558998478E+02  0.47000000000E+01 0. -1.
         -5    1    1    2    0  502  0.26015281442E+02  0.31261245463E+02 -0.24556144604E+02  0.47740491978E+02  0.47000000000E+01 0.  1.
        -11    1    1    2    0    0  0.59802643311E+02 -0.16033484245E+02 -0.19805208848E+02  0.65005192574E+02  0.00000000000E+00 0.  1.
         11    1    1    2    0    0 -0.31038727009E+02  0.23827006239E+01  0.87276949586E+01  0.32330364921E+02  0.00000000000E+00 0. -1.
<mgrwt>
<rscale>  0 0.11860262E+03</rscale>
<asrwt>0</asrwt>
<pdfrwt beam="1">  1        1 0.19675788E-01 0.12695374E+03</pdfrwt>
<pdfrwt beam="2">  1       -1 0.15652680E-01 0.12695374E+03</pdfrwt>
<totfact> 0.73756191E+03</totfact>
</mgrwt>
</event>
<event>
 6    1  0.1190675E-005  0.1438697E+03  0.7546771E-02  0.1217784E+00
         -1   -1    0    0    0  501 -0.00000000000E+00  0.00000000000E+00  0.91477910021E+02  0.91477910021E+02  0.00000000000E+00 0.  1.
          1   -1    0    0  501    0  0.00000000000E+00 -0.00000000000E+00 -0.18756849036E+03  0.18756849036E+03  0.00000000000E+00 0. -1.
          5    1    1    2  502    0  0.66840921214E+02 -0.31146523205E+01 -0.85559437555E+02  0.10871944243E+03  0.47000000000E+01 0.  1.
         -5    1    1    2    0  502 -0.71379755621E+01  0.41972044608E+02  0.22476901916E+02  0.48372557751E+02  0.47000000000E+01 0.  1.
        -11    1    1    2    0    0 -0.19598198896E+02  0.15624401400E+02  0.23083459061E+02  0.34074292382E+02  0.00000000000E+00 0.  1.
         11    1    1    2    0    0 -0.40104746756E+02 -0.54481793688E+02 -0.56091503766E+02  0.87880107821E+02  0.00000000000E+00 0. -1.
<mgrwt>
<rscale>  0 0.13674024E+03</rscale>
<asrwt>0</asrwt>
<pdfrwt beam="2">  1        1 0.28856691E-01 0.14386970E+03</pdfrwt>
<pdfrwt beam="1">  1       -1 0.14073525E-01 0.14386970E+03</pdfrwt>
<totfact> 0.54262079E+03</totfact>
</mgrwt>
</event>
<event>
 6    1  0.1190675E-005  0.1364604E+03  0.7546771E-02  0.1230321E+00
         -1   -1    0    0    0  501 -0.00000000000E+00  0.00000000000E+00  0.66617636319E+03  0.66617636319E+03  0.00000000000E+00 0.  1.
          1   -1    0    0  501    0  0.00000000000E+00 -0.00000000000E+00 -0.22107994091E+02  0.22107994091E+02  0.00000000000E+00 0. -1.
          5    1    1    2  502    0 -0.89185266063E+01 -0.70106044485E+02  0.26602802962E+03  0.27529511462E+03  0.47000000000E+01 0.  1.
         -5    1    1    2    0  502 -0.36557297090E+02  0.39511301039E+02  0.78743566044E+02  0.95499832847E+02  0.47000000000E+01 0.  1.
        -11    1    1    2    0    0  0.27900143054E+02 -0.25085215756E+02  0.56876833422E+02  0.68137069295E+02  0.00000000000E+00 0.  1.
         11    1    1    2    0    0  0.17575680643E+02  0.55679959202E+02  0.24241994001E+03  0.24935234051E+03  0.00000000000E+00 0. -1.
<mgrwt>
<rscale>  0 0.12808809E+03</rscale>
<asrwt>0</asrwt>
<pdfrwt beam="2">  1        1 0.34012304E-02 0.13646040E+03</pdfrwt>
<pdfrwt beam="1">  1       -1 0.10248866E+00 0.13646040E+03</pdfrwt>
<totfact> 0.26310795E+03</totfact>
</mgrwt>
</event>
<event>
 6    1  0.1190675E-005  0.3431303E+03  0.7546771E-02  0.1065470E+00
          1   -1    0    0  501    0  0.00000000000E+00  0.00000000000E+00  0.36482697193E+03  0.36482697193E+03  0.00000000000E+00 0. -1.
         -1   -1    0    0    0  501 -0.00000000000E+00 -0.00000000000E+00 -0.80680967130E+02  0.80680967130E+02  0.00000000000E+00 0.  1.
          5    1    1    2  502    0 -0.12713884561E+03  0.49126703654E+01  0.15056942547E+03  0.19718433579E+03  0.47000000000E+01 0.  1.
         -5    1    1    2    0  502  0.14367161618E+02 -0.39608314055E+02  0.78363449826E+02  0.89096319475E+02  0.47000000000E+01 0.  1.
        -11    1    1    2    0    0  0.61972024962E+02  0.36595750522E+02 -0.14031739972E+02  0.73325783738E+02  0.00000000000E+00 0.  1.
         11    1    1    2    0    0  0.50799659032E+02 -0.19001068322E+01  0.69244869479E+02  0.85901500062E+02  0.00000000000E+00 0. -1.
<mgrwt>
<rscale>  0 0.34313025E+03</rscale>
<asrwt>0</asrwt>
<pdfrwt beam="1">  1        1 0.56127225E-01 0.34313025E+03</pdfrwt>
<pdfrwt beam="2">  1       -1 0.12412457E-01 0.34313025E+03</pdfrwt>
<totfact> 0.29709170E+03</totfact>
</mgrwt>
</event>
<event>
 6    1  0.1190675E-005  0.1605061E+03  0.7546771E-02  0.1195622E+00
          2   -1    0    0  501    0  0.00000000000E+00  0.00000000000E+00  0.22998316462E+04  0.22998316462E+04  0.00000000000E+00 0. -1.
         -2   -1    0    0    0  501 -0.00000000000E+00 -0.00000000000E+00 -0.12314134091E+02  0.12314134091E+02  0.00000000000E+00 0.  1.
          5    1    1    2  502    0  0.71082830843E+02 -0.59988049295E+02  0.66372248035E+03  0.67022455627E+03  0.47000000000E+01 0.  1.
         -5    1    1    2    0  502  0.25778593766E+02  0.32507131560E+02  0.10982595260E+04  0.10990529222E+04  0.47000000000E+01 0.  1.
        -11    1    1    2    0    0 -0.51659184392E+02  0.60890647324E+02  0.30367234072E+03  0.31399559357E+03  0.00000000000E+00 0.  1.
         11    1    1    2    0    0 -0.45202240217E+02 -0.33409729589E+02  0.22186316509E+03  0.22887270824E+03  0.00000000000E+00 0. -1.
<mgrwt>
<rscale>  0 0.15401717E+03</rscale>
<asrwt>0</asrwt>
<pdfrwt beam="1">  1        2 0.35381991E+00 0.16050609E+03</pdfrwt>
<pdfrwt beam="2">  1       -2 0.18944840E-02 0.16050609E+03</pdfrwt>
<totfact> 0.43154369E+03</totfact>
</mgrwt>
</event>
<event>
 6    1  0.1190675E-005  0.1531156E+03  0.7546771E-02  0.1203671E+00
         -2   -1    0    0    0  501 -0.00000000000E+00  0.00000000000E+00  0.15560709509E+03  0.15560709509E+03  0.00000000000E+00 0.  1.
          2   -1    0    0  501    0  0.00000000000E+00 -0.00000000000E+00 -0.13487435514E+03  0.13487435514E+03  0.00000000000E+00 0. -1.
          5    1    1    2  502    0 -0.34641193032E+02  0.13984361138E+02 -0.48678066802E+02  0.61540383479E+02  0.47000000000E+01 0. -1.
         -5    1    1    2    0  502  0.39957562477E+02  0.76362087888E+02  0.32934278243E+02  0.92382530541E+02  0.47000000000E+01 0.  1.
        -11    1    1    2    0    0  0.37801771886E+02 -0.16445392109E+02 -0.49081213320E+01  0.41515232558E+02  0.00000000000E+00 0.  1.
         11    1    1    2    0    0 -0.43118141331E+02 -0.73901056917E+02  0.41384649841E+02  0.95043303645E+02  0.00000000000E+00 0. -1.
<mgrwt>
<rscale>  0 0.14742662E+03</rscale>
<asrwt>0</asrwt>
<pdfrwt beam="2">  1        2 0.20749901E-01 0.15311563E+03</pdfrwt>
<pdfrwt beam="1">  1       -2 0.23939553E-01 0.15311563E+03</pdfrwt>
<totfact> 0.39439552E+03</totfact>
</mgrwt>
</event>
<event>
 6    1  0.1190675E-005  0.1855948E+03  0.7546771E-02  0.1167768E+00
          2   -1    0    0  501    0  0.00000000000E+00  0.00000000000E+00  0.23688577113E+03  0.23688577113E+03  0.00000000000E+00 0.  1.
         -2   -1    0    0    0  501 -0.00000000000E+00 -0.00000000000E+00 -0.13159908227E+03  0.13159908227E+03  0.00000000000E+00 0. -1.
          5    1    1    2  502    0  0.14552341411E+02 -0.93227680846E-01 -0.23518077784E+02  0.28052973365E+02  0.47000000000E+01 0.  1.
         -5    1    1    2    0  502 -0.32402098681E+02 -0.13592202264E+03  0.10395777667E+03  0.17422399825E+03  0.47000000000E+01 0.  1.
        -11    1    1    2    0    0  0.15873498514E+02 -0.96471884946E+01  0.10852584095E+01  0.18606826348E+02  0.00000000000E+00 0.  1.
         11    1    1    2    0    0  0.19762587551E+01  0.14566243881E+03  0.23761731567E+02  0.14760105544E+03  0.00000000000E+00 0. -1.
<mgrwt>
<rscale>  0 0.18003638E+03</rscale>
<asrwt>0</asrwt>
<pdfrwt beam="1">  1        2 0.36443965E-01 0.18559480E+03</pdfrwt>
<pdfrwt beam="2">  1       -2 0.20246013E-01 0.18559480E+03</pdfrwt>
<totfact> 0.28580171E+03</totfact>
</mgrwt>
</event>
<event>
 6    1  0.1190675E-005  0.1342886E+03  0.7546771E-02  0.1233767E+00
         -2   -1    0    0    0  501 -0.00000000000E+00  0.00000000000E+00  0.57619786842E+02  0.57619786842E+02  0.00000000000E+00 0.  1.
          2   -1    0    0  501    0  0.00000000000E+00 -0.00000000000E+00 -0.50336577434E+03  0.50336577434E+03  0.00000000000E+00 0. -1.
          5    1    1    2  502    0  0.31759794843E+02 -0.52418156730E+02 -0.24138874963E+03  0.24909228445E+03  0.47000000000E+01 0. -1.
         -5    1    1    2    0  502  0.14316181680E+02  0.69310338136E+02 -0.19550356252E+03  0.20797261596E+03  0.47000000000E+01 0. -1.
        -11    1    1    2    0    0 -0.27418459012E+02 -0.41355850373E+02  0.27150455661E+02  0.56561696379E+02  0.00000000000E+00 0.  1.
         11    1    1    2    0    0 -0.18657517512E+02  0.24463668967E+02 -0.36004131005E+02  0.47358964394E+02  0.00000000000E+00 0. -1.
<mgrwt>
<rscale>  0 0.12583730E+03</rscale>
<asrwt>0</asrwt>
<pdfrwt beam="2">  1        2 0.77440885E-01 0.13428861E+03</pdfrwt>
<pdfrwt beam="1">  1       -2 0.88645829E-02 0.13428861E+03</pdfrwt>
<totfact> 0.47919210E+03</totfact>
</mgrwt>
</event>
<event>
 6    1  0.1190675E-005  0.2301680E+03  0.7546771E-02  0.1129555E+00
          2   -1    0    0  501    0  0.00000000000E+00  0.00000000000E+00  0.67572990616E+03  0.67572990616E+03  0.00000000000E+00 0. -1.
         -2   -1    0    0    0  501 -0.00000000000E+00 -0.00000000000E+00 -0.80431039656E+02  0.80431039656E+02  0.00000000000E+00 0.  1.
          5    1    1    2  502    0 -0.73981795050E+02 -0.23413377520E+02  0.77028646219E+02  0.10943945625E+03  0.47000000000E+01 0. -1.
         -5    1    1    2    0  502 -0.44139253313E+02 -0.12955796132E+03  0.34667028631E+03  0.37274108498E+03  0.47000000000E+01 0. -1.
        -11    1    1    2    0    0  0.16368601057E+02 -0.95840481825E+01  0.30394587577E+02  0.35827587612E+02  0.00000000000E+00 0.  1.
         11    1    1    2    0    0  0.10175244731E+03  0.16255538702E+03  0.14120534641E+03  0.23815281698E+03  0.00000000000E+00 0. -1.
<mgrwt>
<rscale>  0 0.22590536E+03</rscale>
<asrwt>0</asrwt>
<pdfrwt beam="1">  1        2 0.10395844E+00 0.23016796E+03</pdfrwt>
<pdfrwt beam="2">  1       -2 0.12374007E-01 0.23016796E+03</pdfrwt>
<totfact> 0.20510608E+03</totfact>
</mgrwt>
</event>
<event>
 6    1  0.1190675E-005  0.2989940E+03  0.7546771E-02  0.1085745E+00
         -2   -1    0    0    0  501 -0.00000000000E+00  0.00000000000E+00  0.39427550758E+02  0.39427550758E+02  0.00000000000E+00 0.  1.
          2   -1    0    0  501    0  0.00000000000E+00 -0.00000000000E+00 -0.56684621117E+03  0.56684621117E+03  0.00000000000E+00 0. -1.
          5    1    1    2  502    0 -0.24271586408E+02 -0.20334815157E+02 -0.85952099991E+02  0.91719507778E+02  0.47000000000E+01 0.  1.
         -5    1    1    2    0  502  0.10248213221E+03  0.66820501194E+02 -0.29110246353E+03  0.31580104667E+03  0.47000000000E+01 0.  1.
        -11    1    1    2    0    0 -0.30631042885E+02 -0.11969606827E+02  0.44211924661E+01  0.33182513748E+02  0.00000000000E+00 0.  1.
         11    1    1    2    0    0 -0.47579502920E+02 -0.34516079210E+02 -0.15478528935E+03  0.16557069373E+03  0.00000000000E+00 0. -1.
<mgrwt>
<rscale>  0 0.29899403E+03</rscale>
<asrwt>0</asrwt>
<pdfrwt beam="2">  1        2 0.87207104E-01 0.29899403E+03</pdfrwt>
<pdfrwt beam="1">  1       -2 0.60657774E-02 0.29899403E+03</pdfrwt>
<totfact> 0.78378513E+03</totfact>
</mgrwt>
</event>
<event>
 6    1  0.1190675E-005  0.1446444E+03  0.7546771E-02  0.1217121E+00
          2   -1    0    0  501    0  0.00000000000E+00  0.00000000000E+00  0.64486142746E+03  0.64486142746E+03  0.00000000000E+00 0. -1.
         -2   -1    0    0    0  501 -0.00000000000E+00 -0.00000000000E+00 -0.30451396142E+02  0.30451396142E+02  0.00000000000E+00 0.  1.
          5    1    1    2  502    0  0.26844009423E+02 -0.97827982017E+02  0.24193935263E+03  0.26238836723E+03  0.47000000000E+01 0.  1.
         -5    1    1    2    0  502 -0.62996074931E+01  0.28010919210E+02  0.21337446472E+03  0.21534866808E+03  0.47000000000E+01 0.  1.
        -11    1    1    2    0    0 -0.11136930111E+02 -0.21994795784E+02  0.38479367196E+02  0.45699715028E+02  0.00000000000E+00 0.  1.
         11    1    1    2    0    0 -0.94074718193E+01  0.91811858591E+02  0.12061684677E+03  0.15187607326E+03  0.00000000000E+00 0. -1.
<mgrwt>
<rscale>  0 0.13721880E+03</rscale>
<asrwt>0</asrwt>
<pdfrwt beam="1">  1        2 0.99209440E-01 0.14464440E+03</pdfrwt>
<pdfrwt beam="2">  1       -2 0.46848307E-02 0.14464440E+03</pdfrwt>
<totfact> 0.96239959E+03</totfact>
</mgrwt>
</event>
<event>
 6    1  0.1190675E-005  0.2897257E+03  0.7546771E-02  0.1090492E+00
          1   -1    0    0  501    0  0.00000000000E+00  0.00000000000E+00  0.59600851114E+03  0.59600851114E+03  0.00000000000E+00 0. -1.
         -1   -1    0    0    0  501 -0.00000000000E+00 -0.00000000000E+00 -0.35209649858E+02  0.35209649858E+02  0.00000000000E+00 0.  1.
          5    1    1    2  502    0 -0.13016622766E+02 -0.52618237388E+01 -0.26081457722E+01  0.15033684900E+02  0.47000000000E+01 0.  1.
         -5    1    1    2    0  502  0.42009892870E+02  0.85242795752E+02  0.37503510742E+03  0.38691677028E+03  0.47000000000E+01 0.  1.
        -11    1    1    2    0    0 -0.57928495981E+02 -0.48764291522E+02  0.16296366928E+03  0.17969647820E+03  0.00000000000E+00 0. -1.
         11    1    1    2    0    0  0.28935225877E+02 -0.31216680491E+02  0.25408230359E+02  0.49571227617E+02  0.00000000000E+00 0.  1.
<mgrwt>
<rscale>  0 0.28972574E+03</rscale>
<asrwt>0</asrwt>
<pdfrwt beam="1">  1        1 0.91693610E-01 0.28972574E+03</pdfrwt>
<pdfrwt beam="2">  1       -1 0.54168696E-02 0.28972574E+03</pdfrwt>
<totfact> 0.55281416E+03</totfact>
</mgrwt>
</event>
<event>
 6    1  0.1190675E-005  0.1832101E+03  0.7546771E-02  0.1169966E+00
         -1   -1    0    0    0  501 -0.00000000000E+00  0.00000000000E+00  0.66089392848E+02  0.66089392848E+02  0.00000000000E+00 0. -1.
          1   -1    0    0  501    0  0.00000000000E+00 -0.00000000000E+00 -0.45679709773E+03  0.45679709773E+03  0.00000000000E+00 0.  1.
          5    1    1    2  502    0  0.84079849347E+02  0.58191226756E+02 -0.20602963928E+03  0.23005638917E+03  0.47000000000E+01 0.  1.
         -5    1    1    2    0  502 -0.17683574370E+02  0.58143953497E+02 -0.27788345388E+02  0.66990374459E+02  0.47000000000E+01 0.  1.
        -11    1    1    2    0    0  0.13190025725E+02 -0.67794816454E+02 -0.61828673131E+02  0.92697889608E+02  0.00000000000E+00 0.  1.
         11    1    1    2    0    0 -0.79586300702E+02 -0.48540363799E+02 -0.95061047087E+02  0.13314183734E+03  0.00000000000E+00 0. -1.
<mgrwt>
<rscale>  0 0.17778302E+03</rscale>
<asrwt>0</asrwt>
<pdfrwt beam="2">  1        1 0.70276476E-01 0.18321007E+03</pdfrwt>
<pdfrwt beam="1">  1       -1 0.10167599E-01 0.18321007E+03</pdfrwt>
<totfact> 0.29771842E+03</totfact>
</mgrwt>
</event>
<event>
 6    1  0.1190675E-005  0.2084795E+03  0.7546771E-02  0.1146335E+00
          1   -1    0    0  501    0  0.00000000000E+00  0.00000000000E+00  0.30708226495E+03  0.30708226495E+03  0.00000000000E+00 0. -1.
         -1   -1    0    0    0  501 -0.00000000000E+00 -0.00000000000E+00 -0.20279976031E+03  0.20279976031E+03  0.00000000000E+00 0.  1.
          5    1    1    2  502    0 -0.45152292472E+02  0.68591594179E+02  0.64819707042E+02  0.10472449918E+03  0.47000000000E+01 0. -1.
         -5    1    1    2    0  502  0.81508382339E+02  0.94248440552E+02  0.14117412166E+03  0.18835765863E+03  0.47000000000E+01 0. -1.
        -11    1    1    2    0    0  0.12366033641E+02 -0.13147656448E+03 -0.58074759740E+02  0.14426255063E+03  0.00000000000E+00 0. -1.
         11    1    1    2    0    0 -0.48722123508E+02 -0.31363470247E+02 -0.43636564324E+02  0.72537316817E+02  0.00000000000E+00 0.  1.
<mgrwt>
<rscale>  0 0.20408782E+03</rscale>
<asrwt>0</asrwt>
<pdfrwt beam="1">  1        1 0.47243425E-01 0.20847948E+03</pdfrwt>
<pdfrwt beam="2">  1       -1 0.31199963E-01 0.20847948E+03</pdfrwt>
<totfact> 0.81349183E+02</totfact>
</mgrwt>
</event>
<event>
 6    1  0.1190675E-005  0.1279668E+03  0.7546771E-02  0.1244955E+00
         -3   -1    0    0    0  501 -0.00000000000E+00  0.00000000000E+00  0.50010105587E+02  0.50010105587E+02  0.00000000000E+00 0.  1.
          3   -1    0    0  501    0  0.00000000000E+00 -0.00000000000E+00 -0.25067050595E+03  0.25067050595E+03  0.00000000000E+00 0. -1.
          5    1    1    2  502    0  0.40089599867E+02 -0.26793164671E+02 -0.10900267576E+03  0.11928421108E+03  0.47000000000E+01 0.  1.
         -5    1    1    2    0  502 -0.44797936060E+02 -0.24968821876E+00  0.53958887342E+01  0.45366540916E+02  0.47000000000E+01 0.  1.
        -11    1    1    2    0    0  0.16897464264E+02  0.26743464950E+02 -0.11220648995E+03  0.11658058845E+03  0.00000000000E+00 0. -1.
         11    1    1    2    0    0 -0.12189128071E+02  0.29938793993E+00  0.15152876614E+02  0.19449271090E+02  0.00000000000E+00 0.  1.
<mgrwt>
<rscale>  0 0.11888086E+03</rscale>
<asrwt>0</asrwt>
<pdfrwt beam="2">  1        3 0.38564693E-01 0.12796681E+03</pdfrwt>
<pdfrwt beam="1">  1       -3 0.76938625E-02 0.12796681E+03</pdfrwt>
<totfact> 0.17230649E+03</totfact>
</mgrwt>
</event>
<event>
 6    1  0.1190675E-005  0.1160114E+03  0.7546771E-02  0.1253097E+00
          2   -1    0    0  501    0  0.00000000000E+00  0.00000000000E+00  0.35046912875E+03  0.35046912875E+03  0.00000000000E+00 0. -1.
         -2   -1    0    0    0  501 -0.00000000000E+00 -0.00000000000E+00 -0.41832456766E+02  0.41832456766E+02  0.00000000000E+00 0.  1.
          5    1    1    2  502    0 -0.57812441979E+01 -0.39246189699E+02  0.43823724162E+02  0.59298355709E+02  0.47000000000E+01 0. -1.
         -5    1    1    2    0  502  0.32966507651E+02  0.59342741124E+02  0.18793245616E+03  0.19987258348E+03  0.47000000000E+01 0.  1.
        -11    1    1    2    0    0 -0.31892074703E+02 -0.49972137732E+02  0.10526439037E+02  0.60209010100E+02  0.00000000000E+00 0.  1.
         11    1    1    2    0    0  0.47068112504E+01  0.29875586308E+02  0.66354052627E+02  0.72921636223E+02  0.00000000000E+00 0. -1.
<mgrwt>
<rscale>  0 0.11413565E+03</rscale>
<asrwt>0</asrwt>
<pdfrwt beam="1">  1        2 0.53918325E-01 0.11601142E+03</pdfrwt>
<pdfrwt beam="2">  1       -2 0.64357628E-02 0.11601142E+03</pdfrwt>
<totfact> 0.11441359E+04</totfact>
</mgrwt>
</event>
<event>
 6    1  0.1190675E-005  0.2851556E+03  0.7546771E-02  0.1094789E+00
         -2   -1    0    0    0  501 -0.00000000000E+00  0.00000000000E+00  0.34495261504E+02  0.34495261504E+02  0.00000000000E+00 0.  1.
          2   -1    0    0  501    0  0.00000000000E+00 -0.00000000000E+00 -0.22559889987E+04  0.22559889987E+04  0.00000000000E+00 0. -1.
          5    1    1    2  502    0 -0.68779471656E+02 -0.28153194042E+02 -0.53415062184E+03  0.53931641442E+03  0.47000000000E+01 0.  1.
         -5    1    1    2    0  502 -0.82708782789E+02 -0.17858503341E+03 -0.68411360506E+03  0.71187560117E+03  0.47000000000E+01 0.  1.
        -11    1    1    2    0    0  0.82295396131E+02  0.11022736793E+03 -0.70489414444E+03  0.71819103289E+03  0.00000000000E+00 0.  1.
         11    1    1    2    0    0  0.69192858314E+02  0.96510859526E+02 -0.29833536589E+03  0.32110121175E+03  0.00000000000E+00 0. -1.
<mgrwt>
<rscale>  0 0.28165316E+03</rscale>
<asrwt>0</asrwt>
<pdfrwt beam="2">  1        2 0.34707528E+00 0.28515563E+03</pdfrwt>
<pdfrwt beam="1">  1       -2 0.53069626E-02 0.28515563E+03</pdfrwt>
<totfact> 0.96969007E+02</totfact>
</mgrwt>
</event>
<event>
 6    1  0.1190675E-005  0.1297928E+03  0.7546771E-02  0.1242213E+00
         -2   -1    0    0    0  501 -0.00000000000E+00  0.00000000000E+00  0.24156084776E+02  0.24156084776E+02  0.00000000000E+00 0.  1.
          2   -1    0    0  501    0  0.00000000000E+00 -0.00000000000E+00 -0.78836938444E+03  0.78836938444E+03  0.00000000000E+00 0. -1.
          5    1    1    2  502    0  0.89210990135E+01 -0.47642555936E+02 -0.94032091965E+02  0.10589392552E+03  0.47000000000E+01 0.  1.
         -5    1    1    2    0  502 -0.27023834969E+02  0.17736095043E+02 -0.55661363940E+03  0.55757124235E+03  0.47000000000E+01 0.  1.
        -11    1    1    2    0    0 -0.33858507045E+02 -0.37353824196E+01 -0.48336257630E+02  0.59133284897E+02  0.00000000000E+00 0.  1.
         11    1    1    2    0    0  0.51961243000E+02  0.33641843312E+02 -0.65231310662E+02  0.89927016442E+02  0.00000000000E+00 0. -1.
<mgrwt>
<rscale>  0 0.12053770E+03</rscale>
<asrwt>0</asrwt>
<pdfrwt beam="2">  1        2 0.12128756E+00 0.12979276E+03</pdfrwt>
<pdfrwt beam="1">  1       -2 0.37163218E-02 0.12979276E+03</pdfrwt>
<totfact> 0.10613250E+04</totfact>
</mgrwt>
</event>
<event>
 6    1  0.1190675E-005  0.1266073E+03  0.7546771E-02  0.1245539E+00
         -1   -1    0    0    0  501 -0.00000000000E+00  0.00000000000E+00  0.83782793797E+02  0.83782793797E+02  0.00000000000E+00 0.  1.
          1   -1    0    0  501    0  0.00000000000E+00 -0.00000000000E+00 -0.15801229584E+03  0.15801229584E+03  0.00000000000E+00 0. -1.
          5    1    1    2  502    0  0.65408330269E+02  0.73765724436E+01 -0.66152315222E+02  0.93439190380E+02  0.47000000000E+01 0. -1.
         -5    1    1    2    0  502 -0.50304504599E+02  0.58823434155E+01 -0.33124979945E+01  0.50972618041E+02  0.47000000000E+01 0. -1.
        -11    1    1    2    0    0 -0.12854821279E+01  0.28821135429E+02 -0.33788881317E+02  0.44429706418E+02  0.00000000000E+00 0. -1.
         11    1    1    2    0    0 -0.13818343542E+02 -0.42080051288E+02  0.29024192488E+02  0.52953574801E+02  0.00000000000E+00 0.  1.
<mgrwt>
<rscale>  0 0.11853185E+03</rscale>
<asrwt>0</asrwt>
<pdfrwt beam="2">  1        1 0.24309584E-01 0.12660731E+03</pdfrwt>
<pdfrwt beam="1">  1       -1 0.12889661E-01 0.12660731E+03</pdfrwt>
<totfact> 0.76425932E+03</totfact>
</mgrwt>
</event>
<event>
 6    1  0.1190675E-005  0.1398979E+03  0.7546771E-02  0.1223564E+00
         -2   -1    0    0    0  501 -0.00000000000E+00  0.00000000000E+00  0.65584553711E+02  0.65584553711E+02  0.00000000000E+00 0.  1.
          2   -1    0    0  501    0  0.00000000000E+00 -0.00000000000E+00 -0.25885112807E+03  0.25885112807E+03  0.00000000000E+00 0. -1.
          5    1    1    2  502    0 -0.19688984406E+02 -0.96865145048E+02 -0.12559238107E+03  0.15989386672E+03  0.47000000000E+01 0.  1.
         -5    1    1    2    0  502  0.11623483869E+02  0.34556476511E+02 -0.19319174841E+02  0.41528014191E+02  0.47000000000E+01 0.  1.
        -11    1    1    2    0    0  0.23702645762E+02 -0.20611859575E+01  0.17555274883E+02  0.29567745600E+02  0.00000000000E+00 0.  1.
         11    1    1    2    0    0 -0.15637145225E+02  0.64369854494E+02 -0.65910293330E+02  0.93446055269E+02  0.00000000000E+00 0. -1.
<mgrwt>
<rscale>  0 0.13265845E+03</rscale>
<asrwt>0</asrwt>
<pdfrwt beam="2">  1        2 0.39823250E-01 0.13989787E+03</pdfrwt>
<pdfrwt beam="1">  1       -2 0.10089931E-01 0.13989787E+03</pdfrwt>
<totfact> 0.79874766E+03</totfact>
</mgrwt>
</event>
<event>
 6    1  0.1190675E-005  0.1375712E+03  0.7546771E-02  0.1228201E+00
         -2   -1    0    0    0  501 -0.00000000000E+00  0.00000000000E+00  0.11793216652E+02  0.11793216652E+02  0.00000000000E+00 0.  1.
          2   -1    0    0  501    0  0.00000000000E+00 -0.00000000000E+00 -0.17265580158E+04  0.17265580158E+04  0.00000000000E+00 0. -1.
          5    1    1    2  502    0 -0.71663239495E+02  0.32672045905E+02 -0.54039144053E+03  0.54612094034E+03  0.47000000000E+01 0. -1.
         -5    1    1    2    0  502  0.40460045818E+02  0.15575367242E+02 -0.83377266845E+03  0.83491230679E+03  0.47000000000E+01 0. -1.
        -11    1    1    2    0    0  0.21653563545E+02  0.25557043590E+02 -0.11290818272E+03  0.11777222515E+03  0.00000000000E+00 0.  1.
         11    1    1    2    0    0  0.95496301311E+01 -0.73804456737E+02 -0.22769250743E+03  0.23954576016E+03  0.00000000000E+00 0. -1.
<mgrwt>
<rscale>  0 0.12949916E+03</rscale>
<asrwt>0</asrwt>
<pdfrwt beam="2">  1        2 0.26562419E+00 0.13757119E+03</pdfrwt>
<pdfrwt beam="1">  1       -2 0.18143418E-02 0.13757119E+03</pdfrwt>
<totfact> 0.90526226E+03</totfact>
</mgrwt>
</event>
<event>
 6    1  0.1190675E-005  0.1359186E+03  0.7546771E-02  0.1231049E+00
          2   -1    0    0  501    0  0.00000000000E+00  0.00000000000E+00  0.45835024512E+03  0.45835024512E+03  0.00000000000E+00 0. -1.
         -2   -1    0    0    0  501 -0.00000000000E+00 -0.00000000000E+00 -0.45287435847E+02  0.45287435847E+02  0.00000000000E+00 0.  1.
          5    1    1    2  502    0 -0.35567964611E+01  0.25270632832E+02  0.29188997120E+03  0.29304112505E+03  0.47000000000E+01 0. -1.
         -5    1    1    2    0  502  0.56900690197E+02 -0.23840138078E+02  0.69432213209E+02  0.92999800858E+02  0.47000000000E+01 0. -1.
        -11    1    1    2    0    0 -0.16526497441E+02  0.19081776638E+02 -0.21458372402E+02  0.33131572004E+02  0.00000000000E+00 0.  1.
         11    1    1    2    0    0 -0.36817396295E+02 -0.20512271392E+02  0.73198997272E+02  0.84465183059E+02  0.00000000000E+00 0. -1.
<mgrwt>
<rscale>  0 0.12760800E+03</rscale>
<asrwt>0</asrwt>
<pdfrwt beam="1">  1        2 0.70515419E-01 0.13591864E+03</pdfrwt>
<pdfrwt beam="2">  1       -2 0.69672981E-02 0.13591864E+03</pdfrwt>
<totfact> 0.77006025E+03</totfact>
</mgrwt>
</event>
<event>
 6    1  0.1190675E-005  0.1254006E+03  0.7546771E-02  0.1249756E+00
          1   -1    0    0  501    0  0.00000000000E+00  0.00000000000E+00  0.27161879813E+03  0.27161879813E+03  0.00000000000E+00 0. -1.
         -1   -1    0    0    0  501 -0.00000000000E+00 -0.00000000000E+00 -0.44577461508E+02  0.44577461508E+02  0.00000000000E+00 0.  1.
          5    1    1    2  502    0 -0.53118981362E+02 -0.14834037458E+02  0.40168986422E+02  0.68390878913E+02  0.47000000000E+01 0. -1.
         -5    1    1    2    0  502  0.62045116810E+02  0.10075935147E+02  0.11473184217E+03  0.13090686230E+03  0.47000000000E+01 0. -1.
        -11    1    1    2    0    0 -0.87982460627E+01 -0.19641308824E+02  0.86126357686E+02  0.88774656487E+02  0.00000000000E+00 0. -1.
         11    1    1    2    0    0 -0.12788938501E+00  0.24399411135E+02 -0.13985849662E+02  0.28123861936E+02  0.00000000000E+00 0.  1.
<mgrwt>
<rscale>  0 0.11605200E+03</rscale>
<asrwt>0</asrwt>
<pdfrwt beam="1">  1        1 0.41787507E-01 0.12540065E+03</pdfrwt>
<pdfrwt beam="2">  1       -1 0.68580711E-02 0.12540065E+03</pdfrwt>
<totfact> 0.10172463E+04</totfact>
</mgrwt>
</event>
<event>
 6    1  0.1190675E-005  0.1417645E+03  0.7546771E-02  0.1225780E+00
          1   -1    0    0  501    0  0.00000000000E+00  0.00000000000E+00  0.55843531174E+03  0.55843531174E+03  0.00000000000E+00 0. -1.
         -1   -1    0    0    0  501 -0.00000000000E+00 -0.00000000000E+00 -0.31671400403E+02  0.31671400403E+02  0.00000000000E+00 0.  1.
          5    1    1    2  502    0 -0.20053436152E+00 -0.52606016181E+02  0.30344993207E+03  0.30801198747E+03  0.47000000000E+01 0. -1.
         -5    1    1    2    0  502  0.50547701673E+02  0.43638549449E+02  0.10685411123E+03  0.12609236388E+03  0.47000000000E+01 0.  1.
        -11    1    1    2    0    0  0.16839099510E+02 -0.14978725827E+02  0.62870393020E+02  0.66787752007E+02  0.00000000000E+00 0. -1.
         11    1    1    2    0    0 -0.67186266821E+02  0.23946192559E+02  0.53589475008E+02  0.89214608776E+02  0.00000000000E+00 0.  1.
<mgrwt>
<rscale>  0 0.13113601E+03</rscale>
<asrwt>0</asrwt>
<pdfrwt beam="1">  1        1 0.85913118E-01 0.14176452E+03</pdfrwt>
<pdfrwt beam="2">  1       -1 0.48725235E-02 0.14176452E+03</pdfrwt>
<totfact> 0.68457182E+03</totfact>
</mgrwt>
</event>
<event>
 6    1  0.1190675E-005  0.1594660E+03  0.7546771E-02  0.1208714E+00
          1   -1    0    0  501    0  0.00000000000E+00  0.00000000000E+00  0.25764770454E+03  0.25764770454E+03  0.00000000000E+00 0. -1.
         -1   -1    0    0    0  501 -0.00000000000E+00 -0.00000000000E+00 -0.73106835083E+02  0.73106835083E+02  0.00000000000E+00 0.  1.
          5    1    1    2  502    0 -0.10489488458E+03 -0.23809924166E+01  0.89205325747E+02  0.13779799011E+03  0.47000000000E+01 0. -1.
         -5    1    1    2    0  502  0.52994825367E+02  0.17937820769E+01  0.65201777261E+02  0.84172625763E+02  0.47000000000E+01 0.  1.
        -11    1    1    2    0    0 -0.69598170335E+01 -0.28228539479E+02  0.31983217868E+02  0.43222861074E+02  0.00000000000E+00 0. -1.
         11    1    1    2    0    0  0.58859876246E+02  0.28815749819E+02 -0.18494514166E+01  0.65561062681E+02  0.00000000000E+00 0.  1.
<mgrwt>
<rscale>  0 0.14348556E+03</rscale>
<asrwt>0</asrwt>
<pdfrwt beam="1">  1        1 0.39638108E-01 0.15946599E+03</pdfrwt>
<pdfrwt beam="2">  1       -1 0.11247206E-01 0.15946599E+03</pdfrwt>
<totfact> 0.52090119E+03</totfact>
</mgrwt>
</event>
<event>
 6    1  0.1190675E-005  0.1571252E+03  0.7546771E-02  0.1201587E+00
         -2   -1    0    0    0  501 -0.00000000000E+00  0.00000000000E+00  0.16368630772E+02  0.16368630772E+02  0.00000000000E+00 0.  1.
          2   -1    0    0  501    0  0.00000000000E+00 -0.00000000000E+00 -0.13127250462E+04  0.13127250462E+04  0.00000000000E+00 0. -1.
          5    1    1    2  502    0 -0.11433039814E+02  0.12344643253E+02 -0.14531915117E+02  0.22723801914E+02  0.47000000000E+01 0. -1.
         -5    1    1    2    0  502 -0.42368951189E+02 -0.90884167508E+02 -0.85692593707E+03  0.86278572749E+03  0.47000000000E+01 0. -1.
        -11    1    1    2    0    0 -0.12164056098E+02  0.19039247193E+02 -0.24002260333E+02  0.32963095963E+02  0.00000000000E+00 0.  1.
         11    1    1    2    0    0  0.65966047100E+02  0.59500277062E+02 -0.40089630291E+03  0.41062105161E+03  0.00000000000E+00 0. -1.
<mgrwt>
<rscale>  0 0.14909667E+03</rscale>
<asrwt>0</asrwt>
<pdfrwt beam="2">  1        2 0.20195774E+00 0.15712523E+03</pdfrwt>
<pdfrwt beam="1">  1       -2 0.25182504E-02 0.15712523E+03</pdfrwt>
<totfact> 0.92888628E+03</totfact>
</mgrwt>
</event>
<event>
 6    1  0.1190675E-005  0.1578069E+03  0.7546771E-02  0.1199300E+00
         -2   -1    0    0    0  501 -0.00000000000E+00  0.00000000000E+00  0.79445667546E+02  0.79445667546E+02  0.00000000000E+00 0.  1.
          2   -1    0    0  501    0  0.00000000000E+00 -0.00000000000E+00 -0.29043440389E+03  0.29043440389E+03  0.00000000000E+00 0. -1.
          5    1    1    2  502    0 -0.24706231171E+02  0.64807230225E+01 -0.10561207141E+03  0.10875843533E+03  0.47000000000E+01 0. -1.
         -5    1    1    2    0  502  0.20250410865E+02 -0.10270059366E+03 -0.63389325151E+02  0.12246545481E+03  0.47000000000E+01 0. -1.
        -11    1    1    2    0    0 -0.94372842064E+01  0.27450699910E+02 -0.59624224262E+02  0.66314790037E+02  0.00000000000E+00 0. -1.
         11    1    1    2    0    0  0.13893104512E+02  0.68769170723E+02  0.17636884478E+02  0.72341391257E+02  0.00000000000E+00 0.  1.
<mgrwt>
<rscale>  0 0.15095868E+03</rscale>
<asrwt>0</asrwt>
<pdfrwt beam="2">  1        2 0.44682215E-01 0.15780689E+03</pdfrwt>
<pdfrwt beam="1">  1       -2 0.12222411E-01 0.15780689E+03</pdfrwt>
<totfact> 0.52504566E+03</totfact>
</mgrwt>
</event>
<event>
 6    1  0.1190675E-005  0.1314650E+03  0.7546771E-02  0.1236876E+00
         -1   -1    0    0    0  501 -0.00000000000E+00  0.00000000000E+00  0.37470001152E+03  0.37470001152E+03  0.00000000000E+00 0.  1.
          1   -1    0    0  501    0  0.00000000000E+00 -0.00000000000E+00 -0.40055712261E+02  0.40055712261E+02  0.00000000000E+00 0. -1.
          5    1    1    2  502    0  0.32317270175E+02 -0.52693222771E+02  0.19587353824E+02  0.65013353300E+02  0.47000000000E+01 0. -1.
         -5    1    1    2    0  502  0.80335252576E+01  0.47219706976E+02  0.10775311961E+03  0.11801297827E+03  0.47000000000E+01 0. -1.
        -11    1    1    2    0    0 -0.12374247958E+02  0.49558763591E+02  0.94288885696E+02  0.10723612743E+03  0.00000000000E+00 0.  1.
         11    1    1    2    0    0 -0.27976547475E+02 -0.44085247796E+02  0.11301494013E+03  0.12449326477E+03  0.00000000000E+00 0. -1.
<mgrwt>
<rscale>  0 0.12385123E+03</rscale>
<asrwt>0</asrwt>
<pdfrwt beam="2">  1        1 0.61624175E-02 0.13146498E+03</pdfrwt>
<pdfrwt beam="1">  1       -1 0.57646153E-01 0.13146498E+03</pdfrwt>
<totfact> 0.37445094E+03</totfact>
</mgrwt>
</event>
<event>
 6    1  0.1190675E-005  0.1328924E+03  0.7546771E-02  0.1237169E+00
         -3   -1    0    0    0  501 -0.00000000000E+00  0.00000000000E+00  0.14137216005E+03  0.14137216005E+03  0.00000000000E+00 0.  1.
          3   -1    0    0  501    0  0.00000000000E+00 -0.00000000000E+00 -0.10435965072E+03  0.10435965072E+03  0.00000000000E+00 0. -1.
          5    1    1    2  502    0 -0.85745878969E+02 -0.34138641184E+01 -0.94845325489E+01  0.86464192508E+02  0.47000000000E+01 0.  1.
         -5    1    1    2    0  502  0.44381050068E+02 -0.14575176771E+02 -0.47839747159E+01  0.47192052266E+02  0.47000000000E+01 0.  1.
        -11    1    1    2    0    0 -0.25613851279E+02 -0.89265454161E+01  0.18249690027E+02  0.32692564545E+02  0.00000000000E+00 0. -1.
         11    1    1    2    0    0  0.66978680181E+02  0.26915586306E+02  0.33031326565E+02  0.79383001452E+02  0.00000000000E+00 0.  1.
<mgrwt>
<rscale>  0 0.12366602E+03</rscale>
<asrwt>0</asrwt>
<pdfrwt beam="2">  1        3 0.16055331E-01 0.13289244E+03</pdfrwt>
<pdfrwt beam="1">  1       -3 0.21749563E-01 0.13289244E+03</pdfrwt>
<totfact> 0.14605741E+03</totfact>
</mgrwt>
</event>
<event>
 6    1  0.1190675E-005  0.3597617E+03  0.7546771E-02  0.1058678E+00
         -1   -1    0    0    0  501 -0.00000000000E+00  0.00000000000E+00  0.71118223068E+02  0.71118223068E+02  0.00000000000E+00 0.  1.
          1   -1    0    0  501    0  0.00000000000E+00 -0.00000000000E+00 -0.45497646509E+03  0.45497646509E+03  0.00000000000E+00 0. -1.
          5    1    1    2  502    0 -0.21796335127E+02  0.30223490661E+02 -0.18842543837E+03  0.19213218220E+03  0.47000000000E+01 0.  1.
         -5    1    1    2    0  502  0.45045966506E+02 -0.79000794139E+02 -0.20909203742E+03  0.22806103281E+03  0.47000000000E+01 0.  1.
        -11    1    1    2    0    0 -0.49578949471E+02  0.18145334836E+00  0.34754260857E+01  0.49700943074E+02  0.00000000000E+00 0.  1.
         11    1    1    2    0    0  0.26329318092E+02  0.48595850130E+02  0.10183807687E+02  0.56200530069E+02  0.00000000000E+00 0. -1.
<mgrwt>
<rscale>  0 0.35976169E+03</rscale>
<asrwt>0</asrwt>
<pdfrwt beam="2">  1        1 0.69996379E-01 0.35976169E+03</pdfrwt>
<pdfrwt beam="1">  1       -1 0.10941265E-01 0.35976169E+03</pdfrwt>
<totfact> 0.27207756E+03</totfact>
</mgrwt>
</event>
<event>
 6    1  0.1190675E-005  0.1379371E+03  0.7546771E-02  0.1227618E+00
          1   -1    0    0  501    0  0.00000000000E+00  0.00000000000E+00  0.27843932010E+03  0.27843932010E+03  0.00000000000E+00 0.  1.
         -1   -1    0    0    0  501 -0.00000000000E+00 -0.00000000000E+00 -0.55364448287E+02  0.55364448287E+02  0.00000000000E+00 0. -1.
          5    1    1    2  502    0 -0.23977567788E+02 -0.87819742105E+01  0.15455439461E+03  0.15672012545E+03  0.47000000000E+01 0.  1.
         -5    1    1    2    0  502 -0.30664682667E+02  0.29186586518E+02 -0.92953751600E+01  0.43596715415E+02  0.47000000000E+01 0.  1.
        -11    1    1    2    0    0  0.19287313953E+02  0.34215634633E+02  0.47702903789E+02  0.61792209564E+02  0.00000000000E+00 0. -1.
         11    1    1    2    0    0  0.35354936502E+02 -0.54620246940E+02  0.30112948570E+02  0.71694717954E+02  0.00000000000E+00 0.  1.
<mgrwt>
<rscale>  0 0.12989061E+03</rscale>
<asrwt>0</asrwt>
<pdfrwt beam="1">  1        1 0.42836818E-01 0.13793714E+03</pdfrwt>
<pdfrwt beam="2">  1       -1 0.85176076E-02 0.13793714E+03</pdfrwt>
<totfact> 0.71711566E+03</totfact>
</mgrwt>
</event>
<event>
 6    1  0.1190675E-005  0.1480042E+03  0.7546771E-02  0.1216312E+00
         -1   -1    0    0    0  501 -0.00000000000E+00  0.00000000000E+00  0.53743450569E+02  0.53743450569E+02  0.00000000000E+00 0.  1.
          1   -1    0    0  501    0  0.00000000000E+00 -0.00000000000E+00 -0.12245957260E+04  0.12245957260E+04  0.00000000000E+00 0. -1.
          5    1    1    2  502    0  0.33823387571E+01 -0.66876000536E+01 -0.95564260585E+03  0.95568354821E+03  0.47000000000E+01 0. -1.
         -5    1    1    2    0  502  0.38743715979E+02 -0.48394052658E+02 -0.20114486953E+03  0.21053362771E+03  0.47000000000E+01 0.  1.
        -11    1    1    2    0    0  0.47959043236E+01 -0.18095230610E+02 -0.16796573025E+02  0.25150803854E+02  0.00000000000E+00 0. -1.
         11    1    1    2    0    0 -0.46921959060E+02  0.73176883322E+02  0.27317729300E+01  0.86971196830E+02  0.00000000000E+00 0.  1.
<mgrwt>
<rscale>  0 0.13780570E+03</rscale>
<asrwt>0</asrwt>
<pdfrwt beam="2">  1        1 0.18839933E+00 0.14800418E+03</pdfrwt>
<pdfrwt beam="1">  1       -1 0.82682238E-02 0.14800418E+03</pdfrwt>
<totfact> 0.90908272E+02</totfact>
</mgrwt>
</event>
<event>
 6    1  0.1190675E-005  0.1287254E+03  0.7546771E-02  0.1243088E+00
          2   -1    0    0  501    0  0.00000000000E+00  0.00000000000E+00  0.34201407374E+03  0.34201407374E+03  0.00000000000E+00 0. -1.
         -2   -1    0    0    0  501 -0.00000000000E+00 -0.00000000000E+00 -0.54223150473E+02  0.54223150473E+02  0.00000000000E+00 0.  1.
          5    1    1    2  502    0 -0.38990068288E+02  0.99386335921E+01  0.30869933747E+02  0.50931764866E+02  0.47000000000E+01 0. -1.
         -5    1    1    2    0  502  0.66725019627E+02  0.33106438591E+01  0.23670142584E+03  0.24599358447E+03  0.47000000000E+01 0. -1.
        -11    1    1    2    0    0 -0.41550546854E+02 -0.29159212874E+02 -0.19476890320E+02  0.54369632111E+02  0.00000000000E+00 0.  1.
         11    1    1    2    0    0  0.13815595515E+02  0.15909935423E+02  0.39696454005E+02  0.44942242769E+02  0.00000000000E+00 0. -1.
<mgrwt>
<rscale>  0 0.12000525E+03</rscale>
<asrwt>0</asrwt>
<pdfrwt beam="1">  1        2 0.52617548E-01 0.12872541E+03</pdfrwt>
<pdfrwt beam="2">  1       -2 0.83420234E-02 0.12872541E+03</pdfrwt>
<totfact> 0.79536270E+03</totfact>
</mgrwt>
</event>
<event>
 6    1  0.1190675E-005  0.1476536E+03  0.7546771E-02  0.1213227E+00
          2   -1    0    0  501    0  0.00000000000E+00  0.00000000000E+00  0.12752920964E+04  0.12752920964E+04  0.00000000000E+00 0. -1.
         -2   -1    0    0    0  501 -0.00000000000E+00 -0.00000000000E+00 -0.16337218100E+02  0.16337218100E+02  0.00000000000E+00 0.  1.
          5    1    1    2  502    0 -0.81907817117E+02  0.34992403257E+02  0.64241665280E+03  0.64857891161E+03  0.47000000000E+01 0.  1.
         -5    1    1    2    0  502  0.44624415056E+02  0.34189208321E+02  0.28673343088E+03  0.29223003058E+03  0.47000000000E+01 0.  1.
        -11    1    1    2    0    0 -0.16618356746E+01 -0.10908948961E+02 -0.24080671866E+01  0.11294496573E+02  0.00000000000E+00 0.  1.
         11    1    1    2    0    0  0.38945237735E+02 -0.58272662616E+02  0.33221286185E+03  0.33952587579E+03  0.00000000000E+00 0. -1.
<mgrwt>
<rscale>  0 0.14007616E+03</rscale>
<asrwt>0</asrwt>
<pdfrwt beam="1">  1        2 0.19619871E+00 0.14765361E+03</pdfrwt>
<pdfrwt beam="2">  1       -2 0.25134192E-02 0.14765361E+03</pdfrwt>
<totfact> 0.97344958E+03</totfact>
</mgrwt>
</event>
<event>
 6    1  0.1190675E-005  0.1830923E+03  0.7546771E-02  0.1170144E+00
          3   -1    0    0  501    0  0.00000000000E+00  0.00000000000E+00  0.62744282160E+03  0.62744282160E+03  0.00000000000E+00 0. -1.
         -3   -1    0    0    0  501 -0.00000000000E+00 -0.00000000000E+00 -0.74952595872E+02  0.74952595872E+02  0.00000000000E+00 0.  1.
          5    1    1    2  502    0 -0.41952700193E+02 -0.87533238800E+02  0.38919518136E+03  0.40114470723E+03  0.47000000000E+01 0.  1.
         -5    1    1    2    0  502  0.53226208690E+02 -0.45769166049E+02  0.11007474959E+03  0.13063838008E+03  0.47000000000E+01 0.  1.
        -11    1    1    2    0    0 -0.45864873439E+02  0.38019687951E+02  0.99656209030E+01  0.60401960957E+02  0.00000000000E+00 0.  1.
         11    1    1    2    0    0  0.34591364942E+02  0.95282716897E+02  0.43254673878E+02  0.11021036920E+03  0.00000000000E+00 0. -1.
<mgrwt>
<rscale>  0 0.17760198E+03</rscale>
<asrwt>0</asrwt>
<pdfrwt beam="1">  1        3 0.96529661E-01 0.18309229E+03</pdfrwt>
<pdfrwt beam="2">  1       -3 0.11531169E-01 0.18309229E+03</pdfrwt>
<totfact> 0.13827573E+02</totfact>
</mgrwt>
</event>
<event>
 6    1  0.1190675E-005  0.2613238E+03  0.7546771E-02  0.1108358E+00
         -2   -1    0    0    0  501 -0.00000000000E+00  0.00000000000E+00  0.20232611945E+03  0.20232611945E+03  0.00000000000E+00 0.  1.
          2   -1    0    0  501    0  0.00000000000E+00 -0.00000000000E+00 -0.32125753553E+03  0.32125753553E+03  0.00000000000E+00 0. -1.
          5    1    1    2  502    0 -0.12775380942E+02  0.82658990113E+01 -0.94786621370E+01  0.18532956607E+02  0.47000000000E+01 0. -1.
         -5    1    1    2    0  502  0.23182820650E+03 -0.76683699412E+02 -0.41959606831E+02  0.24780517689E+03  0.47000000000E+01 0. -1.
        -11    1    1    2    0    0 -0.13246186454E+03  0.80506084383E+02 -0.69306045387E+02  0.16979606328E+03  0.00000000000E+00 0.  1.
         11    1    1    2    0    0 -0.86590961025E+02 -0.12088283983E+02  0.18128982798E+01  0.87449458209E+02  0.00000000000E+00 0. -1.
<mgrwt>
<rscale>  0 0.25798789E+03</rscale>
<asrwt>0</asrwt>
<pdfrwt beam="2">  1        2 0.49424236E-01 0.26132376E+03</pdfrwt>
<pdfrwt beam="1">  1       -2 0.31127096E-01 0.26132376E+03</pdfrwt>
<totfact> 0.97071882E+02</totfact>
</mgrwt>
</event>
<event>
 6    1  0.1190675E-005  0.1405048E+03  0.7546771E-02  0.1224257E+00
          1   -1    0    0  501    0  0.00000000000E+00  0.00000000000E+00  0.67801443026E+02  0.67801443026E+02  0.00000000000E+00 0. -1.
         -1   -1    0    0    0  501 -0.00000000000E+00 -0.00000000000E+00 -0.23160798341E+03  0.23160798341E+03  0.00000000000E+00 0.  1.
          5    1    1    2  502    0 -0.34050646465E+02 -0.28238479780E+02  0.22407969243E+02  0.49810293621E+02  0.47000000000E+01 0.  1.
         -5    1    1    2    0  502 -0.29392921694E+02  0.18670530151E+02 -0.11067648145E+03  0.11612022256E+03  0.47000000000E+01 0.  1.
        -11    1    1    2    0    0  0.65043782985E+02  0.32938297050E+02 -0.81454568129E+02  0.10931821343E+03  0.00000000000E+00 0.  1.
         11    1    1    2    0    0 -0.16002148262E+01 -0.23370347422E+02  0.59165399534E+01  0.24160696826E+02  0.00000000000E+00 0. -1.
<mgrwt>
<rscale>  0 0.13217955E+03</rscale>
<asrwt>0</asrwt>
<pdfrwt beam="1">  1        1 0.10430991E-01 0.14050483E+03</pdfrwt>
<pdfrwt beam="2">  1       -1 0.35631997E-01 0.14050483E+03</pdfrwt>
<totfact> 0.44024758E+03</totfact>
</mgrwt>
</event>
<event>
 6    1  0.1190675E-005  0.2149114E+03  0.7546771E-02  0.1156777E+00
         -1   -1    0    0    0  501 -0.00000000000E+00  0.00000000000E+00  0.16667231416E+03  0.16667231416E+03  0.00000000000E+00 0.  1.
          1   -1    0    0  501    0  0.00000000000E+00 -0.00000000000E+00 -0.20039689152E+03  0.20039689152E+03  0.00000000000E+00 0. -1.
          5    1    1    2  502    0  0.79486801553E+02  0.12551055644E+03 -0.83925787000E+02  0.17069469565E+03  0.47000000000E+01 0. -1.
         -5    1    1    2    0  502 -0.18600653153E+02 -0.49710807768E+02  0.14377236308E+02  0.55190068224E+02  0.47000000000E+01 0.  1.
        -11    1    1    2    0    0  0.12888827358E+02 -0.56241498425E+02  0.28942148664E+02  0.64551343789E+02  0.00000000000E+00 0. -1.
         11    1    1    2    0    0 -0.73774975758E+02 -0.19558250243E+02  0.68818246656E+01  0.76633098015E+02  0.00000000000E+00 0.  1.
<mgrwt>
<rscale>  0 0.19187951E+03</rscale>
<asrwt>0</asrwt>
<pdfrwt beam="2">  1        1 0.30830291E-01 0.21491144E+03</pdfrwt>
<pdfrwt beam="1">  1       -1 0.25641894E-01 0.21491144E+03</pdfrwt>
<totfact> 0.19350971E+03</totfact>
</mgrwt>
</event>
<event>
 6    1  0.1190675E-005  0.1364313E+03  0.7546771E-02  0.1237398E+00
         -2   -1    0    0    0  501 -0.00000000000E+00  0.00000000000E+00  0.93092331553E+02  0.93092331553E+02  0.00000000000E+00 0.  1.
          2   -1    0    0  501    0  0.00000000000E+00 -0.00000000000E+00 -0.14067775165E+03  0.14067775165E+03  0.00000000000E+00 0. -1.
          5    1    1    2  502    0 -0.28413820963E+02 -0.26429318025E+01 -0.72601052848E+02  0.78149428564E+02  0.47000000000E+01 0. -1.
         -5    1    1    2    0  502  0.25629036457E+02  0.10290891621E+01  0.53592250239E+02  0.59599713253E+02  0.47000000000E+01 0.  1.
        -11    1    1    2    0    0 -0.42091050444E+02  0.10578761035E+02 -0.25078667952E+02  0.50124906970E+02  0.00000000000E+00 0. -1.
         11    1    1    2    0    0  0.44875834950E+02 -0.89649183949E+01 -0.34979495384E+01  0.45896034418E+02  0.00000000000E+00 0.  1.
<mgrwt>
<rscale>  0 0.12352143E+03</rscale>
<asrwt>0</asrwt>
<pdfrwt beam="2">  1        2 0.21642731E-01 0.13643127E+03</pdfrwt>
<pdfrwt beam="1">  1       -2 0.14321897E-01 0.13643127E+03</pdfrwt>
<totfact> 0.88452381E+03</totfact>
</mgrwt>
</event>
<event>
 6    1  0.1197282E-005  0.4158404E+03  0.7546771E-02  0.1038429E+00
         -1   -1    0    0    0  501 -0.00000000000E+00  0.00000000000E+00  0.41907923875E+02  0.41907923875E+02  0.00000000000E+00 0.  1.
          1   -1    0    0  501    0  0.00000000000E+00 -0.00000000000E+00 -0.10315664264E+04  0.10315664264E+04  0.00000000000E+00 0. -1.
          5    1    1    2  502    0 -0.80273419658E+02  0.12691225911E+03 -0.75398666385E+03  0.76880980917E+03  0.47000000000E+01 0. -1.
         -5    1    1    2    0  502 -0.13266761806E+02 -0.14089942016E+02 -0.17996852723E+02  0.26842319996E+02  0.47000000000E+01 0. -1.
        -11    1    1    2    0    0  0.40171376796E+02 -0.10145200563E+03 -0.18333488871E+03  0.21334931540E+03  0.00000000000E+00 0. -1.
         11    1    1    2    0    0  0.53368804669E+02 -0.11370311454E+02 -0.34340097276E+02  0.64472905746E+02  0.00000000000E+00 0.  1.
<mgrwt>
<rscale>  0 0.41584039E+03</rscale>
<asrwt>0</asrwt>
<pdfrwt beam="2">  1        1 0.15870253E+00 0.41584039E+03</pdfrwt>
<pdfrwt beam="1">  1       -1 0.64473727E-02 0.41584039E+03</pdfrwt>
<totfact> 0.18144005E+03</totfact>
</mgrwt>
</event>
<event>
 6    1  0.1190675E-005  0.1321295E+03  0.7546771E-02  0.1238753E+00
         -2   -1    0    0    0  501 -0.00000000000E+00  0.00000000000E+00  0.11789529848E+02  0.11789529848E+02  0.00000000000E+00 0.  1.
          2   -1    0    0  501    0  0.00000000000E+00 -0.00000000000E+00 -0.12473795779E+04  0.12473795779E+04  0.00000000000E+00 0. -1.
          5    1    1    2  502    0  0.31287490520E+02  0.36870652060E+02 -0.41538161359E+03  0.41821325536E+03  0.47000000000E+01 0. -1.
         -5    1    1    2    0  502 -0.73995134052E+02 -0.33766804848E+02 -0.48004747532E+03  0.48691184576E+03  0.47000000000E+01 0. -1.
        -11    1    1    2    0    0 -0.62077892572E+01 -0.37651418289E+02 -0.12372531721E+03  0.12947633014E+03  0.00000000000E+00 0.  1.
         11    1    1    2    0    0  0.48915432789E+02  0.34547571077E+02 -0.21643564192E+03  0.22456767650E+03  0.00000000000E+00 0. -1.
<mgrwt>
<rscale>  0 0.12267225E+03</rscale>
<asrwt>0</asrwt>
<pdfrwt beam="2">  1        2 0.19190459E+00 0.13212946E+03</pdfrwt>
<pdfrwt beam="1">  1       -2 0.18137734E-02 0.13212946E+03</pdfrwt>
<totfact> 0.16112874E+04</totfact>
</mgrwt>
</event>
<event>
 6    1  0.1190675E-005  0.1263800E+03  0.7546771E-02  0.1246355E+00
         -2   -1    0    0    0  501 -0.00000000000E+00  0.00000000000E+00  0.13157778562E+02  0.13157778562E+02  0.00000000000E+00 0.  1.
          2   -1    0    0  501    0  0.00000000000E+00 -0.00000000000E+00 -0.13219466183E+04  0.13219466183E+04  0.00000000000E+00 0. -1.
          5    1    1    2  502    0  0.52404301536E+02 -0.98988935161E+01 -0.62916712317E+03  0.63144085851E+03  0.47000000000E+01 0. -1.
         -5    1    1    2    0  502 -0.67612837084E+02 -0.39965002598E+00 -0.44426720172E+03  0.44940748990E+03  0.47000000000E+01 0. -1.
        -11    1    1    2    0    0 -0.15834351407E+02 -0.35795820286E+02 -0.75962495574E+02  0.85453894986E+02  0.00000000000E+00 0.  1.
         11    1    1    2    0    0  0.31042886956E+02  0.46094363828E+02 -0.15939201932E+03  0.16880215351E+03  0.00000000000E+00 0. -1.
<mgrwt>
<rscale>  0 0.11804626E+03</rscale>
<asrwt>0</asrwt>
<pdfrwt beam="2">  1        2 0.20337638E+00 0.12637999E+03</pdfrwt>
<pdfrwt beam="1">  1       -2 0.20242738E-02 0.12637999E+03</pdfrwt>
<totfact> 0.12494613E+04</totfact>
</mgrwt>
</event>
<event>
 6    1  0.1190675E-005  0.1481893E+03  0.7546771E-02  0.1211000E+00
          1   -1    0    0  501    0  0.00000000000E+00  0.00000000000E+00  0.17224843859E+04  0.17224843859E+04  0.00000000000E+00 0. -1.
         -1   -1    0    0    0  501 -0.00000000000E+00 -0.00000000000E+00 -0.17809254677E+02  0.17809254677E+02  0.00000000000E+00 0.  1.
          5    1    1    2  502    0 -0.80127410646E+02  0.66038936209E+02  0.87281951833E+03  0.87898665782E+03  0.47000000000E+01 0.  1.
         -5    1    1    2    0  502  0.39883205464E+02  0.26320665665E+01  0.57145498069E+03  0.57287038919E+03  0.47000000000E+01 0.  1.
        -11    1    1    2    0    0  0.14022314642E+02  0.15695429028E+02  0.12501805450E+03  0.12677730772E+03  0.00000000000E+00 0. -1.
         11    1    1    2    0    0  0.26221890541E+02 -0.84366431804E+02  0.13538257767E+03  0.16165928583E+03  0.00000000000E+00 0.  1.
<mgrwt>
<rscale>  0 0.14174489E+03</rscale>
<asrwt>0</asrwt>
<pdfrwt beam="1">  1        1 0.26499747E+00 0.14818926E+03</pdfrwt>
<pdfrwt beam="2">  1       -1 0.27398867E-02 0.14818926E+03</pdfrwt>
<totfact> 0.22039835E+03</totfact>
</mgrwt>
</event>
<event>
 6    1  0.1190675E-005  0.1500232E+03  0.7546771E-02  0.1209768E+00
         -1   -1    0    0    0  501 -0.00000000000E+00  0.00000000000E+00  0.90831076096E+02  0.90831076096E+02  0.00000000000E+00 0.  1.
          1   -1    0    0  501    0  0.00000000000E+00 -0.00000000000E+00 -0.25060312073E+03  0.25060312073E+03  0.00000000000E+00 0. -1.
          5    1    1    2  502    0  0.61196951362E+02 -0.87692311582E+02 -0.92725582077E+02  0.14161614293E+03  0.47000000000E+01 0. -1.
         -5    1    1    2    0  502 -0.38021653943E+02  0.80356507654E+01 -0.66401517581E+02  0.77080927530E+02  0.47000000000E+01 0. -1.
        -11    1    1    2    0    0 -0.39747229320E+02  0.68122539765E+02  0.31375944987E+02  0.84882109931E+02  0.00000000000E+00 0.  1.
         11    1    1    2    0    0  0.16571931901E+02  0.11534121052E+02 -0.32020889959E+02  0.37855016433E+02  0.00000000000E+00 0. -1.
<mgrwt>
<rscale>  0 0.14267944E+03</rscale>
<asrwt>0</asrwt>
<pdfrwt beam="2">  1        1 0.38554326E-01 0.15002325E+03</pdfrwt>
<pdfrwt beam="1">  1       -1 0.13974012E-01 0.15002325E+03</pdfrwt>
<totfact> 0.38361950E+03</totfact>
</mgrwt>
</event>
<event>
 6    1  0.1190675E-005  0.1302784E+03  0.7546771E-02  0.1242041E+00
         -1   -1    0    0    0  501 -0.00000000000E+00  0.00000000000E+00  0.49771460819E+02  0.49771460819E+02  0.00000000000E+00 0.  1.
          1   -1    0    0  501    0  0.00000000000E+00 -0.00000000000E+00 -0.48155368835E+03  0.48155368835E+03  0.00000000000E+00 0. -1.
          5    1    1    2  502    0  0.37154718319E+02 -0.32744233017E+02 -0.25756573793E+03  0.26232586080E+03  0.47000000000E+01 0.  1.
         -5    1    1    2    0  502 -0.69059204822E+02  0.14543941202E+02 -0.15626573718E+03  0.17152775464E+03  0.47000000000E+01 0.  1.
        -11    1    1    2    0    0 -0.19343407345E+01 -0.18090332215E+02 -0.39412983806E+02  0.43409504560E+02  0.00000000000E+00 0. -1.
         11    1    1    2    0    0  0.33838827238E+02  0.36290624030E+02  0.21462231385E+02  0.54062029164E+02  0.00000000000E+00 0.  1.
<mgrwt>
<rscale>  0 0.12064260E+03</rscale>
<asrwt>0</asrwt>
<pdfrwt beam="2">  1        1 0.74085183E-01 0.13027843E+03</pdfrwt>
<pdfrwt beam="1">  1       -1 0.76571478E-02 0.13027843E+03</pdfrwt>
<totfact> 0.42200788E+03</totfact>
</mgrwt>
</event>
<event>
 6    1  0.1190675E-005  0.1472599E+03  0.7546771E-02  0.1213396E+00
         -2   -1    0    0    0  501 -0.00000000000E+00  0.00000000000E+00  0.31199753024E+03  0.31199753024E+03  0.00000000000E+00 0. -1.
          2   -1    0    0  501    0  0.00000000000E+00 -0.00000000000E+00 -0.57399295279E+02  0.57399295279E+02  0.00000000000E+00 0.  1.
          5    1    1    2  502    0 -0.96517489653E+02  0.16182923875E+02  0.11537945038E+03  0.15136717083E+03  0.47000000000E+01 0.  1.
         -5    1    1    2    0  502  0.34984512493E+02  0.31469306188E+02  0.32874814309E+02  0.57594068811E+02  0.47000000000E+01 0.  1.
        -11    1    1    2    0    0  0.52773908208E+01  0.16515745681E+02 -0.68807756394E+01  0.18653840963E+02  0.00000000000E+00 0.  1.
         11    1    1    2    0    0  0.56255586339E+02 -0.64167975744E+02  0.11322474592E+03  0.14178174492E+03  0.00000000000E+00 0. -1.
<mgrwt>
<rscale>  0 0.13995024E+03</rscale>
<asrwt>0</asrwt>
<pdfrwt beam="2">  1        2 0.88306610E-02 0.14725988E+03</pdfrwt>
<pdfrwt beam="1">  1       -2 0.47999619E-01 0.14725988E+03</pdfrwt>
<totfact> 0.30114040E+03</totfact>
</mgrwt>
</event>
<event>
 6    1  0.1190675E-005  0.1313105E+03  0.7546771E-02  0.1238865E+00
          1   -1    0    0  501    0  0.00000000000E+00  0.00000000000E+00  0.29567613067E+03  0.29567613067E+03  0.00000000000E+00 0. -1.
         -1   -1    0    0    0  501 -0.00000000000E+00 -0.00000000000E+00 -0.45607247314E+02  0.45607247314E+02  0.00000000000E+00 0.  1.
          5    1    1    2  502    0  0.76786922422E+02 -0.33912257506E+02  0.78662284894E+02  0.11513521498E+03  0.47000000000E+01 0. -1.
         -5    1    1    2    0  502 -0.36838625689E+02  0.29161680400E+02  0.46472688595E+02  0.66251707386E+02  0.47000000000E+01 0. -1.
        -11    1    1    2    0    0 -0.25746103541E+01 -0.40754651208E+02  0.48226904036E+02  0.63193389578E+02  0.00000000000E+00 0. -1.
         11    1    1    2    0    0 -0.37373686379E+02  0.45505228314E+02  0.76707005828E+02  0.96703066034E+02  0.00000000000E+00 0.  1.
<mgrwt>
<rscale>  0 0.12260222E+03</rscale>
<asrwt>0</asrwt>
<pdfrwt beam="1">  1        1 0.45488634E-01 0.13131053E+03</pdfrwt>
<pdfrwt beam="2">  1       -1 0.70164998E-02 0.13131053E+03</pdfrwt>
<totfact> 0.88848118E+03</totfact>
</mgrwt>
</event>
<event>
 6    1  0.1190675E-005  0.2372706E+03  0.7546771E-02  0.1124062E+00
         -1   -1    0    0    0  501 -0.00000000000E+00  0.00000000000E+00  0.27482333797E+03  0.27482333797E+03  0.00000000000E+00 0.  1.
          1   -1    0    0  501    0  0.00000000000E+00 -0.00000000000E+00 -0.21107004773E+03  0.21107004773E+03  0.00000000000E+00 0. -1.
          5    1    1    2  502    0  0.20080326341E+03  0.35256963560E+02 -0.62308096100E+02  0.21323553390E+03  0.47000000000E+01 0. -1.
         -5    1    1    2    0  502 -0.44895074603E+01  0.10911991415E+02  0.23955925220E+02  0.27114637874E+02  0.47000000000E+01 0. -1.
        -11    1    1    2    0    0 -0.13234302219E+03  0.16285551761E+02  0.52530607336E+02  0.14331559380E+03  0.00000000000E+00 0. -1.
         11    1    1    2    0    0 -0.63970733766E+02 -0.62454506737E+02  0.49574853783E+02  0.10222762013E+03  0.00000000000E+00 0.  1.
<mgrwt>
<rscale>  0 0.23369983E+03</rscale>
<asrwt>0</asrwt>
<pdfrwt beam="2">  1        1 0.32472315E-01 0.23727055E+03</pdfrwt>
<pdfrwt beam="1">  1       -1 0.42280513E-01 0.23727055E+03</pdfrwt>
<totfact> 0.76642510E+02</totfact>
</mgrwt>
</event>
<event>
 6    1  0.1722161E-005  0.1810669E+03  0.7546771E-02  0.1172836E+00
         -1   -1    0    0    0  501 -0.00000000000E+00  0.00000000000E+00  0.10429341441E+04  0.10429341441E+04  0.00000000000E+00 0.  1.
          1   -1    0    0  501    0  0.00000000000E+00 -0.00000000000E+00 -0.33881268440E+02  0.33881268440E+02  0.00000000000E+00 0. -1.
          5    1    1    2  502    0 -0.13733625686E+02  0.10962544102E+03  0.23241386931E+03  0.25738035365E+03  0.47000000000E+01 0. -1.
         -5    1    1    2    0  502 -0.63556410611E+02 -0.38607340209E+01  0.67185012955E+02  0.92683539869E+02  0.47000000000E+01 0. -1.
        -11    1    1    2    0    0  0.47094113119E+02 -0.11335029811E+01  0.16946049959E+03  0.17588633045E+03  0.00000000000E+00 0. -1.
         11    1    1    2    0    0  0.30195923178E+02 -0.10463120402E+03  0.53999349376E+03  0.55086518853E+03  0.00000000000E+00 0.  1.
<mgrwt>
<rscale>  0 0.17489583E+03</rscale>
<asrwt>0</asrwt>
<pdfrwt beam="2">  1        1 0.52125036E-02 0.18106695E+03</pdfrwt>
<pdfrwt beam="1">  1       -1 0.16045138E+00 0.18106695E+03</pdfrwt>
<totfact> 0.49487852E+02</totfact>
</mgrwt>
</event>
<event>
 6    1  0.1190675E-005  0.1595542E+03  0.7546771E-02  0.1197083E+00
         -2   -1    0    0    0  501 -0.00000000000E+00  0.00000000000E+00  0.65859011769E+02  0.65859011769E+02  0.00000000000E+00 0.  1.
          2   -1    0    0  501    0  0.00000000000E+00 -0.00000000000E+00 -0.32784369119E+03  0.32784369119E+03  0.00000000000E+00 0. -1.
          5    1    1    2  502    0  0.25477322761E+01  0.28270612308E+02 -0.58668373914E+02  0.65343603801E+02  0.47000000000E+01 0. -1.
         -5    1    1    2    0  502  0.48172914302E+02 -0.11350256776E+03 -0.89875686937E+02  0.15265382950E+03  0.47000000000E+01 0. -1.
        -11    1    1    2    0    0 -0.11502526022E+02 -0.19130550346E+02 -0.14278746525E+02  0.26498465309E+02  0.00000000000E+00 0.  1.
         11    1    1    2    0    0 -0.39218120557E+02  0.10436250579E+03 -0.99161872050E+02  0.14920680435E+03  0.00000000000E+00 0. -1.
<mgrwt>
<rscale>  0 0.15279214E+03</rscale>
<asrwt>0</asrwt>
<pdfrwt beam="2">  1        2 0.50437491E-01 0.15955420E+03</pdfrwt>
<pdfrwt beam="1">  1       -2 0.10132156E-01 0.15955420E+03</pdfrwt>
<totfact> 0.62243570E+03</totfact>
</mgrwt>
</event>
<event>
 6    1  0.1190675E-005  0.2115361E+03  0.7546771E-02  0.1145099E+00
         -3   -1    0    0    0  501 -0.00000000000E+00  0.00000000000E+00  0.18220278626E+03  0.18220278626E+03  0.00000000000E+00 0.  1.
          3   -1    0    0  501    0  0.00000000000E+00 -0.00000000000E+00 -0.22038943317E+03  0.22038943317E+03  0.00000000000E+00 0. -1.
          5    1    1    2  502    0 -0.39244935293E+02 -0.15109124941E+02 -0.63812480102E+02  0.76567442294E+02  0.47000000000E+01 0. -1.
         -5    1    1    2    0  502 -0.11874254341E+03 -0.36238041220E+02  0.53392566487E+02  0.13522515817E+03  0.47000000000E+01 0.  1.
        -11    1    1    2    0    0  0.14273594833E+03  0.88148909752E+01 -0.14684885919E+02  0.14375986618E+03  0.00000000000E+00 0.  1.
         11    1    1    2    0    0  0.15251530368E+02  0.42532275187E+02 -0.13081847369E+02  0.47039752781E+02  0.00000000000E+00 0. -1.
<mgrwt>
<rscale>  0 0.20559887E+03</rscale>
<asrwt>0</asrwt>
<pdfrwt beam="2">  1        3 0.33906067E-01 0.21153612E+03</pdfrwt>
<pdfrwt beam="1">  1       -3 0.28031198E-01 0.21153612E+03</pdfrwt>
<totfact> 0.25515896E+02</totfact>
</mgrwt>
</event>
<event>
 6    1  0.1190675E-005  0.1308576E+03  0.7546771E-02  0.1240015E+00
          2   -1    0    0  501    0  0.00000000000E+00  0.00000000000E+00  0.10608407581E+03  0.10608407581E+03  0.00000000000E+00 0. -1.
         -2   -1    0    0    0  501 -0.00000000000E+00 -0.00000000000E+00 -0.12397545521E+03  0.12397545521E+03  0.00000000000E+00 0.  1.
          5    1    1    2  502    0 -0.47402796964E+02 -0.10225708845E+02 -0.56866510442E+02  0.74883110854E+02  0.47000000000E+01 0. -1.
         -5    1    1    2    0  502  0.22908132709E+02 -0.19728346475E+02  0.47290183208E+02  0.56324431881E+02  0.47000000000E+01 0. -1.
        -11    1    1    2    0    0  0.49584941641E+02 -0.76281894169E+01 -0.16735887622E+02  0.52886157412E+02  0.00000000000E+00 0.  1.
         11    1    1    2    0    0 -0.25090277387E+02  0.37582244737E+02  0.84208354561E+01  0.45965830881E+02  0.00000000000E+00 0. -1.
<mgrwt>
<rscale>  0 0.12188776E+03</rscale>
<asrwt>0</asrwt>
<pdfrwt beam="1">  1        2 0.16320627E-01 0.13085761E+03</pdfrwt>
<pdfrwt beam="2">  1       -2 0.19073147E-01 0.13085761E+03</pdfrwt>
<totfact> 0.75753420E+03</totfact>
</mgrwt>
</event>
<event>
 6    1  0.1190675E-005  0.1636265E+03  0.7546771E-02  0.1191369E+00
          1   -1    0    0  501    0  0.00000000000E+00  0.00000000000E+00  0.18222234932E+03  0.18222234932E+03  0.00000000000E+00 0. -1.
         -1   -1    0    0    0  501 -0.00000000000E+00 -0.00000000000E+00 -0.13356554656E+03  0.13356554656E+03  0.00000000000E+00 0.  1.
          5    1    1    2  502    0 -0.61062286701E+02  0.48603775767E+02  0.49327399863E+02  0.92445725987E+02  0.47000000000E+01 0.  1.
         -5    1    1    2    0  502 -0.39257896983E+02 -0.15717370433E+02 -0.57307181903E+02  0.71375214932E+02  0.47000000000E+01 0.  1.
        -11    1    1    2    0    0  0.21136319864E+02  0.30127992114E+02  0.17521251917E+01  0.36844400781E+02  0.00000000000E+00 0.  1.
         11    1    1    2    0    0  0.79183863820E+02 -0.63014397447E+02  0.54884459608E+02  0.11512255418E+03  0.00000000000E+00 0. -1.
<mgrwt>
<rscale>  0 0.15765556E+03</rscale>
<asrwt>0</asrwt>
<pdfrwt beam="1">  1        1 0.28034208E-01 0.16362648E+03</pdfrwt>
<pdfrwt beam="2">  1       -1 0.20548546E-01 0.16362648E+03</pdfrwt>
<totfact> 0.31054192E+03</totfact>
</mgrwt>
</event>
<event>
 6    1  0.1190675E-005  0.1466928E+03  0.7546771E-02  0.1214492E+00
         -2   -1    0    0    0  501 -0.00000000000E+00  0.00000000000E+00  0.52391439250E+02  0.52391439250E+02  0.00000000000E+00 0.  1.
          2   -1    0    0  501    0  0.00000000000E+00 -0.00000000000E+00 -0.44959707693E+03  0.44959707693E+03  0.00000000000E+00 0. -1.
          5    1    1    2  502    0 -0.83718708625E+01  0.25915082312E+02 -0.31064298804E+01  0.27810422859E+02  0.47000000000E+01 0. -1.
         -5    1    1    2    0  502  0.45786535894E+02  0.41105611842E+02 -0.33668421300E+03  0.34229289721E+03  0.47000000000E+01 0. -1.
        -11    1    1    2    0    0 -0.13496816371E+02 -0.84897752847E+01 -0.66159844159E+02  0.68054135185E+02  0.00000000000E+00 0. -1.
         11    1    1    2    0    0 -0.23917848661E+02 -0.58530918870E+02  0.87448493652E+01  0.63831060924E+02  0.00000000000E+00 0.  1.
<mgrwt>
<rscale>  0 0.13913884E+03</rscale>
<asrwt>0</asrwt>
<pdfrwt beam="2">  1        2 0.69168783E-01 0.14669283E+03</pdfrwt>
<pdfrwt beam="1">  1       -2 0.80602212E-02 0.14669283E+03</pdfrwt>
<totfact> 0.63123828E+03</totfact>
</mgrwt>
</event>
<event>
 6    1  0.1190675E-005  0.1363282E+03  0.7546771E-02  0.1228835E+00
         -2   -1    0    0    0  501 -0.00000000000E+00  0.00000000000E+00  0.25393437806E+02  0.25393437806E+02  0.00000000000E+00 0.  1.
          2   -1    0    0  501    0  0.00000000000E+00 -0.00000000000E+00 -0.62360714001E+03  0.62360714001E+03  0.00000000000E+00 0. -1.
          5    1    1    2  502    0  0.12850496003E+02 -0.73421060466E+02 -0.38488710728E+03  0.39206627338E+03  0.47000000000E+01 0. -1.
         -5    1    1    2    0  502  0.16124762873E+02  0.19893229178E+02 -0.14184238342E+02  0.29648459693E+02  0.47000000000E+01 0.  1.
        -11    1    1    2    0    0 -0.49787435738E+02  0.58420952254E+02 -0.18823717405E+03  0.20328558757E+03  0.00000000000E+00 0.  1.
         11    1    1    2    0    0  0.20812176863E+02 -0.48931209660E+01 -0.10905182532E+02  0.24000257178E+02  0.00000000000E+00 0. -1.
<mgrwt>
<rscale>  0 0.12907503E+03</rscale>
<asrwt>0</asrwt>
<pdfrwt beam="2">  1        2 0.95939557E-01 0.13632820E+03</pdfrwt>
<pdfrwt beam="1">  1       -2 0.39066828E-02 0.13632820E+03</pdfrwt>
<totfact> 0.13065985E+04</totfact>
</mgrwt>
</event>
<event>
 6    1  0.1190675E-005  0.1258412E+03  0.7546771E-02  0.1249224E+00
          1   -1    0    0  501    0  0.00000000000E+00  0.00000000000E+00  0.37850276210E+03  0.37850276210E+03  0.00000000000E+00 0. -1.
         -1   -1    0    0    0  501 -0.00000000000E+00 -0.00000000000E+00 -0.38787446983E+02  0.38787446983E+02  0.00000000000E+00 0.  1.
          5    1    1    2  502    0 -0.51231439032E+02 -0.12858811330E+02  0.23197757936E+03  0.23796154458E+03  0.47000000000E+01 0. -1.
         -5    1    1    2    0  502  0.49829562485E+02 -0.15909506641E+01  0.49721931728E+02  0.70568242973E+02  0.47000000000E+01 0. -1.
        -11    1    1    2    0    0  0.33686051538E+02  0.23176527269E+02 -0.10296101126E+01  0.40901853033E+02  0.00000000000E+00 0.  1.
         11    1    1    2    0    0 -0.32284174991E+02 -0.87267652758E+01  0.59045414138E+02  0.67858568492E+02  0.00000000000E+00 0. -1.
<mgrwt>
<rscale>  0 0.11636108E+03</rscale>
<asrwt>0</asrwt>
<pdfrwt beam="1">  1        1 0.58231192E-01 0.12584123E+03</pdfrwt>
<pdfrwt beam="2">  1       -1 0.59672998E-02 0.12584123E+03</pdfrwt>
<totfact> 0.82989796E+03</totfact>
</mgrwt>
</event>
<event>
 6    1  0.1190675E-005  0.1259230E+03  0.7546771E-02  0.1249442E+00
          1   -1    0    0  501    0  0.00000000000E+00  0.00000000000E+00  0.20169981212E+03  0.20169981212E+03  0.00000000000E+00 0. -1.
         -1   -1    0    0    0  501 -0.00000000000E+00 -0.00000000000E+00 -0.58582248139E+02  0.58582248139E+02  0.00000000000E+00 0.  1.
          5    1    1    2  502    0  0.46632294037E+02  0.18328738367E+02  0.16832990979E+01  0.50353122973E+02  0.47000000000E+01 0. -1.
         -5    1    1    2    0  502 -0.50244821852E+02 -0.33136430368E+02  0.78116320446E+02  0.98725957379E+02  0.47000000000E+01 0. -1.
        -11    1    1    2    0    0  0.44690606745E+02  0.21985647725E+01  0.47908294757E+02  0.65553708704E+02  0.00000000000E+00 0.  1.
         11    1    1    2    0    0 -0.41078078930E+02  0.12609127228E+02  0.15409649680E+02  0.45649271202E+02  0.00000000000E+00 0. -1.
<mgrwt>
<rscale>  0 0.11623438E+03</rscale>
<asrwt>0</asrwt>
<pdfrwt beam="1">  1        1 0.31030740E-01 0.12592296E+03</pdfrwt>
<pdfrwt beam="2">  1       -1 0.90126537E-02 0.12592296E+03</pdfrwt>
<totfact> 0.97433797E+03</totfact>
</mgrwt>
</event>
<event>
 6    1  0.1190675E-005  0.3157948E+03  0.7546771E-02  0.1082056E+00
         -3   -1    0    0    0  501 -0.00000000000E+00  0.00000000000E+00  0.13758122113E+03  0.13758122113E+03  0.00000000000E+00 0.  1.
          3   -1    0    0  501    0  0.00000000000E+00 -0.00000000000E+00 -0.79670241130E+03  0.79670241130E+03  0.00000000000E+00 0. -1.
          5    1    1    2  502    0  0.26250178841E+02  0.20353710876E+03 -0.22899847844E+03  0.30753669645E+03  0.47000000000E+01 0. -1.
         -5    1    1    2    0  502  0.66114761982E+01  0.60711113862E+02 -0.31999060597E+03  0.32579998293E+03  0.47000000000E+01 0.  1.
        -11    1    1    2    0    0 -0.55969339423E+02 -0.13914365164E+03 -0.38070859673E+02  0.15473497699E+03  0.00000000000E+00 0. -1.
         11    1    1    2    0    0  0.23107684384E+02 -0.12510457098E+03 -0.72061246081E+02  0.14621197607E+03  0.00000000000E+00 0.  1.
<mgrwt>
<rscale>  0 0.30645795E+03</rscale>
<asrwt>0</asrwt>
<pdfrwt beam="2">  1        3 0.12256960E+00 0.31579477E+03</pdfrwt>
<pdfrwt beam="1">  1       -3 0.21166342E-01 0.31579477E+03</pdfrwt>
<totfact> 0.28623400E+01</totfact>
</mgrwt>
</event>
<event>
 6    1  0.1190675E-005  0.1263422E+03  0.7546771E-02  0.1248774E+00
         -2   -1    0    0    0  501 -0.00000000000E+00  0.00000000000E+00  0.36865970758E+02  0.36865970758E+02  0.00000000000E+00 0. -1.
          2   -1    0    0  501    0  0.00000000000E+00 -0.00000000000E+00 -0.37783074886E+03  0.37783074886E+03  0.00000000000E+00 0.  1.
          5    1    1    2  502    0 -0.18082413095E+02 -0.51817311642E+02 -0.12719665065E+03  0.13861127438E+03  0.47000000000E+01 0.  1.
         -5    1    1    2    0  502  0.33153064198E+02  0.62677636096E+02 -0.14488843937E+03  0.16137645923E+03  0.47000000000E+01 0.  1.
        -11    1    1    2    0    0  0.13812946002E+02 -0.40266011707E+02 -0.11565559778E+02  0.44112485183E+02  0.00000000000E+00 0. -1.
         11    1    1    2    0    0 -0.28883597105E+02  0.29405687253E+02 -0.57314128307E+02  0.70596500821E+02  0.00000000000E+00 0.  1.
<mgrwt>
<rscale>  0 0.11662318E+03</rscale>
<asrwt>0</asrwt>
<pdfrwt beam="2">  1        2 0.58127806E-01 0.12634217E+03</pdfrwt>
<pdfrwt beam="1">  1       -2 0.56716879E-02 0.12634217E+03</pdfrwt>
<totfact> 0.12879200E+04</totfact>
</mgrwt>
</event>
<event>
 6    1  0.1190675E-005  0.1260565E+03  0.7546771E-02  0.1246671E+00
          2   -1    0    0  501    0  0.00000000000E+00  0.00000000000E+00  0.18844735768E+03  0.18844735768E+03  0.00000000000E+00 0. -1.
         -2   -1    0    0    0  501 -0.00000000000E+00 -0.00000000000E+00 -0.65964824268E+02  0.65964824268E+02  0.00000000000E+00 0.  1.
          5    1    1    2  502    0 -0.61230634475E+02  0.28999250187E+02  0.67659438122E+02  0.95864678983E+02  0.47000000000E+01 0.  1.
         -5    1    1    2    0  502  0.45790973387E+02 -0.23217703538E+02  0.10985834598E+02  0.52712935444E+02  0.47000000000E+01 0.  1.
        -11    1    1    2    0    0 -0.21321998525E+02 -0.31909877797E+02 -0.57481544839E+01  0.38806045948E+02  0.00000000000E+00 0.  1.
         11    1    1    2    0    0  0.36761659613E+02  0.26128331149E+02  0.49585415178E+02  0.67028521575E+02  0.00000000000E+00 0. -1.
<mgrwt>
<rscale>  0 0.11785904E+03</rscale>
<asrwt>0</asrwt>
<pdfrwt beam="1">  1        2 0.28991901E-01 0.12605645E+03</pdfrwt>
<pdfrwt beam="2">  1       -2 0.10148435E-01 0.12605645E+03</pdfrwt>
<totfact> 0.11039535E+04</totfact>
</mgrwt>
</event>
<event>
 6    1  0.1190675E-005  0.1589716E+03  0.7546771E-02  0.1202911E+00
          1   -1    0    0  501    0  0.00000000000E+00  0.00000000000E+00  0.14056789136E+04  0.14056789136E+04  0.00000000000E+00 0. -1.
         -1   -1    0    0    0  501 -0.00000000000E+00 -0.00000000000E+00 -0.13908576104E+02  0.13908576104E+02  0.00000000000E+00 0.  1.
          5    1    1    2  502    0  0.11058636208E+03  0.48583277906E+01  0.68664563851E+03  0.69552661324E+03  0.47000000000E+01 0.  1.
         -5    1    1    2    0  502 -0.22357218484E+02  0.38311637144E+02  0.17063099871E+03  0.17636511696E+03  0.47000000000E+01 0.  1.
        -11    1    1    2    0    0 -0.52201043567E+02 -0.52543783642E+02  0.43896195502E+03  0.44516670597E+03  0.00000000000E+00 0. -1.
         11    1    1    2    0    0 -0.36028100034E+02  0.93738187071E+01  0.95531745267E+02  0.10252905355E+03  0.00000000000E+00 0.  1.
<mgrwt>
<rscale>  0 0.14803271E+03</rscale>
<asrwt>0</asrwt>
<pdfrwt beam="1">  1        1 0.21625818E+00 0.15897156E+03</pdfrwt>
<pdfrwt beam="2">  1       -1 0.21397821E-02 0.15897156E+03</pdfrwt>
<totfact> 0.50696347E+03</totfact>
</mgrwt>
</event>
<event>
 6    1  0.1190675E-005  0.1667785E+03  0.7546771E-02  0.1188519E+00
         -2   -1    0    0    0  501 -0.00000000000E+00  0.00000000000E+00  0.23669473909E+02  0.23669473909E+02  0.00000000000E+00 0.  1.
          2   -1    0    0  501    0  0.00000000000E+00 -0.00000000000E+00 -0.10408270775E+04  0.10408270775E+04  0.00000000000E+00 0. -1.
          5    1    1    2  502    0  0.19192863320E+02 -0.40488284300E+02 -0.12162117316E+03  0.12969759800E+03  0.47000000000E+01 0. -1.
         -5    1    1    2    0  502  0.81987448561E+02  0.84711157616E+02 -0.52383593973E+03  0.53695819549E+03  0.47000000000E+01 0. -1.
        -11    1    1    2    0    0 -0.35656303622E+02  0.16066961343E+02 -0.20651426440E+03  0.21018482494E+03  0.00000000000E+00 0.  1.
         11    1    1    2    0    0 -0.65524008259E+02 -0.60289834659E+02 -0.16518622631E+03  0.18765593298E+03  0.00000000000E+00 0. -1.
<mgrwt>
<rscale>  0 0.16015767E+03</rscale>
<asrwt>0</asrwt>
<pdfrwt beam="2">  1        2 0.16012726E+00 0.16677848E+03</pdfrwt>
<pdfrwt beam="1">  1       -2 0.36414572E-02 0.16677848E+03</pdfrwt>
<totfact> 0.76851101E+03</totfact>
</mgrwt>
</event>
<event>
 6    1  0.1190675E-005  0.1251979E+03  0.7546771E-02  0.1250305E+00
         -1   -1    0    0    0  501 -0.00000000000E+00  0.00000000000E+00  0.63924224493E+02  0.63924224493E+02  0.00000000000E+00 0.  1.
          1   -1    0    0  501    0  0.00000000000E+00 -0.00000000000E+00 -0.18421244658E+03  0.18421244658E+03  0.00000000000E+00 0. -1.
          5    1    1    2  502    0  0.43870716110E+02  0.27571419501E+02 -0.86218669058E+02  0.10070040615E+03  0.47000000000E+01 0. -1.
         -5    1    1    2    0  502 -0.36864128074E+02 -0.26016773516E+02  0.92039437059E+01  0.46288648960E+02  0.47000000000E+01 0. -1.
        -11    1    1    2    0    0  0.33859694100E+02 -0.52477346025E+01  0.82875743043E+01  0.35251971447E+02  0.00000000000E+00 0.  1.
         11    1    1    2    0    0 -0.40866282136E+02  0.36930886168E+01 -0.51561071043E+02  0.65895644516E+02  0.00000000000E+00 0. -1.
<mgrwt>
<rscale>  0 0.11573432E+03</rscale>
<asrwt>0</asrwt>
<pdfrwt beam="2">  1        1 0.28340377E-01 0.12519790E+03</pdfrwt>
<pdfrwt beam="1">  1       -1 0.98344960E-02 0.12519790E+03</pdfrwt>
<totfact> 0.95469711E+03</totfact>
</mgrwt>
</event>
<event>
 6    1  0.1190675E-005  0.1323238E+03  0.7546771E-02  0.1237133E+00
          1   -1    0    0  501    0  0.00000000000E+00  0.00000000000E+00  0.84358901920E+03  0.84358901920E+03  0.00000000000E+00 0. -1.
         -1   -1    0    0    0  501 -0.00000000000E+00 -0.00000000000E+00 -0.16764862701E+02  0.16764862701E+02  0.00000000000E+00 0.  1.
          5    1    1    2  502    0 -0.15890962643E+01 -0.84277819359E+02  0.27623457231E+03  0.28884754630E+03  0.47000000000E+01 0.  1.
         -5    1    1    2    0  502 -0.14835508071E+01  0.40960934471E+02  0.27314521230E+03  0.27624336386E+03  0.47000000000E+01 0.  1.
        -11    1    1    2    0    0 -0.32106400087E+02  0.46962700822E+02  0.10694925808E+03  0.12113818555E+03  0.00000000000E+00 0. -1.
         11    1    1    2    0    0  0.35179047158E+02 -0.36458159351E+01  0.17049511381E+03  0.17412478619E+03  0.00000000000E+00 0.  1.
<mgrwt>
<rscale>  0 0.12368849E+03</rscale>
<asrwt>0</asrwt>
<pdfrwt beam="1">  1        1 0.12978289E+00 0.13232380E+03</pdfrwt>
<pdfrwt beam="2">  1       -1 0.25792103E-02 0.13232380E+03</pdfrwt>
<totfact> 0.96041067E+03</totfact>
</mgrwt>
</event>
<event>
 6    1  0.1190675E-005  0.1464000E+03  0.7546771E-02  0.1215252E+00
          1   -1    0    0  501    0  0.00000000000E+00  0.00000000000E+00  0.55033078397E+03  0.55033078397E+03  0.00000000000E+00 0. -1.
         -1   -1    0    0    0  501 -0.00000000000E+00 -0.00000000000E+00 -0.31792998665E+02  0.31792998665E+02  0.00000000000E+00 0.  1.
          5    1    1    2  502    0  0.17165783338E+02  0.94061851750E+02  0.19801259500E+03  0.21993947770E+03  0.47000000000E+01 0. -1.
         -5    1    1    2    0  502 -0.44850674024E+02 -0.23052113298E+02  0.10913334540E+03  0.12031275895E+03  0.47000000000E+01 0. -1.
        -11    1    1    2    0    0  0.58481843757E+02 -0.49394659161E+02  0.16679864539E+03  0.18352587421E+03  0.00000000000E+00 0. -1.
         11    1    1    2    0    0 -0.30796953071E+02 -0.21615079291E+02  0.44593199523E+02  0.58345671775E+02  0.00000000000E+00 0.  1.
<mgrwt>
<rscale>  0 0.13858012E+03</rscale>
<asrwt>0</asrwt>
<pdfrwt beam="1">  1        1 0.84666268E-01 0.14639999E+03</pdfrwt>
<pdfrwt beam="2">  1       -1 0.48912309E-02 0.14639999E+03</pdfrwt>
<totfact> 0.69541445E+03</totfact>
</mgrwt>
</event>
<event>
 6    1  0.1190675E-005  0.1880778E+03  0.7546771E-02  0.1171296E+00
          4   -1    0    0  501    0  0.00000000000E+00  0.00000000000E+00  0.58321276518E+03  0.58321276518E+03  0.00000000000E+00 0. -1.
         -4   -1    0    0    0  501 -0.00000000000E+00 -0.00000000000E+00 -0.47745793069E+02  0.47745793069E+02  0.00000000000E+00 0.  1.
          5    1    1    2  502    0  0.15392189322E+03 -0.13132054238E+02  0.28359906998E+03  0.32297820755E+03  0.47000000000E+01 0. -1.
         -5    1    1    2    0  502 -0.13786884325E+02  0.23271796342E+02  0.19289662105E+02  0.33553475953E+02  0.47000000000E+01 0. -1.
        -11    1    1    2    0    0 -0.83143022435E+02 -0.87090690799E+01  0.10154911119E+03  0.13153262731E+03  0.00000000000E+00 0.  1.
         11    1    1    2    0    0 -0.56991986458E+02 -0.14306730243E+01  0.13102912884E+03  0.14289424743E+03  0.00000000000E+00 0. -1.
<mgrwt>
<rscale>  0 0.17643707E+03</rscale>
<asrwt>0</asrwt>
<pdfrwt beam="1">  1        4 0.89725036E-01 0.18807780E+03</pdfrwt>
<pdfrwt beam="2">  1       -4 0.73455070E-02 0.18807780E+03</pdfrwt>
<totfact> 0.24622603E+02</totfact>
</mgrwt>
</event>
<event>
 6    1  0.1190675E-005  0.1378123E+03  0.7546771E-02  0.1227854E+00
         -1   -1    0    0    0  501 -0.00000000000E+00  0.00000000000E+00  0.18211321555E+03  0.18211321555E+03  0.00000000000E+00 0.  1.
          1   -1    0    0  501    0  0.00000000000E+00 -0.00000000000E+00 -0.13485990179E+03  0.13485990179E+03  0.00000000000E+00 0. -1.
          5    1    1    2  502    0 -0.71911393166E+02 -0.48712165519E+02 -0.86243299454E+02  0.12249130678E+03  0.47000000000E+01 0. -1.
         -5    1    1    2    0  502  0.21654337993E+02  0.20410936836E+02  0.13873370568E+02  0.33167410320E+02  0.47000000000E+01 0.  1.
        -11    1    1    2    0    0  0.25726032145E+02  0.37031437347E+02  0.12657296932E+03  0.13436470014E+03  0.00000000000E+00 0.  1.
         11    1    1    2    0    0  0.24531023028E+02 -0.87302086640E+01 -0.69497266731E+01  0.26949700090E+02  0.00000000000E+00 0. -1.
<mgrwt>
<rscale>  0 0.12973218E+03</rscale>
<asrwt>0</asrwt>
<pdfrwt beam="2">  1        1 0.20747677E-01 0.13781230E+03</pdfrwt>
<pdfrwt beam="1">  1       -1 0.28017418E-01 0.13781230E+03</pdfrwt>
<totfact> 0.27087071E+03</totfact>
</mgrwt>
</event>
<event>
 6    1  0.1190675E-005  0.3377998E+03  0.7546771E-02  0.1116004E+00
          2   -1    0    0  501    0  0.00000000000E+00  0.00000000000E+00  0.24711293680E+03  0.24711293680E+03  0.00000000000E+00 0. -1.
         -2   -1    0    0    0  501 -0.00000000000E+00 -0.00000000000E+00 -0.21624000816E+03  0.21624000816E+03  0.00000000000E+00 0.  1.
          5    1    1    2  502    0  0.17865140154E+02 -0.10314976784E+03  0.17750395422E+03  0.20612807087E+03  0.47000000000E+01 0. -1.
         -5    1    1    2    0  502 -0.34291330968E+02  0.11132143695E+03 -0.84804196627E+02  0.14416032558E+03  0.47000000000E+01 0.  1.
        -11    1    1    2    0    0 -0.31499538231E+02  0.52942024399E+01  0.21356823623E+01  0.32012663548E+02  0.00000000000E+00 0.  1.
         11    1    1    2    0    0  0.47925729045E+02 -0.13465871556E+02 -0.63962511325E+02  0.81051884964E+02  0.00000000000E+00 0. -1.
<mgrwt>
<rscale>  0 0.24577592E+03</rscale>
<asrwt>0</asrwt>
<pdfrwt beam="1">  1        2 0.38017375E-01 0.33779982E+03</pdfrwt>
<pdfrwt beam="2">  1       -2 0.33267694E-01 0.33779982E+03</pdfrwt>
<totfact> 0.11451664E+03</totfact>
</mgrwt>
</event>
<event>
 6    1  0.1190675E-005  0.1165805E+03  0.7546771E-02  0.1260500E+00
         -3   -1    0    0    0  501 -0.00000000000E+00  0.00000000000E+00  0.12030723628E+03  0.12030723628E+03  0.00000000000E+00 0.  1.
          3   -1    0    0  501    0  0.00000000000E+00 -0.00000000000E+00 -0.10770359557E+03  0.10770359557E+03  0.00000000000E+00 0. -1.
          5    1    1    2  502    0 -0.43545335294E+02 -0.48454041764E+02 -0.53665507572E+01  0.65535335936E+02  0.47000000000E+01 0. -1.
         -5    1    1    2    0  502  0.33936339350E+02  0.31974394974E+02 -0.32542510152E+02  0.57053852012E+02  0.47000000000E+01 0.  1.
        -11    1    1    2    0    0 -0.12605814898E+02  0.47191142420E+02  0.46269162029E+02  0.67281095762E+02  0.00000000000E+00 0.  1.
         11    1    1    2    0    0  0.22214810842E+02 -0.30711495629E+02  0.42435395944E+01  0.38140548145E+02  0.00000000000E+00 0. -1.
<mgrwt>
<rscale>  0 0.11003796E+03</rscale>
<asrwt>0</asrwt>
<pdfrwt beam="2">  1        3 0.16569784E-01 0.11658050E+03</pdfrwt>
<pdfrwt beam="1">  1       -3 0.18508806E-01 0.11658050E+03</pdfrwt>
<totfact> 0.17954796E+03</totfact>
</mgrwt>
</event>
<event>
 6    1  0.1190675E-005  0.5480556E+03  0.7546771E-02  0.1001945E+00
         -2   -1    0    0    0  501 -0.00000000000E+00  0.00000000000E+00  0.34038417409E+02  0.34038417409E+02  0.00000000000E+00 0.  1.
          2   -1    0    0  501    0  0.00000000000E+00 -0.00000000000E+00 -0.22060730598E+04  0.22060730598E+04  0.00000000000E+00 0. -1.
          5    1    1    2  502    0  0.64262874672E+02  0.28352363843E+01 -0.33782787911E+03  0.34392952989E+03  0.47000000000E+01 0.  1.
         -5    1    1    2    0  502  0.57092836568E+02  0.16222431965E+03 -0.13280065868E+04  0.13391041432E+04  0.47000000000E+01 0.  1.
        -11    1    1    2    0    0 -0.58288329830E+02 -0.69932904920E+02 -0.10038693828E+03  0.13552002790E+03  0.00000000000E+00 0. -1.
         11    1    1    2    0    0 -0.63067381410E+02 -0.95126651116E+02 -0.40581323817E+03  0.42155777614E+03  0.00000000000E+00 0.  1.
<mgrwt>
<rscale>  0 0.54805560E+03</rscale>
<asrwt>0</asrwt>
<pdfrwt beam="2">  1        2 0.33939588E+00 0.54805560E+03</pdfrwt>
<pdfrwt beam="1">  1       -2 0.52366793E-02 0.54805560E+03</pdfrwt>
<totfact> 0.10266484E+03</totfact>
</mgrwt>
</event>
<event>
 6    1  0.1190675E-005  0.1284796E+03  0.7546771E-02  0.1242064E+00
         -1   -1    0    0    0  501 -0.00000000000E+00  0.00000000000E+00  0.23148844705E+02  0.23148844705E+02  0.00000000000E+00 0.  1.
          1   -1    0    0  501    0  0.00000000000E+00 -0.00000000000E+00 -0.56627207761E+03  0.56627207761E+03  0.00000000000E+00 0. -1.
          5    1    1    2  502    0 -0.49981588262E+01 -0.50058763048E+02 -0.37802368594E+02  0.63102855885E+02  0.47000000000E+01 0. -1.
         -5    1    1    2    0  502 -0.17035000774E+02  0.30238676145E+02 -0.24532065971E+03  0.24780816142E+03  0.47000000000E+01 0. -1.
        -11    1    1    2    0    0  0.52551247127E+02  0.10406297400E+02 -0.83953243576E+02  0.99589516050E+02  0.00000000000E+00 0.  1.
         11    1    1    2    0    0 -0.30518087527E+02  0.94137895029E+01 -0.17604696103E+03  0.17892038896E+03  0.00000000000E+00 0. -1.
<mgrwt>
<rscale>  0 0.12062847E+03</rscale>
<asrwt>0</asrwt>
<pdfrwt beam="2">  1        1 0.87118787E-01 0.12847962E+03</pdfrwt>
<pdfrwt beam="1">  1       -1 0.35613605E-02 0.12847962E+03</pdfrwt>
<totfact> 0.10585420E+04</totfact>
</mgrwt>
</event>
<event>
 6    1  0.1190675E-005  0.1813820E+03  0.7546771E-02  0.1172218E+00
         -2   -1    0    0    0  501 -0.00000000000E+00  0.00000000000E+00  0.33496671525E+02  0.33496671525E+02  0.00000000000E+00 0.  1.
          2   -1    0    0  501    0  0.00000000000E+00 -0.00000000000E+00 -0.93714775130E+03  0.93714775130E+03  0.00000000000E+00 0. -1.
          5    1    1    2  502    0  0.73219741303E+01  0.47275124236E+02 -0.31643427523E+03  0.32006450790E+03  0.47000000000E+01 0.  1.
         -5    1    1    2    0  502 -0.11446390754E+03  0.28858069788E+02 -0.29734427704E+03  0.31995387700E+03  0.47000000000E+01 0.  1.
        -11    1    1    2    0    0  0.10615324914E+03 -0.27125578181E+02 -0.18862196541E+03  0.21813425942E+03  0.00000000000E+00 0. -1.
         11    1    1    2    0    0  0.98868427306E+00 -0.49007615844E+02 -0.10125056209E+03  0.11249177851E+03  0.00000000000E+00 0.  1.
<mgrwt>
<rscale>  0 0.17551281E+03</rscale>
<asrwt>0</asrwt>
<pdfrwt beam="2">  1        2 0.14417657E+00 0.18138198E+03</pdfrwt>
<pdfrwt beam="1">  1       -2 0.51533345E-02 0.18138198E+03</pdfrwt>
<totfact> 0.52932253E+03</totfact>
</mgrwt>
</event>
<event>
 6    1  0.1190675E-005  0.2816907E+03  0.7546771E-02  0.1103573E+00
          2   -1    0    0  501    0  0.00000000000E+00  0.00000000000E+00  0.18789103868E+04  0.18789103868E+04  0.00000000000E+00 0. -1.
         -2   -1    0    0    0  501 -0.00000000000E+00 -0.00000000000E+00 -0.34430169683E+02  0.34430169683E+02  0.00000000000E+00 0.  1.
          5    1    1    2  502    0  0.76439412343E+02  0.64507457482E+02  0.81619771520E+03  0.82231684655E+03  0.47000000000E+01 0. -1.
         -5    1    1    2    0  502  0.58413888954E+02  0.74917421359E+02  0.10827334554E+03  0.14411804120E+03  0.47000000000E+01 0.  1.
        -11    1    1    2    0    0 -0.90004737466E+02 -0.17906196163E+02  0.45678957257E+03  0.46591651423E+03  0.00000000000E+00 0.  1.
         11    1    1    2    0    0 -0.44848563830E+02 -0.12151868268E+03  0.46321958385E+03  0.48098915453E+03  0.00000000000E+00 0. -1.
<mgrwt>
<rscale>  0 0.26603081E+03</rscale>
<asrwt>0</asrwt>
<pdfrwt beam="1">  1        2 0.28906306E+00 0.28169070E+03</pdfrwt>
<pdfrwt beam="2">  1       -2 0.52969507E-02 0.28169070E+03</pdfrwt>
<totfact> 0.15406965E+03</totfact>
</mgrwt>
</event>
<event>
 6    1  0.1190675E-005  0.2890951E+03  0.7546771E-02  0.1091754E+00
          1   -1    0    0  501    0  0.00000000000E+00  0.00000000000E+00  0.79910782972E+03  0.79910782972E+03  0.00000000000E+00 0. -1.
         -1   -1    0    0    0  501 -0.00000000000E+00 -0.00000000000E+00 -0.12227000496E+03  0.12227000496E+03  0.00000000000E+00 0.  1.
          5    1    1    2  502    0 -0.61290553711E+02  0.25724506264E+03  0.46684259264E+03  0.53655908391E+03  0.47000000000E+01 0. -1.
         -5    1    1    2    0  502 -0.22184974151E+02 -0.37787552444E+01  0.62304247357E+02  0.66410551180E+02  0.47000000000E+01 0.  1.
        -11    1    1    2    0    0  0.32081586733E+02 -0.17155420207E+03  0.51393211796E+02  0.18193772196E+03  0.00000000000E+00 0.  1.
         11    1    1    2    0    0  0.51393941129E+02 -0.81912105328E+02  0.96297772973E+02  0.13647047763E+03  0.00000000000E+00 0. -1.
<mgrwt>
<rscale>  0 0.28732609E+03</rscale>
<asrwt>0</asrwt>
<pdfrwt beam="1">  1        1 0.12293966E+00 0.28909514E+03</pdfrwt>
<pdfrwt beam="2">  1       -1 0.18810770E-01 0.28909514E+03</pdfrwt>
<totfact> 0.51650820E+02</totfact>
</mgrwt>
</event>
<event>
 6    1  0.1190675E-005  0.2157679E+03  0.7546771E-02  0.1140572E+00
          1   -1    0    0  501    0  0.00000000000E+00  0.00000000000E+00  0.71017239214E+03  0.71017239214E+03  0.00000000000E+00 0. -1.
         -1   -1    0    0    0  501 -0.00000000000E+00 -0.00000000000E+00 -0.60356496553E+02  0.60356496553E+02  0.00000000000E+00 0.  1.
          5    1    1    2  502    0 -0.14515875704E+03  0.36462753282E+02  0.16762177460E+03  0.22476598150E+03  0.47000000000E+01 0.  1.
         -5    1    1    2    0  502 -0.12611096495E+02  0.41256981280E+02  0.17367892781E+03  0.17901854157E+03  0.47000000000E+01 0.  1.
        -11    1    1    2    0    0  0.49439109534E+02  0.14915629130E+01  0.15569617398E+03  0.16336385433E+03  0.00000000000E+00 0.  1.
         11    1    1    2    0    0  0.10833074400E+03 -0.79211297475E+02  0.15281901920E+03  0.20338051129E+03  0.00000000000E+00 0. -1.
<mgrwt>
<rscale>  0 0.21125962E+03</rscale>
<asrwt>0</asrwt>
<pdfrwt beam="1">  1        1 0.10925729E+00 0.21576787E+03</pdfrwt>
<pdfrwt beam="2">  1       -1 0.92856154E-02 0.21576787E+03</pdfrwt>
<totfact> 0.18801417E+03</totfact>
</mgrwt>
</event>
<event>
 6    1  0.1190675E-005  0.1577494E+03  0.7546771E-02  0.1199196E+00
          2   -1    0    0  501    0  0.00000000000E+00  0.00000000000E+00  0.19389861855E+04  0.19389861855E+04  0.00000000000E+00 0.  1.
         -2   -1    0    0    0  501 -0.00000000000E+00 -0.00000000000E+00 -0.23407331692E+02  0.23407331692E+02  0.00000000000E+00 0. -1.
          5    1    1    2  502    0 -0.54165119893E+02  0.58267692453E+02  0.10992780275E+04  0.11021629898E+04  0.47000000000E+01 0.  1.
         -5    1    1    2    0  502 -0.42040560966E+02 -0.59882350719E+02  0.61392761894E+03  0.61828999345E+03  0.47000000000E+01 0.  1.
        -11    1    1    2    0    0  0.72018689850E+02 -0.39200284257E+02  0.15224031467E+03  0.17291751613E+03  0.00000000000E+00 0. -1.
         11    1    1    2    0    0  0.24186991009E+02  0.40814942523E+02  0.50132892683E+02  0.69023017871E+02  0.00000000000E+00 0.  1.
<mgrwt>
<rscale>  0 0.15104423E+03</rscale>
<asrwt>0</asrwt>
<pdfrwt beam="1">  1        2 0.29830544E+00 0.15774942E+03</pdfrwt>
<pdfrwt beam="2">  1       -2 0.36011295E-02 0.15774942E+03</pdfrwt>
<totfact> 0.25846467E+03</totfact>
</mgrwt>
</event>
<event>
 6    1  0.1190675E-005  0.1253872E+03  0.7546771E-02  0.1249809E+00
          2   -1    0    0  501    0  0.00000000000E+00  0.00000000000E+00  0.30507997850E+03  0.30507997850E+03  0.00000000000E+00 0. -1.
         -2   -1    0    0    0  501 -0.00000000000E+00 -0.00000000000E+00 -0.39023804805E+02  0.39023804805E+02  0.00000000000E+00 0.  1.
          5    1    1    2  502    0 -0.46450759801E+02 -0.35023698239E+02  0.10055678166E+03  0.11626731639E+03  0.47000000000E+01 0. -1.
         -5    1    1    2    0  502  0.43113521121E+02  0.47974174117E+02  0.68393385728E+02  0.94127797685E+02  0.47000000000E+01 0.  1.
        -11    1    1    2    0    0 -0.32246920792E+02 -0.29978915525E+02  0.78695733226E+02  0.90175482836E+02  0.00000000000E+00 0. -1.
         11    1    1    2    0    0  0.35584159472E+02  0.17028439646E+02  0.18410273083E+02  0.43533186388E+02  0.00000000000E+00 0.  1.
<mgrwt>
<rscale>  0 0.11602107E+03</rscale>
<asrwt>0</asrwt>
<pdfrwt beam="1">  1        2 0.46935380E-01 0.12538718E+03</pdfrwt>
<pdfrwt beam="2">  1       -2 0.60036625E-02 0.12538718E+03</pdfrwt>
<totfact> 0.14813097E+04</totfact>
</mgrwt>
</event>
<event>
 6    1  0.1190675E-005  0.1730663E+03  0.7546771E-02  0.1180783E+00
          2   -1    0    0  501    0  0.00000000000E+00  0.00000000000E+00  0.19186792510E+04  0.19186792510E+04  0.00000000000E+00 0. -1.
         -2   -1    0    0    0  501 -0.00000000000E+00 -0.00000000000E+00 -0.17801366544E+02  0.17801366544E+02  0.00000000000E+00 0.  1.
          5    1    1    2  502    0 -0.10021915047E+03 -0.28579224839E+01  0.75776775377E+03  0.76438609648E+03  0.47000000000E+01 0.  1.
         -5    1    1    2    0  502  0.17645396214E+01  0.70937345940E+02  0.70845601906E+03  0.71201632116E+03  0.47000000000E+01 0.  1.
        -11    1    1    2    0    0  0.11231040911E+03 -0.46432871005E+02  0.39065891574E+03  0.40912593165E+03  0.00000000000E+00 0.  1.
         11    1    1    2    0    0 -0.13855798266E+02 -0.21646552451E+02  0.43995195853E+02  0.50952268220E+02  0.00000000000E+00 0. -1.
<mgrwt>
<rscale>  0 0.16721557E+03</rscale>
<asrwt>0</asrwt>
<pdfrwt beam="1">  1        2 0.29518126E+00 0.17306631E+03</pdfrwt>
<pdfrwt beam="2">  1       -2 0.27386733E-02 0.17306631E+03</pdfrwt>
<totfact> 0.39702538E+03</totfact>
</mgrwt>
</event>
<event>
 6    1  0.1190675E-005  0.2287898E+03  0.7546771E-02  0.1127494E+00
          1   -1    0    0  501    0  0.00000000000E+00  0.00000000000E+00  0.18341911996E+03  0.18341911996E+03  0.00000000000E+00 0. -1.
         -1   -1    0    0    0  501 -0.00000000000E+00 -0.00000000000E+00 -0.71345835144E+02  0.71345835144E+02  0.00000000000E+00 0.  1.
          5    1    1    2  502    0 -0.53992292063E+01 -0.33934712629E+01 -0.30973586181E+02  0.31970617200E+02  0.47000000000E+01 0.  1.
         -5    1    1    2    0  502  0.68358341122E+01  0.11116352852E+02  0.12221214571E+03  0.12299674990E+03  0.47000000000E+01 0.  1.
        -11    1    1    2    0    0 -0.45106160688E+02 -0.13158070692E+02 -0.73233475860E+01  0.47553464397E+02  0.00000000000E+00 0. -1.
         11    1    1    2    0    0  0.43669555782E+02  0.54351891026E+01  0.28158072875E+02  0.52244123601E+02  0.00000000000E+00 0.  1.
<mgrwt>
<rscale>  0 0.22878978E+03</rscale>
<asrwt>0</asrwt>
<pdfrwt beam="1">  1        1 0.28218326E-01 0.22878978E+03</pdfrwt>
<pdfrwt beam="2">  1       -1 0.10976282E-01 0.22878978E+03</pdfrwt>
<totfact> 0.84581655E+03</totfact>
</mgrwt>
</event>
<event>
 6    1  0.1190675E-005  0.1756366E+03  0.7546771E-02  0.1178180E+00
          1   -1    0    0  501    0  0.00000000000E+00  0.00000000000E+00  0.39742795113E+03  0.39742795113E+03  0.00000000000E+00 0. -1.
         -1   -1    0    0    0  501 -0.00000000000E+00 -0.00000000000E+00 -0.10971668501E+03  0.10971668501E+03  0.00000000000E+00 0.  1.
          5    1    1    2  502    0 -0.10564561308E+03 -0.26430097593E+02  0.19303820392E+03  0.22168758151E+03  0.47000000000E+01 0. -1.
         -5    1    1    2    0  502  0.20760091488E+02 -0.63114703931E+02  0.11319678507E+03  0.13133944344E+03  0.47000000000E+01 0. -1.
        -11    1    1    2    0    0  0.10381517416E+03  0.69632034988E+02 -0.20041275175E+02  0.12660119823E+03  0.00000000000E+00 0. -1.
         11    1    1    2    0    0 -0.18929652571E+02  0.19912766537E+02  0.15175522907E+01  0.27516412966E+02  0.00000000000E+00 0.  1.
<mgrwt>
<rscale>  0 0.16968145E+03</rscale>
<asrwt>0</asrwt>
<pdfrwt beam="1">  1        1 0.61142761E-01 0.17563659E+03</pdfrwt>
<pdfrwt beam="2">  1       -1 0.16879490E-01 0.17563659E+03</pdfrwt>
<totfact> 0.16093109E+03</totfact>
</mgrwt>
</event>
<event>
 6    1  0.1190675E-005  0.1311458E+03  0.7546771E-02  0.1238698E+00
          2   -1    0    0  501    0  0.00000000000E+00  0.00000000000E+00  0.24279102480E+03  0.24279102480E+03  0.00000000000E+00 0. -1.
         -2   -1    0    0    0  501 -0.00000000000E+00 -0.00000000000E+00 -0.56973098584E+02  0.56973098584E+02  0.00000000000E+00 0.  1.
          5    1    1    2  502    0 -0.18032328926E+02 -0.22589822725E+02 -0.80440397488E+01  0.30368759486E+02  0.47000000000E+01 0. -1.
         -5    1    1    2    0  502  0.46115881776E+02  0.50643044200E+02  0.13865646728E+03  0.15472264992E+03  0.47000000000E+01 0. -1.
        -11    1    1    2    0    0  0.17832788181E+02 -0.44488296797E+01 -0.17581681473E+02  0.25434542324E+02  0.00000000000E+00 0.  1.
         11    1    1    2    0    0 -0.45916341031E+02 -0.23604391796E+02  0.72787180152E+02  0.89238171655E+02  0.00000000000E+00 0. -1.
<mgrwt>
<rscale>  0 0.12270654E+03</rscale>
<asrwt>0</asrwt>
<pdfrwt beam="1">  1        2 0.37352465E-01 0.13114581E+03</pdfrwt>
<pdfrwt beam="2">  1       -2 0.87650922E-02 0.13114581E+03</pdfrwt>
<totfact> 0.10606334E+04</totfact>
</mgrwt>
</event>
<event>
 6    1  0.1190675E-005  0.1448204E+03  0.7546771E-02  0.1216741E+00
         -2   -1    0    0    0  501 -0.00000000000E+00  0.00000000000E+00  0.21702054753E+02  0.21702054753E+02  0.00000000000E+00 0. -1.
          2   -1    0    0  501    0  0.00000000000E+00 -0.00000000000E+00 -0.80176526357E+03  0.80176526357E+03  0.00000000000E+00 0.  1.
          5    1    1    2  502    0 -0.44406197420E+02 -0.97904513579E+01 -0.48785381484E+02  0.66857062108E+02  0.47000000000E+01 0. -1.
         -5    1    1    2    0  502  0.10125315595E+02 -0.54795076553E+02 -0.42229169408E+03  0.42597815357E+03  0.47000000000E+01 0. -1.
        -11    1    1    2    0    0  0.21433161234E+02 -0.20040695635E+02 -0.51268561392E+02  0.59071780651E+02  0.00000000000E+00 0. -1.
         11    1    1    2    0    0  0.12847720591E+02  0.84626223546E+02 -0.25771757186E+03  0.27156032199E+03  0.00000000000E+00 0.  1.
<mgrwt>
<rscale>  0 0.13749423E+03</rscale>
<asrwt>0</asrwt>
<pdfrwt beam="2">  1        2 0.12334851E+00 0.14482037E+03</pdfrwt>
<pdfrwt beam="1">  1       -2 0.33387775E-02 0.14482037E+03</pdfrwt>
<totfact> 0.12262664E+04</totfact>
</mgrwt>
</event>
<event>
 6    1  0.1190675E-005  0.1504846E+03  0.7546771E-02  0.1210154E+00
         -2   -1    0    0    0  501 -0.00000000000E+00  0.00000000000E+00  0.17112044438E+03  0.17112044438E+03  0.00000000000E+00 0.  1.
          2   -1    0    0  501    0  0.00000000000E+00 -0.00000000000E+00 -0.10793404060E+03  0.10793404060E+03  0.00000000000E+00 0. -1.
          5    1    1    2  502    0  0.14666804530E+02 -0.21867989125E+02  0.44399588783E+02  0.51833749504E+02  0.47000000000E+01 0.  1.
         -5    1    1    2    0  502 -0.45820021385E+01  0.10504904546E+03  0.67355444578E+00  0.10525607048E+03  0.47000000000E+01 0.  1.
        -11    1    1    2    0    0  0.23044111827E+01 -0.99685965216E+02  0.18015384562E+02  0.10132697594E+03  0.00000000000E+00 0.  1.
         11    1    1    2    0    0 -0.12389213574E+02  0.16504908878E+02  0.97875988631E-01  0.20637689061E+02  0.00000000000E+00 0. -1.
<mgrwt>
<rscale>  0 0.14238586E+03</rscale>
<asrwt>0</asrwt>
<pdfrwt beam="2">  1        2 0.16605237E-01 0.15048463E+03</pdfrwt>
<pdfrwt beam="1">  1       -2 0.26326222E-01 0.15048463E+03</pdfrwt>
<totfact> 0.43049349E+03</totfact>
</mgrwt>
</event>
<event>
 6    1  0.1190675E-005  0.3019180E+03  0.7546771E-02  0.1084286E+00
         -2   -1    0    0    0  501 -0.00000000000E+00  0.00000000000E+00  0.23870698573E+03  0.23870698573E+03  0.00000000000E+00 0.  1.
          2   -1    0    0  501    0  0.00000000000E+00 -0.00000000000E+00 -0.95466905019E+02  0.95466905019E+02  0.00000000000E+00 0. -1.
          5    1    1    2  502    0  0.23085337938E+02  0.20994572586E+02 -0.49566394141E+02  0.58759019171E+02  0.47000000000E+01 0. -1.
         -5    1    1    2    0  502  0.59050392439E+02  0.25705444474E+02  0.76712888920E+02  0.10027300758E+03  0.47000000000E+01 0. -1.
        -11    1    1    2    0    0 -0.28054850211E+02 -0.47073782839E+02  0.10711576000E+03  0.12031958150E+03  0.00000000000E+00 0.  1.
         11    1    1    2    0    0 -0.54080880166E+02  0.37376577876E+00  0.89778259360E+01  0.54822282504E+02  0.00000000000E+00 0. -1.
<mgrwt>
<rscale>  0 0.30191798E+03</rscale>
<asrwt>0</asrwt>
<pdfrwt beam="2">  1        2 0.14687216E-01 0.30191798E+03</pdfrwt>
<pdfrwt beam="1">  1       -2 0.36724152E-01 0.30191798E+03</pdfrwt>
<totfact> 0.28029670E+03</totfact>
</mgrwt>
</event>
<event>
 6    1  0.1190675E-005  0.3432894E+03  0.7546771E-02  0.1065404E+00
          1   -1    0    0  501    0  0.00000000000E+00  0.00000000000E+00  0.94631169791E+02  0.94631169791E+02  0.00000000000E+00 0. -1.
         -1   -1    0    0    0  501 -0.00000000000E+00 -0.00000000000E+00 -0.31133400609E+03  0.31133400609E+03  0.00000000000E+00 0.  1.
          5    1    1    2  502    0  0.11712533034E+03 -0.18328901430E+02  0.13905431096E+02  0.11945602810E+03  0.47000000000E+01 0. -1.
         -5    1    1    2    0  502 -0.28234761055E+02 -0.14581263334E+02 -0.19374514250E+02  0.37513687830E+02  0.47000000000E+01 0. -1.
        -11    1    1    2    0    0 -0.18221015757E+02  0.33019467509E+02 -0.15285871257E+02  0.40693347243E+02  0.00000000000E+00 0. -1.
         11    1    1    2    0    0 -0.70669553528E+02 -0.10930274476E+00 -0.19594788189E+03  0.20830211271E+03  0.00000000000E+00 0.  1.
<mgrwt>
<rscale>  0 0.34328939E+03</rscale>
<asrwt>0</asrwt>
<pdfrwt beam="1">  1        1 0.14558642E-01 0.34328939E+03</pdfrwt>
<pdfrwt beam="2">  1       -1 0.47897539E-01 0.34328939E+03</pdfrwt>
<totfact> 0.17303791E+03</totfact>
</mgrwt>
</event>
<event>
 6    1  0.1190675E-005  0.1266394E+03  0.7546771E-02  0.1247182E+00
          2   -1    0    0  501    0  0.00000000000E+00  0.00000000000E+00  0.14141966386E+04  0.14141966386E+04  0.00000000000E+00 0.  1.
         -2   -1    0    0    0  501 -0.00000000000E+00 -0.00000000000E+00 -0.15178530557E+02  0.15178530557E+02  0.00000000000E+00 0. -1.
          5    1    1    2  502    0  0.48224998055E+02  0.12188458797E+02  0.11229937171E+04  0.11241046160E+04  0.47000000000E+01 0. -1.
         -5    1    1    2    0  502 -0.28545942750E+02 -0.17365635749E+02  0.10240964439E+03  0.10782514279E+03  0.47000000000E+01 0. -1.
        -11    1    1    2    0    0 -0.18844518280E+02  0.45541299078E+02  0.12428503600E+03  0.13370077024E+03  0.00000000000E+00 0.  1.
         11    1    1    2    0    0 -0.83453702459E+00 -0.40364122127E+02  0.49329710546E+02  0.63744640164E+02  0.00000000000E+00 0. -1.
<mgrwt>
<rscale>  0 0.11755717E+03</rscale>
<asrwt>0</asrwt>
<pdfrwt beam="1">  1        2 0.21756861E+00 0.12663938E+03</pdfrwt>
<pdfrwt beam="2">  1       -2 0.23351597E-02 0.12663938E+03</pdfrwt>
<totfact> 0.90730901E+03</totfact>
</mgrwt>
</event>
<event>
 6    1  0.1190675E-005  0.1264370E+03  0.7546771E-02  0.1245271E+00
          1   -1    0    0  501    0  0.00000000000E+00  0.00000000000E+00  0.93152220694E+03  0.93152220694E+03  0.00000000000E+00 0. -1.
         -1   -1    0    0    0  501 -0.00000000000E+00 -0.00000000000E+00 -0.13766820318E+02  0.13766820318E+02  0.00000000000E+00 0.  1.
          5    1    1    2  502    0 -0.24821768353E+02  0.41627023896E+02  0.36385178773E+03  0.36709554987E+03  0.47000000000E+01 0.  1.
         -5    1    1    2    0  502  0.37456109493E+02 -0.55885548359E+02  0.21179363621E+03  0.22227188079E+03  0.47000000000E+01 0.  1.
        -11    1    1    2    0    0  0.53860009116E+01 -0.39793413697E+02  0.11642896775E+03  0.12315936550E+03  0.00000000000E+00 0.  1.
         11    1    1    2    0    0 -0.18020342052E+02  0.54051938160E+02  0.22568099494E+03  0.23276223109E+03  0.00000000000E+00 0. -1.
<mgrwt>
<rscale>  0 0.11869178E+03</rscale>
<asrwt>0</asrwt>
<pdfrwt beam="1">  1        1 0.14331106E+00 0.12643700E+03</pdfrwt>
<pdfrwt beam="2">  1       -1 0.21179731E-02 0.12643700E+03</pdfrwt>
<totfact> 0.10888414E+04</totfact>
</mgrwt>
</event>
<event>
 6    1  0.1190675E-005  0.2469687E+03  0.7546771E-02  0.1118040E+00
         -2   -1    0    0    0  501 -0.00000000000E+00  0.00000000000E+00  0.31607145858E+03  0.31607145858E+03  0.00000000000E+00 0.  1.
          2   -1    0    0  501    0  0.00000000000E+00 -0.00000000000E+00 -0.18005014980E+03  0.18005014980E+03  0.00000000000E+00 0. -1.
          5    1    1    2  502    0  0.10510974163E+02 -0.79410264838E+01  0.33381019981E+02  0.36192858059E+02  0.47000000000E+01 0.  1.
         -5    1    1    2    0  502 -0.18424318615E+03 -0.11529082479E+03  0.36159010723E+02  0.22037942277E+03  0.47000000000E+01 0.  1.
        -11    1    1    2    0    0  0.49046211701E+02  0.21514394483E+02 -0.19633027353E+02  0.57042578968E+02  0.00000000000E+00 0.  1.
         11    1    1    2    0    0  0.12468600028E+03  0.10171745679E+03  0.86114305428E+02  0.18250674859E+03  0.00000000000E+00 0. -1.
<mgrwt>
<rscale>  0 0.24264933E+03</rscale>
<asrwt>0</asrwt>
<pdfrwt beam="2">  1        2 0.27700023E-01 0.24696866E+03</pdfrwt>
<pdfrwt beam="1">  1       -2 0.48626378E-01 0.24696866E+03</pdfrwt>
<totfact> 0.77882438E+02</totfact>
</mgrwt>
</event>
<event>
 6    1  0.1190675E-005  0.1280920E+03  0.7546771E-02  0.1242701E+00
         -1   -1    0    0    0  501 -0.00000000000E+00  0.00000000000E+00  0.18798614254E+03  0.18798614254E+03  0.00000000000E+00 0.  1.
          1   -1    0    0  501    0  0.00000000000E+00 -0.00000000000E+00 -0.68865214987E+02  0.68865214987E+02  0.00000000000E+00 0. -1.
          5    1    1    2  502    0 -0.51239116598E+02  0.13856438884E+02  0.12416267365E+02  0.54714729859E+02  0.47000000000E+01 0.  1.
         -5    1    1    2    0  502  0.58588725199E+02 -0.40824179462E+02  0.53440677969E+02  0.89315443295E+02  0.47000000000E+01 0.  1.
        -11    1    1    2    0    0 -0.41570032367E+02 -0.15902141777E+02  0.26321605609E+02  0.51708535329E+02  0.00000000000E+00 0.  1.
         11    1    1    2    0    0  0.34220423765E+02  0.42869882355E+02  0.26942376613E+02  0.61112649046E+02  0.00000000000E+00 0. -1.
<mgrwt>
<rscale>  0 0.12024017E+03</rscale>
<asrwt>0</asrwt>
<pdfrwt beam="2">  1        1 0.10594649E-01 0.12809197E+03</pdfrwt>
<pdfrwt beam="1">  1       -1 0.28920945E-01 0.12809197E+03</pdfrwt>
<totfact> 0.61051339E+03</totfact>
</mgrwt>
</event>
<event>
 6    1  0.1190675E-005  0.1342671E+03  0.7546771E-02  0.1234398E+00
         -1   -1    0    0    0  501 -0.00000000000E+00  0.00000000000E+00  0.18441133775E+03  0.18441133775E+03  0.00000000000E+00 0.  1.
          1   -1    0    0  501    0  0.00000000000E+00 -0.00000000000E+00 -0.81820723352E+02  0.81820723352E+02  0.00000000000E+00 0. -1.
          5    1    1    2  502    0  0.50432461352E+02 -0.16754950778E+02 -0.29760201480E+02  0.61089451837E+02  0.47000000000E+01 0. -1.
         -5    1    1    2    0  502 -0.43630688326E+02 -0.31796827269E+02  0.51814769884E+02  0.74976900218E+02  0.47000000000E+01 0. -1.
        -11    1    1    2    0    0 -0.15735806177E+02  0.16211663440E+02 -0.16184177764E+02  0.27791387828E+02  0.00000000000E+00 0. -1.
         11    1    1    2    0    0  0.89340331505E+01  0.32340114608E+02  0.96720223759E+02  0.10237432122E+03  0.00000000000E+00 0.  1.
<mgrwt>
<rscale>  0 0.12543055E+03</rscale>
<asrwt>0</asrwt>
<pdfrwt beam="2">  1        1 0.12587804E-01 0.13426708E+03</pdfrwt>
<pdfrwt beam="1">  1       -1 0.28370975E-01 0.13426708E+03</pdfrwt>
<totfact> 0.50428261E+03</totfact>
</mgrwt>
</event>
<event>
 6    1  0.1190675E-005  0.1346242E+03  0.7546771E-02  0.1233331E+00
         -2   -1    0    0    0  501 -0.00000000000E+00  0.00000000000E+00  0.52726337415E+02  0.52726337415E+02  0.00000000000E+00 0.  1.
          2   -1    0    0  501    0  0.00000000000E+00 -0.00000000000E+00 -0.27226663063E+03  0.27226663063E+03  0.00000000000E+00 0. -1.
          5    1    1    2  502    0 -0.21321080095E+02  0.20623350404E+02  0.40549556070E+01  0.30305836126E+02  0.47000000000E+01 0. -1.
         -5    1    1    2    0  502  0.68615210547E+02 -0.36756345342E+02 -0.14476414800E+03  0.16443182352E+03  0.47000000000E+01 0. -1.
        -11    1    1    2    0    0 -0.14886754082E+02 -0.37864221932E+02 -0.32502814095E+02  0.52074443576E+02  0.00000000000E+00 0. -1.
         11    1    1    2    0    0 -0.32407376370E+02  0.53997216870E+02 -0.46328286725E+02  0.78180864818E+02  0.00000000000E+00 0.  1.
<mgrwt>
<rscale>  0 0.12611858E+03</rscale>
<asrwt>0</asrwt>
<pdfrwt beam="2">  1        2 0.41887174E-01 0.13462421E+03</pdfrwt>
<pdfrwt beam="1">  1       -2 0.81117442E-02 0.13462421E+03</pdfrwt>
<totfact> 0.10608934E+04</totfact>
</mgrwt>
</event>
<event>
 6    1  0.1190675E-005  0.1275172E+03  0.7546771E-02  0.1248842E+00
          2   -1    0    0  501    0  0.00000000000E+00  0.00000000000E+00  0.10537185217E+04  0.10537185217E+04  0.00000000000E+00 0. -1.
         -2   -1    0    0    0  501 -0.00000000000E+00 -0.00000000000E+00 -0.12486938988E+02  0.12486938988E+02  0.00000000000E+00 0.  1.
          5    1    1    2  502    0 -0.58665048377E+02 -0.37920067960E+02  0.61782156387E+03  0.62177575881E+03  0.47000000000E+01 0. -1.
         -5    1    1    2    0  502  0.40525346673E+02  0.20480290728E+02  0.15825641831E+03  0.16470862141E+03  0.47000000000E+01 0. -1.
        -11    1    1    2    0    0 -0.29640866389E+02 -0.12874392817E+02  0.87740053733E+02  0.93502128210E+02  0.00000000000E+00 0. -1.
         11    1    1    2    0    0  0.47780568093E+02  0.30314170049E+02  0.17741354681E+03  0.18621895227E+03  0.00000000000E+00 0.  1.
<mgrwt>
<rscale>  0 0.11658342E+03</rscale>
<asrwt>0</asrwt>
<pdfrwt beam="1">  1        2 0.16211047E+00 0.12751724E+03</pdfrwt>
<pdfrwt beam="2">  1       -2 0.19210684E-02 0.12751724E+03</pdfrwt>
<totfact> 0.19002351E+04</totfact>
</mgrwt>
</event>
<event>
 6    1  0.1190675E-005  0.2338997E+03  0.7546771E-02  0.1127136E+00
          2   -1    0    0  501    0  0.00000000000E+00  0.00000000000E+00  0.71258881456E+03  0.71258881456E+03  0.00000000000E+00 0. -1.
         -2   -1    0    0    0  501 -0.00000000000E+00 -0.00000000000E+00 -0.71413793884E+02  0.71413793884E+02  0.00000000000E+00 0.  1.
          5    1    1    2  502    0 -0.62561744653E+02  0.49351934396E+02  0.79778542363E+02  0.11285517775E+03  0.47000000000E+01 0.  1.
         -5    1    1    2    0  502 -0.13496971526E+03 -0.57550113074E+02  0.28256727444E+03  0.31842612037E+03  0.47000000000E+01 0.  1.
        -11    1    1    2    0    0  0.26437110905E+02  0.17198234469E+02  0.10089473949E+03  0.10570926430E+03  0.00000000000E+00 0. -1.
         11    1    1    2    0    0  0.17109434901E+03 -0.90000557910E+01  0.17793446439E+03  0.24701204603E+03  0.00000000000E+00 0.  1.
<mgrwt>
<rscale>  0 0.22929681E+03</rscale>
<asrwt>0</asrwt>
<pdfrwt beam="1">  1        2 0.10962904E+00 0.23389969E+03</pdfrwt>
<pdfrwt beam="2">  1       -2 0.10986738E-01 0.23389969E+03</pdfrwt>
<totfact> 0.23305678E+03</totfact>
</mgrwt>
</event>
<event>
 6    1  0.1190675E-005  0.1262392E+03  0.7546771E-02  0.1248381E+00
          1   -1    0    0  501    0  0.00000000000E+00  0.00000000000E+00  0.21849281665E+03  0.21849281665E+03  0.00000000000E+00 0. -1.
         -1   -1    0    0    0  501 -0.00000000000E+00 -0.00000000000E+00 -0.58160093199E+02  0.58160093199E+02  0.00000000000E+00 0.  1.
          5    1    1    2  502    0  0.45154885856E+02 -0.53516419862E+02  0.53028164401E+02  0.87960486193E+02  0.47000000000E+01 0. -1.
         -5    1    1    2    0  502 -0.38245242709E+02  0.37281973158E+02  0.71428355617E+02  0.89312620041E+02  0.47000000000E+01 0. -1.
        -11    1    1    2    0    0  0.36433716634E+02 -0.14785815160E+02  0.13490604227E+02  0.41569609574E+02  0.00000000000E+00 0.  1.
         11    1    1    2    0    0 -0.43343359781E+02  0.31020261864E+02  0.22385599207E+02  0.57810194041E+02  0.00000000000E+00 0. -1.
<mgrwt>
<rscale>  0 0.11685303E+03</rscale>
<asrwt>0</asrwt>
<pdfrwt beam="1">  1        1 0.33614279E-01 0.12623917E+03</pdfrwt>
<pdfrwt beam="2">  1       -1 0.89477067E-02 0.12623917E+03</pdfrwt>
<totfact> 0.89239425E+03</totfact>
</mgrwt>
</event>
<event>
 6    1  0.1190675E-005  0.1305945E+03  0.7546771E-02  0.1238546E+00
          1   -1    0    0  501    0  0.00000000000E+00  0.00000000000E+00  0.84189443111E+03  0.84189443111E+03  0.00000000000E+00 0. -1.
         -1   -1    0    0    0  501 -0.00000000000E+00 -0.00000000000E+00 -0.16443777894E+02  0.16443777894E+02  0.00000000000E+00 0.  1.
          5    1    1    2  502    0  0.30173571114E+02 -0.46988797843E+02  0.31783054911E+03  0.32273323266E+03  0.47000000000E+01 0. -1.
         -5    1    1    2    0  502  0.82525979660E+00  0.68580358066E+02  0.20773832333E+03  0.21881784102E+03  0.47000000000E+01 0. -1.
        -11    1    1    2    0    0  0.29948191605E+02  0.76715182233E+01  0.13674080400E+03  0.14019198925E+03  0.00000000000E+00 0. -1.
         11    1    1    2    0    0 -0.60947022515E+02 -0.29263078446E+02  0.16314097678E+03  0.17659514608E+03  0.00000000000E+00 0.  1.
<mgrwt>
<rscale>  0 0.12280138E+03</rscale>
<asrwt>0</asrwt>
<pdfrwt beam="1">  1        1 0.12952219E+00 0.13059451E+03</pdfrwt>
<pdfrwt beam="2">  1       -1 0.25298126E-02 0.13059451E+03</pdfrwt>
<totfact> 0.98995759E+03</totfact>
</mgrwt>
</event>
<event>
 6    1  0.1190675E-005  0.1312530E+03  0.7546771E-02  0.1240604E+00
          2   -1    0    0  501    0  0.00000000000E+00  0.00000000000E+00  0.33351129672E+03  0.33351129672E+03  0.00000000000E+00 0.  1.
         -2   -1    0    0    0  501 -0.00000000000E+00 -0.00000000000E+00 -0.41006123252E+02  0.41006123252E+02  0.00000000000E+00 0. -1.
          5    1    1    2  502    0  0.49545395209E+02 -0.25150670075E+02  0.15122246834E+03  0.16117576531E+03  0.47000000000E+01 0.  1.
         -5    1    1    2    0  502 -0.61841860002E+02 -0.12942846306E+02  0.58507719218E+02  0.86239063812E+02  0.47000000000E+01 0.  1.
        -11    1    1    2    0    0 -0.30043318616E+02  0.33469693739E+01  0.61154285587E+02  0.68217665184E+02  0.00000000000E+00 0.  1.
         11    1    1    2    0    0  0.42339783409E+02  0.34746547007E+02  0.21620700313E+02  0.58884925660E+02  0.00000000000E+00 0. -1.
<mgrwt>
<rscale>  0 0.12152396E+03</rscale>
<asrwt>0</asrwt>
<pdfrwt beam="1">  1        2 0.51309429E-01 0.13125299E+03</pdfrwt>
<pdfrwt beam="2">  1       -2 0.63086346E-02 0.13125299E+03</pdfrwt>
<totfact> 0.12553362E+04</totfact>
</mgrwt>
</event>
<event>
 6    1  0.1190675E-005  0.1125985E+03  0.7546771E-02  0.1266051E+00
         -2   -1    0    0    0  501 -0.00000000000E+00  0.00000000000E+00  0.15552717286E+02  0.15552717286E+02  0.00000000000E+00 0.  1.
          2   -1    0    0  501    0  0.00000000000E+00 -0.00000000000E+00 -0.10741093471E+04  0.10741093471E+04  0.00000000000E+00 0. -1.
          5    1    1    2  502    0 -0.89486878503E+01  0.14845110416E+02 -0.85869608425E+03  0.85888387540E+03  0.47000000000E+01 0. -1.
         -5    1    1    2    0  502  0.14179602285E+01 -0.22561237618E+02 -0.35334699823E+02  0.42209608689E+02  0.47000000000E+01 0.  1.
        -11    1    1    2    0    0  0.47161490619E+02 -0.10404905469E+02 -0.79328565800E+02  0.92873514024E+02  0.00000000000E+00 0.  1.
         11    1    1    2    0    0 -0.39630762997E+02  0.18121032670E+02 -0.85197279988E+02  0.95695066321E+02  0.00000000000E+00 0. -1.
<mgrwt>
<rscale>  0 0.10709244E+03</rscale>
<asrwt>0</asrwt>
<pdfrwt beam="2">  1        2 0.16524764E+00 0.11259851E+03</pdfrwt>
<pdfrwt beam="1">  1       -2 0.23927251E-02 0.11259851E+03</pdfrwt>
<totfact> 0.13337643E+04</totfact>
</mgrwt>
</event>
<event>
 6    1  0.1190675E-005  0.1263066E+03  0.7546771E-02  0.1248841E+00
         -2   -1    0    0    0  501 -0.00000000000E+00  0.00000000000E+00  0.10866881135E+03  0.10866881135E+03  0.00000000000E+00 0.  1.
          2   -1    0    0  501    0  0.00000000000E+00 -0.00000000000E+00 -0.12276334953E+03  0.12276334953E+03  0.00000000000E+00 0. -1.
          5    1    1    2  502    0  0.18021872715E+02 -0.64936715020E+02 -0.20113295181E+02  0.70485455924E+02  0.47000000000E+01 0. -1.
         -5    1    1    2    0  502 -0.14419621215E+01  0.58261379983E+02 -0.25792043089E+02  0.63904515795E+02  0.47000000000E+01 0. -1.
        -11    1    1    2    0    0 -0.18556985122E+02  0.46259001465E+02  0.28145451777E+02  0.57240050393E+02  0.00000000000E+00 0. -1.
         11    1    1    2    0    0  0.19770745284E+01 -0.39583666428E+02  0.36653483120E+01  0.39802138759E+02  0.00000000000E+00 0.  1.
<mgrwt>
<rscale>  0 0.11658388E+03</rscale>
<asrwt>0</asrwt>
<pdfrwt beam="2">  1        2 0.18886669E-01 0.12630663E+03</pdfrwt>
<pdfrwt beam="1">  1       -2 0.16718279E-01 0.12630663E+03</pdfrwt>
<totfact> 0.79572731E+03</totfact>
</mgrwt>
</event>
<event>
 6    1  0.1190675E-005  0.1278049E+03  0.7546771E-02  0.1245807E+00
         -1   -1    0    0    0  501 -0.00000000000E+00  0.00000000000E+00  0.62240304661E+02  0.62240304661E+02  0.00000000000E+00 0.  1.
          1   -1    0    0  501    0  0.00000000000E+00 -0.00000000000E+00 -0.40696429519E+03  0.40696429519E+03  0.00000000000E+00 0. -1.
          5    1    1    2  502    0 -0.40694523097E+02  0.37306215874E+02 -0.66753792504E+02  0.86752272400E+02  0.47000000000E+01 0.  1.
         -5    1    1    2    0  502  0.35595268500E+02 -0.11117140149E+02 -0.28562876635E+03  0.28809112467E+03  0.47000000000E+01 0.  1.
        -11    1    1    2    0    0  0.13995483896E+02 -0.50780673443E+02 -0.19957279910E+02  0.56327998244E+02  0.00000000000E+00 0. -1.
         11    1    1    2    0    0 -0.88962292988E+01  0.24591597718E+02  0.27615848234E+02  0.38033204542E+02  0.00000000000E+00 0.  1.
<mgrwt>
<rscale>  0 0.11837237E+03</rscale>
<asrwt>0</asrwt>
<pdfrwt beam="2">  1        1 0.62609892E-01 0.12780495E+03</pdfrwt>
<pdfrwt beam="1">  1       -1 0.95754315E-02 0.12780495E+03</pdfrwt>
<totfact> 0.37270001E+03</totfact>
</mgrwt>
</event>
<event>
 6    1  0.1190675E-005  0.1338733E+03  0.7546771E-02  0.1234700E+00
         -2   -1    0    0    0  501 -0.00000000000E+00  0.00000000000E+00  0.29206012650E+02  0.29206012650E+02  0.00000000000E+00 0.  1.
          2   -1    0    0  501    0  0.00000000000E+00 -0.00000000000E+00 -0.48299134111E+03  0.48299134111E+03  0.00000000000E+00 0. -1.
          5    1    1    2  502    0  0.31787113560E+02 -0.17587785255E+02 -0.32194084558E+02  0.48767815813E+02  0.47000000000E+01 0. -1.
         -5    1    1    2    0  502 -0.78605559585E+02  0.28013633264E+02 -0.24932573754E+03  0.26296199544E+03  0.47000000000E+01 0. -1.
        -11    1    1    2    0    0  0.61292157808E+02 -0.87075757820E+01 -0.17500926951E+03  0.18563618962E+03  0.00000000000E+00 0. -1.
         11    1    1    2    0    0 -0.14473711783E+02 -0.17182722271E+01  0.27437631411E+01  0.14831352885E+02  0.00000000000E+00 0.  1.
<mgrwt>
<rscale>  0 0.12523632E+03</rscale>
<asrwt>0</asrwt>
<pdfrwt beam="2">  1        2 0.74306358E-01 0.13387332E+03</pdfrwt>
<pdfrwt beam="1">  1       -2 0.44932328E-02 0.13387332E+03</pdfrwt>
<totfact> 0.14096336E+04</totfact>
</mgrwt>
</event>
<event>
 6    1  0.1190675E-005  0.1259522E+03  0.7546771E-02  0.1247597E+00
          1   -1    0    0  501    0  0.00000000000E+00  0.00000000000E+00  0.80135863020E+03  0.80135863020E+03  0.00000000000E+00 0. -1.
         -1   -1    0    0    0  501 -0.00000000000E+00 -0.00000000000E+00 -0.15547386837E+02  0.15547386837E+02  0.00000000000E+00 0.  1.
          5    1    1    2  502    0 -0.11417609110E+02 -0.56848542865E+02  0.19314464892E+03  0.20171530440E+03  0.47000000000E+01 0. -1.
         -5    1    1    2    0  502  0.26640010069E+02  0.60051070261E+02  0.31432216403E+03  0.32114846096E+03  0.47000000000E+01 0. -1.
        -11    1    1    2    0    0  0.12854052274E+02  0.40603820884E+02  0.11660312871E+03  0.12413777247E+03  0.00000000000E+00 0.  1.
         11    1    1    2    0    0 -0.28076453234E+02 -0.43806348279E+02  0.16174130170E+03  0.16990447920E+03  0.00000000000E+00 0. -1.
<mgrwt>
<rscale>  0 0.11731279E+03</rscale>
<asrwt>0</asrwt>
<pdfrwt beam="1">  1        1 0.12328591E+00 0.12595218E+03</pdfrwt>
<pdfrwt beam="2">  1       -1 0.23919063E-02 0.12595218E+03</pdfrwt>
<totfact> 0.11545378E+04</totfact>
</mgrwt>
</event>
<event>
 6    1  0.1190675E-005  0.1535095E+03  0.7546771E-02  0.1204735E+00
          1   -1    0    0  501    0  0.00000000000E+00  0.00000000000E+00  0.11904469304E+03  0.11904469304E+03  0.00000000000E+00 0. -1.
         -1   -1    0    0    0  501 -0.00000000000E+00 -0.00000000000E+00 -0.20062857843E+03  0.20062857843E+03  0.00000000000E+00 0.  1.
          5    1    1    2  502    0 -0.54248281215E+02 -0.10686781995E+02 -0.96340991240E+01  0.56320415394E+02  0.47000000000E+01 0.  1.
         -5    1    1    2    0  502  0.17307755898E+02  0.91762759844E+02  0.31924664260E+02  0.98798971131E+02  0.47000000000E+01 0.  1.
        -11    1    1    2    0    0 -0.28828052542E+02 -0.10066472373E+02 -0.20204407079E+02  0.36614321581E+02  0.00000000000E+00 0.  1.
         11    1    1    2    0    0  0.65768577860E+02 -0.71009505476E+02 -0.83670043448E+02  0.12793956336E+03  0.00000000000E+00 0. -1.
<mgrwt>
<rscale>  0 0.14658350E+03</rscale>
<asrwt>0</asrwt>
<pdfrwt beam="1">  1        1 0.18314568E-01 0.15350946E+03</pdfrwt>
<pdfrwt beam="2">  1       -1 0.30865935E-01 0.15350946E+03</pdfrwt>
<totfact> 0.27127973E+03</totfact>
</mgrwt>
</event>
<event>
 6    1  0.1190675E-005  0.1270893E+03  0.7546771E-02  0.1280200E+00
         -4   -1    0    0    0  501 -0.00000000000E+00  0.00000000000E+00  0.20322800214E+03  0.20322800214E+03  0.00000000000E+00 0.  1.
          4   -1    0    0  501    0  0.00000000000E+00 -0.00000000000E+00 -0.38067339754E+02  0.38067339754E+02  0.00000000000E+00 0. -1.
          5    1    1    2  502    0  0.33049060911E+02 -0.30527131668E+02  0.12728746540E+03  0.13508639844E+03  0.47000000000E+01 0.  1.
         -5    1    1    2    0  502 -0.38624343651E+02  0.83569238123E+01 -0.64077528044E+01  0.40309147771E+02  0.47000000000E+01 0.  1.
        -11    1    1    2    0    0 -0.19026097628E+01 -0.12677104684E+02  0.15322047513E+02  0.19977338338E+02  0.00000000000E+00 0.  1.
         11    1    1    2    0    0  0.74778925024E+01  0.34847312539E+02  0.28958902273E+02  0.45922457342E+02  0.00000000000E+00 0. -1.
<mgrwt>
<rscale>  0 0.10004584E+03</rscale>
<asrwt>0</asrwt>
<pdfrwt beam="2">  1        4 0.58565139E-02 0.12708931E+03</pdfrwt>
<pdfrwt beam="1">  1       -4 0.31265846E-01 0.12708931E+03</pdfrwt>
<totfact> 0.29300864E+03</totfact>
</mgrwt>
</event>
<event>
 6    1  0.1190675E-005  0.2401830E+03  0.7546771E-02  0.1121954E+00
          2   -1    0    0  501    0  0.00000000000E+00  0.00000000000E+00  0.17202721639E+04  0.17202721639E+04  0.00000000000E+00 0.  1.
         -2   -1    0    0    0  501 -0.00000000000E+00 -0.00000000000E+00 -0.31764346452E+02  0.31764346452E+02  0.00000000000E+00 0. -1.
          5    1    1    2  502    0 -0.19552029271E+02  0.21834389700E+02  0.35779114791E+03  0.35902035868E+03  0.47000000000E+01 0. -1.
         -5    1    1    2    0  502 -0.16905923077E+03  0.58775313392E+02  0.47146323246E+03  0.50431659752E+03  0.47000000000E+01 0. -1.
        -11    1    1    2    0    0  0.15085473566E+03 -0.31930003771E+02  0.72157256062E+03  0.73786423999E+03  0.00000000000E+00 0.  1.
         11    1    1    2    0    0  0.37756524376E+02 -0.48679699322E+02  0.13768087649E+03  0.15083531420E+03  0.00000000000E+00 0. -1.
<mgrwt>
<rscale>  0 0.23678349E+03</rscale>
<asrwt>0</asrwt>
<pdfrwt beam="1">  1        2 0.26465718E+00 0.24018300E+03</pdfrwt>
<pdfrwt beam="2">  1       -2 0.48868239E-02 0.24018300E+03</pdfrwt>
<totfact> 0.21157383E+03</totfact>
</mgrwt>
</event>
<event>
 6    1  0.1190675E-005  0.1909742E+03  0.7546771E-02  0.1176489E+00
          2   -1    0    0  501    0  0.00000000000E+00  0.00000000000E+00  0.84520967162E+03  0.84520967162E+03  0.00000000000E+00 0.  1.
         -2   -1    0    0    0  501 -0.00000000000E+00 -0.00000000000E+00 -0.29472290620E+02  0.29472290620E+02  0.00000000000E+00 0. -1.
          5    1    1    2  502    0  0.70958165848E+02  0.11109833596E+03  0.29072379073E+03  0.31924961088E+03  0.47000000000E+01 0.  1.
         -5    1    1    2    0  502 -0.19237887606E+02 -0.44273529219E+02  0.23838968928E+03  0.24327345861E+03  0.47000000000E+01 0. -1.
        -11    1    1    2    0    0 -0.15507669348E+02  0.20212900471E+02  0.98436831232E+02  0.10168017947E+03  0.00000000000E+00 0.  1.
         11    1    1    2    0    0 -0.36212608893E+02 -0.87037707207E+02  0.18818706976E+03  0.21047871328E+03  0.00000000000E+00 0. -1.
<mgrwt>
<rscale>  0 0.17130955E+03</rscale>
<asrwt>0</asrwt>
<pdfrwt beam="1">  1        2 0.13003224E+00 0.19097416E+03</pdfrwt>
<pdfrwt beam="2">  1       -2 0.45341992E-02 0.19097416E+03</pdfrwt>
<totfact> 0.73740541E+03</totfact>
</mgrwt>
</event>
<event>
 6    1  0.1190675E-005  0.1389044E+03  0.7546771E-02  0.1225830E+00
         -1   -1    0    0    0  501 -0.00000000000E+00  0.00000000000E+00  0.84176567420E+03  0.84176567420E+03  0.00000000000E+00 0.  1.
          1   -1    0    0  501    0  0.00000000000E+00 -0.00000000000E+00 -0.20674820716E+02  0.20674820716E+02  0.00000000000E+00 0. -1.
          5    1    1    2  502    0  0.76569764685E+02  0.63517669575E+02  0.22925494350E+03  0.24995468056E+03  0.47000000000E+01 0.  1.
         -5    1    1    2    0  502 -0.30244621674E+02 -0.24503951411E+02  0.82280503968E+02  0.91144676796E+02  0.47000000000E+01 0.  1.
        -11    1    1    2    0    0 -0.67077403380E+02 -0.15539479321E+01  0.32968986651E+03  0.33644791704E+03  0.00000000000E+00 0.  1.
         11    1    1    2    0    0  0.20752260369E+02 -0.37459770231E+02  0.17986553950E+03  0.18489322052E+03  0.00000000000E+00 0. -1.
<mgrwt>
<rscale>  0 0.13110175E+03</rscale>
<asrwt>0</asrwt>
<pdfrwt beam="2">  1        1 0.31807423E-02 0.13890442E+03</pdfrwt>
<pdfrwt beam="1">  1       -1 0.12950238E+00 0.13890442E+03</pdfrwt>
<totfact> 0.16802080E+03</totfact>
</mgrwt>
</event>
<event>
 6    1  0.1190675E-005  0.1631657E+03  0.7546771E-02  0.1276195E+00
         -2   -1    0    0    0  501 -0.00000000000E+00  0.00000000000E+00  0.43443157617E+02  0.43443157617E+02  0.00000000000E+00 0.  1.
          2   -1    0    0  501    0  0.00000000000E+00 -0.00000000000E+00 -0.20676628326E+03  0.20676628326E+03  0.00000000000E+00 0. -1.
          5    1    1    2  502    0  0.51525376455E+02 -0.39917989372E+02 -0.14191794413E+03  0.15624052983E+03  0.47000000000E+01 0. -1.
         -5    1    1    2    0  502 -0.44231482850E+02  0.25040774696E+02  0.11875341829E+02  0.52407806824E+02  0.47000000000E+01 0.  1.
        -11    1    1    2    0    0 -0.11044182599E+02  0.23952104832E+01 -0.19881646739E+02  0.22868993847E+02  0.00000000000E+00 0.  1.
         11    1    1    2    0    0  0.37502889941E+01  0.12482004192E+02 -0.13398876601E+02  0.18692110377E+02  0.00000000000E+00 0. -1.
<mgrwt>
<rscale>  0 0.10197581E+03</rscale>
<asrwt>0</asrwt>
<pdfrwt beam="2">  1        2 0.31810197E-01 0.16316571E+03</pdfrwt>
<pdfrwt beam="1">  1       -2 0.66835628E-02 0.16316571E+03</pdfrwt>
<totfact> 0.19503693E+04</totfact>
</mgrwt>
</event>
<event>
 6    1  0.1190675E-005  0.3930187E+03  0.7546771E-02  0.1046224E+00
          2   -1    0    0  501    0  0.00000000000E+00  0.00000000000E+00  0.58313355814E+03  0.58313355814E+03  0.00000000000E+00 0. -1.
         -2   -1    0    0    0  501 -0.00000000000E+00 -0.00000000000E+00 -0.66221412170E+02  0.66221412170E+02  0.00000000000E+00 0.  1.
          5    1    1    2  502    0  0.96709893696E+02 -0.91616076847E+02  0.39926172265E+03  0.42092555428E+03  0.47000000000E+01 0.  1.
         -5    1    1    2    0  502  0.20381493913E+02  0.23947619863E+02  0.21524407434E+02  0.38396404866E+02  0.47000000000E+01 0.  1.
        -11    1    1    2    0    0 -0.71328422630E+02 -0.10280348531E+02  0.55367487230E+02  0.90878974922E+02  0.00000000000E+00 0.  1.
         11    1    1    2    0    0 -0.45762964979E+02  0.77948805514E+02  0.40758528665E+02  0.99154036245E+02  0.00000000000E+00 0. -1.
<mgrwt>
<rscale>  0 0.39301872E+03</rscale>
<asrwt>0</asrwt>
<pdfrwt beam="1">  1        2 0.89712852E-01 0.39301872E+03</pdfrwt>
<pdfrwt beam="2">  1       -2 0.10187910E-01 0.39301872E+03</pdfrwt>
<totfact> 0.33790917E+03</totfact>
</mgrwt>
</event>
<event>
 6    1  0.2526332E-005  0.1465122E+03  0.7546771E-02  0.1215613E+00
         -3   -1    0    0    0  501 -0.00000000000E+00  0.00000000000E+00  0.31349334604E+02  0.31349334604E+02  0.00000000000E+00 0.  1.
          3   -1    0    0  501    0  0.00000000000E+00 -0.00000000000E+00 -0.56488160870E+03  0.56488160870E+03  0.00000000000E+00 0. -1.
          5    1    1    2  502    0  0.28045637431E+02  0.20491371253E+01 -0.20431514256E+02  0.35075540148E+02  0.47000000000E+01 0. -1.
         -5    1    1    2    0  502 -0.86485448121E+02 -0.51305381704E+02 -0.32238247701E+03  0.33773440217E+03  0.47000000000E+01 0. -1.
        -11    1    1    2    0    0  0.21452146598E+02  0.12841512104E+02  0.77890814267E+00  0.25014110512E+02  0.00000000000E+00 0.  1.
         11    1    1    2    0    0  0.36987664092E+02  0.36414732475E+02 -0.19149719097E+03  0.19840689047E+03  0.00000000000E+00 0. -1.
<mgrwt>
<rscale>  0 0.13831574E+03</rscale>
<asrwt>0</asrwt>
<pdfrwt beam="2">  1        3 0.86904862E-01 0.14651219E+03</pdfrwt>
<pdfrwt beam="1">  1       -3 0.48229746E-02 0.14651219E+03</pdfrwt>
<totfact> 0.70294715E+02</totfact>
</mgrwt>
</event>
<event>
 6    1  0.1190675E-005  0.1284704E+03  0.7546771E-02  0.1253312E+00
          1   -1    0    0  501    0  0.00000000000E+00  0.00000000000E+00  0.22821495141E+03  0.22821495141E+03  0.00000000000E+00 0. -1.
         -1   -1    0    0    0  501 -0.00000000000E+00 -0.00000000000E+00 -0.52875077122E+02  0.52875077122E+02  0.00000000000E+00 0.  1.
          5    1    1    2  502    0 -0.49514911939E+02  0.14726398764E+02  0.87783186997E+02  0.10196357803E+03  0.47000000000E+01 0.  1.
         -5    1    1    2    0  502  0.58097167388E+02 -0.43089467927E+02  0.62147847296E+02  0.95479987580E+02  0.47000000000E+01 0.  1.
        -11    1    1    2    0    0 -0.37917814793E+02  0.19412985157E+02 -0.18142165326E+01  0.42637026784E+02  0.00000000000E+00 0.  1.
         11    1    1    2    0    0  0.29335559344E+02  0.89500840065E+01  0.27223056528E+02  0.41009436139E+02  0.00000000000E+00 0. -1.
<mgrwt>
<rscale>  0 0.11401412E+03</rscale>
<asrwt>0</asrwt>
<pdfrwt beam="1">  1        1 0.35109992E-01 0.12847041E+03</pdfrwt>
<pdfrwt beam="2">  1       -1 0.81346274E-02 0.12847041E+03</pdfrwt>
<totfact> 0.97787850E+03</totfact>
</mgrwt>
</event>
<event>
 6    1  0.1190675E-005  0.2105001E+03  0.7546771E-02  0.1144796E+00
         -2   -1    0    0    0  501 -0.00000000000E+00  0.00000000000E+00  0.14688655494E+03  0.14688655494E+03  0.00000000000E+00 0.  1.
          2   -1    0    0  501    0  0.00000000000E+00 -0.00000000000E+00 -0.28652502933E+03  0.28652502933E+03  0.00000000000E+00 0. -1.
          5    1    1    2  502    0 -0.97647942596E+02  0.12660191870E+03 -0.56326056427E+02  0.16958148821E+03  0.47000000000E+01 0. -1.
         -5    1    1    2    0  502 -0.34479708032E+02 -0.20636476203E+02 -0.55787166986E+02  0.68913078704E+02  0.47000000000E+01 0. -1.
        -11    1    1    2    0    0  0.40890638801E+02 -0.86150212090E+02 -0.34213651334E+02  0.10131375683E+03  0.00000000000E+00 0. -1.
         11    1    1    2    0    0  0.91237011828E+02 -0.19815230404E+02  0.66884003579E+01  0.93603260534E+02  0.00000000000E+00 0.  1.
<mgrwt>
<rscale>  0 0.20597197E+03</rscale>
<asrwt>0</asrwt>
<pdfrwt beam="2">  1        2 0.44080773E-01 0.21050008E+03</pdfrwt>
<pdfrwt beam="1">  1       -2 0.22597932E-01 0.21050008E+03</pdfrwt>
<totfact> 0.19358463E+03</totfact>
</mgrwt>
</event>
<event>
 6    1  0.1190675E-005  0.1402022E+03  0.7546771E-02  0.1223841E+00
         -2   -1    0    0    0  501 -0.00000000000E+00  0.00000000000E+00  0.64320368209E+02  0.64320368209E+02  0.00000000000E+00 0.  1.
          2   -1    0    0  501    0  0.00000000000E+00 -0.00000000000E+00 -0.32325291682E+03  0.32325291682E+03  0.00000000000E+00 0. -1.
          5    1    1    2  502    0 -0.72567442807E+02 -0.57290588006E+02 -0.10302256741E+03  0.13850626204E+03  0.47000000000E+01 0.  1.
         -5    1    1    2    0  502  0.22955882478E+02  0.17658622571E+02 -0.13146082280E+03  0.13469535042E+03  0.47000000000E+01 0.  1.
        -11    1    1    2    0    0  0.23340443952E+02  0.67925961150E+02 -0.24101913249E+02  0.75760245144E+02  0.00000000000E+00 0.  1.
         11    1    1    2    0    0  0.26271116377E+02 -0.28293995715E+02 -0.34724515563E+00  0.38611427432E+02  0.00000000000E+00 0. -1.
<mgrwt>
<rscale>  0 0.13246665E+03</rscale>
<asrwt>0</asrwt>
<pdfrwt beam="2">  1        2 0.49731217E-01 0.14020221E+03</pdfrwt>
<pdfrwt beam="1">  1       -2 0.98954414E-02 0.14020221E+03</pdfrwt>
<totfact> 0.65067634E+03</totfact>
</mgrwt>
</event>
<event>
 6    1  0.1190675E-005  0.1413992E+03  0.7546771E-02  0.1222134E+00
         -1   -1    0    0    0  501 -0.00000000000E+00  0.00000000000E+00  0.26443503518E+02  0.26443503518E+02  0.00000000000E+00 0.  1.
          1   -1    0    0  501    0  0.00000000000E+00 -0.00000000000E+00 -0.87427056774E+03  0.87427056774E+03  0.00000000000E+00 0. -1.
          5    1    1    2  502    0  0.57876275154E+02  0.45492386421E+01 -0.35851703191E+03  0.36321744309E+03  0.47000000000E+01 0.  1.
         -5    1    1    2    0  502 -0.42366705591E+02 -0.68798319358E+02 -0.34459325499E+03  0.35396998160E+03  0.47000000000E+01 0.  1.
        -11    1    1    2    0    0 -0.60383744533E+01  0.82320168803E+02 -0.77283250239E+02  0.11307419213E+03  0.00000000000E+00 0.  1.
         11    1    1    2    0    0 -0.94711951103E+01 -0.18071088087E+02 -0.67433527091E+02  0.70452454445E+02  0.00000000000E+00 0. -1.
<mgrwt>
<rscale>  0 0.13365261E+03</rscale>
<asrwt>0</asrwt>
<pdfrwt beam="2">  1        1 0.13450317E+00 0.14139917E+03</pdfrwt>
<pdfrwt beam="1">  1       -1 0.40682312E-02 0.14139917E+03</pdfrwt>
<totfact> 0.46865533E+03</totfact>
</mgrwt>
</event>
<event>
 6    1  0.1190675E-005  0.1422375E+03  0.7546771E-02  0.1220479E+00
         -2   -1    0    0    0  501 -0.00000000000E+00  0.00000000000E+00  0.25422660677E+02  0.25422660677E+02  0.00000000000E+00 0.  1.
          2   -1    0    0  501    0  0.00000000000E+00 -0.00000000000E+00 -0.66851754983E+03  0.66851754983E+03  0.00000000000E+00 0. -1.
          5    1    1    2  502    0  0.22076229627E+02 -0.71443520989E+02 -0.36102557595E+03  0.36871817571E+03  0.47000000000E+01 0. -1.
         -5    1    1    2    0  502  0.31549091657E+02  0.30213919213E+02 -0.51795028098E+02  0.67919371569E+02  0.47000000000E+01 0. -1.
        -11    1    1    2    0    0 -0.70389506280E+02  0.47485125337E+02 -0.12884170410E+03  0.15430393526E+03  0.00000000000E+00 0.  1.
         11    1    1    2    0    0  0.16764184996E+02 -0.62555235604E+01 -0.10143258101E+03  0.10299872797E+03  0.00000000000E+00 0. -1.
<mgrwt>
<rscale>  0 0.13481661E+03</rscale>
<asrwt>0</asrwt>
<pdfrwt beam="2">  1        2 0.10284885E+00 0.14223747E+03</pdfrwt>
<pdfrwt beam="1">  1       -2 0.39111787E-02 0.14223747E+03</pdfrwt>
<totfact> 0.12067456E+04</totfact>
</mgrwt>
</event>
<event>
 6    1  0.1190675E-005  0.1310942E+03  0.7546771E-02  0.1240266E+00
          2   -1    0    0  501    0  0.00000000000E+00  0.00000000000E+00  0.56027766929E+02  0.56027766929E+02  0.00000000000E+00 0. -1.
         -2   -1    0    0    0  501 -0.00000000000E+00 -0.00000000000E+00 -0.30118735558E+03  0.30118735558E+03  0.00000000000E+00 0.  1.
          5    1    1    2  502    0 -0.14350176364E+02  0.21267419767E+02  0.28680073058E+02  0.38766832419E+02  0.47000000000E+01 0. -1.
         -5    1    1    2    0  502  0.14296051405E+02 -0.60774027619E+02 -0.81013635761E+02  0.10238729754E+03  0.47000000000E+01 0. -1.
        -11    1    1    2    0    0  0.38334942512E+02  0.41858327120E+02 -0.90988728918E+02  0.10724101900E+03  0.00000000000E+00 0.  1.
         11    1    1    2    0    0 -0.38280817553E+02 -0.23517192679E+01 -0.10183729703E+03  0.10881997354E+03  0.00000000000E+00 0. -1.
<mgrwt>
<rscale>  0 0.12173228E+03</rscale>
<asrwt>0</asrwt>
<pdfrwt beam="1">  1        2 0.86196566E-02 0.13109419E+03</pdfrwt>
<pdfrwt beam="2">  1       -2 0.46336515E-01 0.13109419E+03</pdfrwt>
<totfact> 0.33013707E+03</totfact>
</mgrwt>
</event>
<event>
 6    1  0.1190675E-005  0.1784297E+03  0.7546771E-02  0.1186534E+00
          3   -1    0    0  501    0  0.00000000000E+00  0.00000000000E+00  0.68681697178E+02  0.68681697178E+02  0.00000000000E+00 0. -1.
         -3   -1    0    0    0  501 -0.00000000000E+00 -0.00000000000E+00 -0.41043320742E+03  0.41043320742E+03  0.00000000000E+00 0.  1.
          5    1    1    2  502    0  0.44890355139E+02  0.91406432250E+02 -0.89020308280E+02  0.13534025686E+03  0.47000000000E+01 0. -1.
         -5    1    1    2    0  502 -0.62839715268E+02 -0.14024442399E+02 -0.11221668842E+01  0.64566741114E+02  0.47000000000E+01 0.  1.
        -11    1    1    2    0    0  0.28614708771E+01 -0.90606369082E+02 -0.23874234628E+03  0.25537347169E+03  0.00000000000E+00 0.  1.
         11    1    1    2    0    0  0.15087889252E+02  0.13224379231E+02 -0.12866688801E+02  0.23834434938E+02  0.00000000000E+00 0. -1.
<mgrwt>
<rscale>  0 0.16193092E+03</rscale>
<asrwt>0</asrwt>
<pdfrwt beam="1">  1        3 0.10566415E-01 0.17842966E+03</pdfrwt>
<pdfrwt beam="2">  1       -3 0.63143569E-01 0.17842966E+03</pdfrwt>
<totfact> 0.40104090E+02</totfact>
</mgrwt>
</event>
<event>
 6    1  0.1190675E-005  0.6034023E+03  0.7546771E-02  0.1040959E+00
          1   -1    0    0  501    0  0.00000000000E+00  0.00000000000E+00  0.20950849370E+04  0.20950849370E+04  0.00000000000E+00 0. -1.
         -1   -1    0    0    0  501 -0.00000000000E+00 -0.00000000000E+00 -0.70947729330E+02  0.70947729330E+02  0.00000000000E+00 0.  1.
          5    1    1    2  502    0  0.33269059426E+03 -0.64376041513E+02  0.12558022897E+04  0.13007262537E+04  0.47000000000E+01 0. -1.
         -5    1    1    2    0  502 -0.25155278989E+03  0.31073440633E+02  0.62337216811E+03  0.67294822593E+03  0.47000000000E+01 0.  1.
        -11    1    1    2    0    0  0.62637374926E+01  0.26097079757E+02  0.76591528633E+02  0.81157588909E+02  0.00000000000E+00 0.  1.
         11    1    1    2    0    0 -0.87401541861E+02  0.72055211226E+01  0.68371221191E+02  0.11120059776E+03  0.00000000000E+00 0. -1.
<mgrwt>
<rscale>  0 0.40825140E+03</rscale>
<asrwt>0</asrwt>
<pdfrwt beam="1">  1        1 0.32232071E+00 0.60340228E+03</pdfrwt>
<pdfrwt beam="2">  1       -1 0.10915037E-01 0.60340228E+03</pdfrwt>
<totfact> 0.14766694E+02</totfact>
</mgrwt>
</event>
<event>
 6    1  0.1190675E-005  0.1563874E+03  0.7546771E-02  0.1205581E+00
         -2   -1    0    0    0  501 -0.00000000000E+00  0.00000000000E+00  0.34131745582E+02  0.34131745582E+02  0.00000000000E+00 0.  1.
          2   -1    0    0  501    0  0.00000000000E+00 -0.00000000000E+00 -0.55678383067E+03  0.55678383067E+03  0.00000000000E+00 0. -1.
          5    1    1    2  502    0 -0.58331906101E+02 -0.43913227549E+02 -0.21356670451E+03  0.22575165581E+03  0.47000000000E+01 0. -1.
         -5    1    1    2    0  502 -0.12075714419E+02  0.74143297672E+02 -0.10570392702E+03  0.12976309821E+03  0.47000000000E+01 0.  1.
        -11    1    1    2    0    0  0.19737467048E+02  0.31720221331E+02 -0.50252011285E+02  0.62617926227E+02  0.00000000000E+00 0. -1.
         11    1    1    2    0    0  0.50670153472E+02 -0.61950291454E+02 -0.15312944227E+03  0.17278289601E+03  0.00000000000E+00 0.  1.
<mgrwt>
<rscale>  0 0.14591803E+03</rscale>
<asrwt>0</asrwt>
<pdfrwt beam="2">  1        2 0.85659054E-01 0.15638735E+03</pdfrwt>
<pdfrwt beam="1">  1       -2 0.52510376E-02 0.15638735E+03</pdfrwt>
<totfact> 0.96340174E+03</totfact>
</mgrwt>
</event>
<event>
 6    1  0.1190675E-005  0.1537363E+03  0.7546771E-02  0.1204462E+00
         -1   -1    0    0    0  501 -0.00000000000E+00  0.00000000000E+00  0.54152600634E+03  0.54152600634E+03  0.00000000000E+00 0.  1.
          1   -1    0    0  501    0  0.00000000000E+00 -0.00000000000E+00 -0.38982777309E+02  0.38982777309E+02  0.00000000000E+00 0. -1.
          5    1    1    2  502    0  0.23236605162E+02 -0.33494661927E+02  0.23977938468E+00  0.41036321609E+02  0.47000000000E+01 0.  1.
         -5    1    1    2    0  502  0.65163170731E+02  0.18694314317E+02  0.20120229336E+03  0.21236800385E+03  0.47000000000E+01 0.  1.
        -11    1    1    2    0    0 -0.34356730716E+02 -0.29357182572E+02  0.54399896266E+02  0.70721834166E+02  0.00000000000E+00 0.  1.
         11    1    1    2    0    0 -0.54043045177E+02  0.44157530182E+02  0.24670126002E+03  0.25638262402E+03  0.00000000000E+00 0. -1.
<mgrwt>
<rscale>  0 0.14679916E+03</rscale>
<asrwt>0</asrwt>
<pdfrwt beam="2">  1        1 0.59973507E-02 0.15373628E+03</pdfrwt>
<pdfrwt beam="1">  1       -1 0.83311688E-01 0.15373628E+03</pdfrwt>
<totfact> 0.18938500E+03</totfact>
</mgrwt>
</event>
<event>
 6    1  0.1190675E-005  0.3891945E+03  0.7546771E-02  0.1047587E+00
          1   -1    0    0  501    0  0.00000000000E+00  0.00000000000E+00  0.11655937999E+04  0.11655937999E+04  0.00000000000E+00 0. -1.
         -1   -1    0    0    0  501 -0.00000000000E+00 -0.00000000000E+00 -0.32488240976E+02  0.32488240976E+02  0.00000000000E+00 0.  1.
          5    1    1    2  502    0  0.36484333667E+02  0.22017251712E+02  0.42574914515E+02  0.60420024181E+02  0.47000000000E+01 0. -1.
         -5    1    1    2    0  502 -0.52669587256E+01  0.13622747709E+03  0.53608130669E+03  0.55316446357E+03  0.47000000000E+01 0. -1.
        -11    1    1    2    0    0  0.28279078406E+02 -0.62675076634E+02  0.15666433281E+03  0.17108940552E+03  0.00000000000E+00 0. -1.
         11    1    1    2    0    0 -0.59496453348E+02 -0.95569652172E+02  0.39778500489E+03  0.41340814759E+03  0.00000000000E+00 0.  1.
<mgrwt>
<rscale>  0 0.38919451E+03</rscale>
<asrwt>0</asrwt>
<pdfrwt beam="1">  1        1 0.17932209E+00 0.38919451E+03</pdfrwt>
<pdfrwt beam="2">  1       -1 0.49981918E-02 0.38919451E+03</pdfrwt>
<totfact> 0.21333417E+03</totfact>
</mgrwt>
</event>
<event>
 6    1  0.1190675E-005  0.2069146E+03  0.7546771E-02  0.1148001E+00
         -1   -1    0    0    0  501 -0.00000000000E+00  0.00000000000E+00  0.50736950749E+03  0.50736950749E+03  0.00000000000E+00 0.  1.
          1   -1    0    0  501    0  0.00000000000E+00 -0.00000000000E+00 -0.76955904422E+02  0.76955904422E+02  0.00000000000E+00 0. -1.
          5    1    1    2  502    0  0.13506775976E+02  0.35437960240E+02  0.15442020256E+03  0.15907850572E+03  0.47000000000E+01 0. -1.
         -5    1    1    2    0  502  0.44879003746E+02  0.11877195682E+03  0.65743063398E+02  0.14305643323E+03  0.47000000000E+01 0. -1.
        -11    1    1    2    0    0 -0.10756485977E+02 -0.41565613842E+02  0.12747592825E+03  0.13451213525E+03  0.00000000000E+00 0.  1.
         11    1    1    2    0    0 -0.47629293745E+02 -0.11264430322E+03  0.82774408865E+02  0.14767833772E+03  0.00000000000E+00 0. -1.
<mgrwt>
<rscale>  0 0.20207335E+03</rscale>
<asrwt>0</asrwt>
<pdfrwt beam="2">  1        1 0.11839370E-01 0.20691461E+03</pdfrwt>
<pdfrwt beam="1">  1       -1 0.78056845E-01 0.20691461E+03</pdfrwt>
<totfact> 0.87389579E+02</totfact>
</mgrwt>
</event>
<event>
 6    1  0.1190675E-005  0.3957645E+03  0.7546771E-02  0.1045256E+00
          1   -1    0    0  501    0  0.00000000000E+00  0.00000000000E+00  0.41054683128E+03  0.41054683128E+03  0.00000000000E+00 0. -1.
         -1   -1    0    0    0  501 -0.00000000000E+00 -0.00000000000E+00 -0.95378625605E+02  0.95378625605E+02  0.00000000000E+00 0.  1.
          5    1    1    2  502    0 -0.13589634480E+02 -0.88921887699E+01  0.87239524222E+02  0.88862668050E+02  0.47000000000E+01 0. -1.
         -5    1    1    2    0  502  0.14505987132E+03  0.57245408166E+02  0.18794556969E+03  0.24426426302E+03  0.47000000000E+01 0. -1.
        -11    1    1    2    0    0 -0.88856545809E+02 -0.77244746798E+01  0.63405990050E+02  0.10943250347E+03  0.00000000000E+00 0. -1.
         11    1    1    2    0    0 -0.42613691031E+02 -0.40628744716E+02 -0.23422878284E+02  0.63366022343E+02  0.00000000000E+00 0.  1.
<mgrwt>
<rscale>  0 0.39576454E+03</rscale>
<asrwt>0</asrwt>
<pdfrwt beam="1">  1        1 0.63161050E-01 0.39576454E+03</pdfrwt>
<pdfrwt beam="2">  1       -1 0.14673635E-01 0.39576454E+03</pdfrwt>
<totfact> 0.19587211E+03</totfact>
</mgrwt>
</event>
<event>
 6    1  0.1190675E-005  0.2001944E+03  0.7546771E-02  0.1154527E+00
          1   -1    0    0  501    0  0.00000000000E+00  0.00000000000E+00  0.17222338426E+03  0.17222338426E+03  0.00000000000E+00 0. -1.
         -1   -1    0    0    0  501 -0.00000000000E+00 -0.00000000000E+00 -0.20977791274E+03  0.20977791274E+03  0.00000000000E+00 0.  1.
          5    1    1    2  502    0 -0.85292779754E+02 -0.30363123516E+02  0.55288010235E+02  0.10618677707E+03  0.47000000000E+01 0. -1.
         -5    1    1    2    0  502 -0.47050063197E+02  0.91490238486E+00 -0.54186265083E+02  0.71922088519E+02  0.47000000000E+01 0.  1.
        -11    1    1    2    0    0  0.12073962926E+03  0.65924918016E+02  0.14566842909E+02  0.13833418161E+03  0.00000000000E+00 0.  1.
         11    1    1    2    0    0  0.11603213692E+02 -0.36476696886E+02 -0.53223116538E+02  0.65558249807E+02  0.00000000000E+00 0. -1.
<mgrwt>
<rscale>  0 0.19442778E+03</rscale>
<asrwt>0</asrwt>
<pdfrwt beam="1">  1        1 0.26495905E-01 0.20019445E+03</pdfrwt>
<pdfrwt beam="2">  1       -1 0.32273525E-01 0.20019445E+03</pdfrwt>
<totfact> 0.15857803E+03</totfact>
</mgrwt>
</event>
<event>
 6    1  0.1190675E-005  0.1276214E+03  0.7546771E-02  0.1248600E+00
         -1   -1    0    0    0  501 -0.00000000000E+00  0.00000000000E+00  0.13999364804E+02  0.13999364804E+02  0.00000000000E+00 0.  1.
          1   -1    0    0  501    0  0.00000000000E+00 -0.00000000000E+00 -0.12019078736E+04  0.12019078736E+04  0.00000000000E+00 0. -1.
          5    1    1    2  502    0  0.18218792584E+02  0.71690046842E+02 -0.52345295040E+03  0.52867425557E+03  0.47000000000E+01 0. -1.
         -5    1    1    2    0  502 -0.23955643498E+02 -0.46602841628E+02 -0.47363829530E+03  0.47655117509E+03  0.47000000000E+01 0. -1.
        -11    1    1    2    0    0 -0.32798941424E+02  0.11988459686E+02 -0.90457816212E+02  0.96964479259E+02  0.00000000000E+00 0. -1.
         11    1    1    2    0    0  0.38535792339E+02 -0.37075664900E+02 -0.10035944687E+03  0.11371732847E+03  0.00000000000E+00 0.  1.
<mgrwt>
<rscale>  0 0.11672475E+03</rscale>
<asrwt>0</asrwt>
<pdfrwt beam="2">  1        1 0.18490889E+00 0.12762137E+03</pdfrwt>
<pdfrwt beam="1">  1       -1 0.21537485E-02 0.12762137E+03</pdfrwt>
<totfact> 0.68210797E+03</totfact>
</mgrwt>
</event>
<event>
 6    1  0.1190675E-005  0.2631558E+03  0.7546771E-02  0.1105262E+00
          4   -1    0    0  501    0  0.00000000000E+00  0.00000000000E+00  0.15624874286E+03  0.15624874286E+03  0.00000000000E+00 0. -1.
         -4   -1    0    0    0  501 -0.00000000000E+00 -0.00000000000E+00 -0.11080244493E+03  0.11080244493E+03  0.00000000000E+00 0.  1.
          5    1    1    2  502    0 -0.11825329943E+01  0.87095687395E+01  0.11072816638E+03  0.11117585980E+03  0.47000000000E+01 0.  1.
         -5    1    1    2    0  502 -0.41714436424E+02  0.44449779501E+01 -0.23144589185E+02  0.48141604083E+02  0.47000000000E+01 0.  1.
        -11    1    1    2    0    0  0.10273951483E+02 -0.42744020563E+02  0.37610163496E+01  0.44121996974E+02  0.00000000000E+00 0.  1.
         11    1    1    2    0    0  0.32623017935E+02  0.29589473873E+02 -0.45898295610E+02  0.63611726932E+02  0.00000000000E+00 0. -1.
<mgrwt>
<rscale>  0 0.26315579E+03</rscale>
<asrwt>0</asrwt>
<pdfrwt beam="1">  1        4 0.24038268E-01 0.26315579E+03</pdfrwt>
<pdfrwt beam="2">  1       -4 0.17046530E-01 0.26315579E+03</pdfrwt>
<totfact> 0.90292182E+02</totfact>
</mgrwt>
</event>
<event>
 6    1  0.1190675E-005  0.1480532E+03  0.7546771E-02  0.1213390E+00
         -1   -1    0    0    0  501 -0.00000000000E+00  0.00000000000E+00  0.47433243187E+02  0.47433243187E+02  0.00000000000E+00 0.  1.
          1   -1    0    0  501    0  0.00000000000E+00 -0.00000000000E+00 -0.40162145142E+03  0.40162145142E+03  0.00000000000E+00 0. -1.
          5    1    1    2  502    0  0.64493753576E+02  0.18071318845E+02 -0.42429287365E+02  0.79425129786E+02  0.47000000000E+01 0. -1.
         -5    1    1    2    0  502 -0.53116825729E+01  0.34752593937E+02 -0.21198997875E+03  0.21493672987E+03  0.47000000000E+01 0. -1.
        -11    1    1    2    0    0 -0.37914446665E+02 -0.71362064787E+02 -0.43561998803E+02  0.91802490687E+02  0.00000000000E+00 0. -1.
         11    1    1    2    0    0 -0.21267624338E+02  0.18538152005E+02 -0.56206943314E+02  0.62890344263E+02  0.00000000000E+00 0.  1.
<mgrwt>
<rscale>  0 0.13995431E+03</rscale>
<asrwt>0</asrwt>
<pdfrwt beam="2">  1        1 0.61787917E-01 0.14805317E+03</pdfrwt>
<pdfrwt beam="1">  1       -1 0.72974218E-02 0.14805317E+03</pdfrwt>
<totfact> 0.57595583E+03</totfact>
</mgrwt>
</event>
<event>
 6    1  0.1190675E-005  0.4011439E+03  0.7546771E-02  0.1043384E+00
         -2   -1    0    0    0  501 -0.00000000000E+00  0.00000000000E+00  0.17007652769E+03  0.17007652769E+03  0.00000000000E+00 0.  1.
          2   -1    0    0  501    0  0.00000000000E+00 -0.00000000000E+00 -0.23653527309E+03  0.23653527309E+03  0.00000000000E+00 0. -1.
          5    1    1    2  502    0  0.13141287693E+03 -0.15278722750E+02 -0.10793498152E+03  0.17080642209E+03  0.47000000000E+01 0. -1.
         -5    1    1    2    0  502  0.24120270352E+02  0.39506121120E+02  0.17364357059E+02  0.49660164557E+02  0.47000000000E+01 0. -1.
        -11    1    1    2    0    0 -0.66780767375E+02 -0.55296818328E+02 -0.72853646779E+01  0.87008537207E+02  0.00000000000E+00 0.  1.
         11    1    1    2    0    0 -0.88752379909E+02  0.31069419958E+02  0.31397243742E+02  0.99136676920E+02  0.00000000000E+00 0. -1.
<mgrwt>
<rscale>  0 0.40114385E+03</rscale>
<asrwt>0</asrwt>
<pdfrwt beam="2">  1        2 0.36390042E-01 0.40114385E+03</pdfrwt>
<pdfrwt beam="1">  1       -2 0.26165620E-01 0.40114385E+03</pdfrwt>
<totfact> 0.18695924E+03</totfact>
</mgrwt>
</event>
<event>
 6    1  0.1190675E-005  0.1298764E+03  0.7546771E-02  0.1241570E+00
          1   -1    0    0  501    0  0.00000000000E+00  0.00000000000E+00  0.21994807246E+03  0.21994807246E+03  0.00000000000E+00 0. -1.
         -1   -1    0    0    0  501 -0.00000000000E+00 -0.00000000000E+00 -0.63272602966E+02  0.63272602966E+02  0.00000000000E+00 0.  1.
          5    1    1    2  502    0 -0.55663489487E+02  0.59631078418E+02  0.68178031203E+02  0.10641721437E+03  0.47000000000E+01 0. -1.
         -5    1    1    2    0  502  0.28509432147E+02 -0.37136523127E+02  0.57666203619E+02  0.74427079152E+02  0.47000000000E+01 0. -1.
        -11    1    1    2    0    0  0.12967289598E+02  0.29701854335E+02  0.35520055873E+02  0.48083522330E+02  0.00000000000E+00 0.  1.
         11    1    1    2    0    0  0.14186767742E+02 -0.52196409627E+02 -0.46888211982E+01  0.54292859578E+02  0.00000000000E+00 0. -1.
<mgrwt>
<rscale>  0 0.12093066E+03</rscale>
<asrwt>0</asrwt>
<pdfrwt beam="1">  1        1 0.33838164E-01 0.12987643E+03</pdfrwt>
<pdfrwt beam="2">  1       -1 0.97342468E-02 0.12987643E+03</pdfrwt>
<totfact> 0.78049768E+03</totfact>
</mgrwt>
</event>
<event>
 6    1  0.1190675E-005  0.1689678E+03  0.7546771E-02  0.1185513E+00
         -2   -1    0    0    0  501 -0.00000000000E+00  0.00000000000E+00  0.22000711344E+03  0.22000711344E+03  0.00000000000E+00 0.  1.
          2   -1    0    0  501    0  0.00000000000E+00 -0.00000000000E+00 -0.11345988542E+03  0.11345988542E+03  0.00000000000E+00 0. -1.
          5    1    1    2  502    0  0.10358020980E+03 -0.20583603744E+02  0.42239880212E+02  0.11383691004E+03  0.47000000000E+01 0.  1.
         -5    1    1    2    0  502 -0.20235263364E+02 -0.56732264743E+02  0.35551855451E+00  0.60417151039E+02  0.47000000000E+01 0.  1.
        -11    1    1    2    0    0 -0.53222558756E+02  0.16090175480E+02 -0.12240371450E+02  0.56932953558E+02  0.00000000000E+00 0.  1.
         11    1    1    2    0    0 -0.30122387684E+02  0.61225693007E+02  0.76192200708E+02  0.10227998422E+03  0.00000000000E+00 0. -1.
<mgrwt>
<rscale>  0 0.16285293E+03</rscale>
<asrwt>0</asrwt>
<pdfrwt beam="2">  1        2 0.17455367E-01 0.16896778E+03</pdfrwt>
<pdfrwt beam="1">  1       -2 0.33847248E-01 0.16896778E+03</pdfrwt>
<totfact> 0.25985983E+03</totfact>
</mgrwt>
</event>
<event>
 6    1  0.1190675E-005  0.3384548E+03  0.7546771E-02  0.1067456E+00
         -1   -1    0    0    0  501 -0.00000000000E+00  0.00000000000E+00  0.68542354288E+02  0.68542354288E+02  0.00000000000E+00 0.  1.
          1   -1    0    0  501    0  0.00000000000E+00 -0.00000000000E+00 -0.41781339697E+03  0.41781339697E+03  0.00000000000E+00 0. -1.
          5    1    1    2  502    0 -0.33807583354E+02 -0.87951409437E+01 -0.10039260931E+03  0.10640053196E+03  0.47000000000E+01 0.  1.
         -5    1    1    2    0  502  0.98828666586E+02 -0.78199485236E+02 -0.19464418408E+03  0.23192825017E+03  0.47000000000E+01 0.  1.
        -11    1    1    2    0    0 -0.67747446152E+02  0.34818070239E+02 -0.51586365708E+01  0.76345438676E+02  0.00000000000E+00 0.  1.
         11    1    1    2    0    0  0.27263629206E+01  0.52176555940E+02 -0.49075612714E+02  0.71681530451E+02  0.00000000000E+00 0. -1.
<mgrwt>
<rscale>  0 0.33845481E+03</rscale>
<asrwt>0</asrwt>
<pdfrwt beam="2">  1        1 0.64278983E-01 0.33845481E+03</pdfrwt>
<pdfrwt beam="1">  1       -1 0.10544978E-01 0.33845481E+03</pdfrwt>
<totfact> 0.32194676E+03</totfact>
</mgrwt>
</event>
<event>
 6    1  0.1190675E-005  0.1345388E+03  0.7546771E-02  0.1234278E+00
         -1   -1    0    0    0  501 -0.00000000000E+00  0.00000000000E+00  0.15857092981E+02  0.15857092981E+02  0.00000000000E+00 0.  1.
          1   -1    0    0  501    0  0.00000000000E+00 -0.00000000000E+00 -0.92542628968E+03  0.92542628968E+03  0.00000000000E+00 0. -1.
          5    1    1    2  502    0  0.28325941972E+02 -0.50238267475E+02 -0.59455068187E+03  0.59735989639E+03  0.47000000000E+01 0. -1.
         -5    1    1    2    0  502  0.12432418111E+02  0.21729721106E+02 -0.21872243968E+02  0.33574258825E+02  0.47000000000E+01 0.  1.
        -11    1    1    2    0    0 -0.59806955657E+02  0.20809956816E+02 -0.27720162319E+03  0.28434251554E+03  0.00000000000E+00 0. -1.
         11    1    1    2    0    0  0.19048595574E+02  0.76985895528E+01 -0.15944647675E+02  0.26006711902E+02  0.00000000000E+00 0.  1.
<mgrwt>
<rscale>  0 0.12550767E+03</rscale>
<asrwt>0</asrwt>
<pdfrwt beam="2">  1        1 0.14237328E+00 0.13453879E+03</pdfrwt>
<pdfrwt beam="1">  1       -1 0.24395527E-02 0.13453879E+03</pdfrwt>
<totfact> 0.90051508E+03</totfact>
</mgrwt>
</event>
<event>
 6    1  0.1190675E-005  0.2817014E+03  0.7546771E-02  0.1094763E+00
         -3   -1    0    0    0  501 -0.00000000000E+00  0.00000000000E+00  0.37240749531E+03  0.37240749531E+03  0.00000000000E+00 0.  1.
          3   -1    0    0  501    0  0.00000000000E+00 -0.00000000000E+00 -0.53272062595E+02  0.53272062595E+02  0.00000000000E+00 0. -1.
          5    1    1    2  502    0 -0.26141834819E+02 -0.10921525356E+03  0.11635880576E+03  0.16178018672E+03  0.47000000000E+01 0.  1.
         -5    1    1    2    0  502  0.33604820074E+02  0.21488016782E+02  0.33345922783E+02  0.52202101142E+02  0.47000000000E+01 0.  1.
        -11    1    1    2    0    0 -0.37934196037E+02  0.51248873677E+02  0.14468366443E+03  0.15811012945E+03  0.00000000000E+00 0.  1.
         11    1    1    2    0    0  0.30471210782E+02  0.36478363100E+02  0.24747039746E+02  0.53587140595E+02  0.00000000000E+00 0. -1.
<mgrwt>
<rscale>  0 0.28170137E+03</rscale>
<asrwt>0</asrwt>
<pdfrwt beam="2">  1        3 0.81957022E-02 0.28170137E+03</pdfrwt>
<pdfrwt beam="1">  1       -3 0.57293459E-01 0.28170137E+03</pdfrwt>
<totfact> 0.79093181E+02</totfact>
</mgrwt>
</event>
<event>
 6    1  0.1190675E-005  0.1258961E+03  0.7546771E-02  0.1249749E+00
         -2   -1    0    0    0  501 -0.00000000000E+00  0.00000000000E+00  0.13564172953E+02  0.13564172953E+02  0.00000000000E+00 0.  1.
          2   -1    0    0  501    0  0.00000000000E+00 -0.00000000000E+00 -0.92067240862E+03  0.92067240862E+03  0.00000000000E+00 0. -1.
          5    1    1    2  502    0  0.26419803562E+02 -0.48716708818E+02 -0.27352917000E+03  0.27912653148E+03  0.47000000000E+01 0. -1.
         -5    1    1    2    0  502 -0.30417542500E+02  0.63147623329E+02 -0.36092068980E+03  0.36769373608E+03  0.47000000000E+01 0. -1.
        -11    1    1    2    0    0 -0.87910204388E+01  0.31742468957E+02 -0.18118970345E+03  0.18415910244E+03  0.00000000000E+00 0. -1.
         11    1    1    2    0    0  0.12788759377E+02 -0.46173383468E+02 -0.91468672416E+02  0.10325721157E+03  0.00000000000E+00 0.  1.
<mgrwt>
<rscale>  0 0.11605617E+03</rscale>
<asrwt>0</asrwt>
<pdfrwt beam="2">  1        2 0.14164191E+00 0.12589612E+03</pdfrwt>
<pdfrwt beam="1">  1       -2 0.20867959E-02 0.12589612E+03</pdfrwt>
<totfact> 0.20235397E+04</totfact>
</mgrwt>
</event>
<event>
 6    1  0.1190675E-005  0.1830837E+03  0.7546771E-02  0.1167510E+00
          1   -1    0    0  501    0  0.00000000000E+00  0.00000000000E+00  0.40950716473E+03  0.40950716473E+03  0.00000000000E+00 0. -1.
         -1   -1    0    0    0  501 -0.00000000000E+00 -0.00000000000E+00 -0.77085334880E+02  0.77085334880E+02  0.00000000000E+00 0.  1.
          5    1    1    2  502    0 -0.70668464933E+02 -0.23316759186E+02  0.20137987929E+02  0.77235560156E+02  0.47000000000E+01 0. -1.
         -5    1    1    2    0  502 -0.60683279549E+01 -0.86250620762E+02  0.14730517057E+03  0.17087099655E+03  0.47000000000E+01 0. -1.
        -11    1    1    2    0    0  0.78045502122E+02  0.59127694244E+02  0.43881596062E+02  0.10729761927E+03  0.00000000000E+00 0.  1.
         11    1    1    2    0    0 -0.13087092347E+01  0.50439685703E+02  0.12109707530E+03  0.13118832364E+03  0.00000000000E+00 0. -1.
<mgrwt>
<rscale>  0 0.18030355E+03</rscale>
<asrwt>0</asrwt>
<pdfrwt beam="1">  1        1 0.63001101E-01 0.18308373E+03</pdfrwt>
<pdfrwt beam="2">  1       -1 0.11859283E-01 0.18308373E+03</pdfrwt>
<totfact> 0.27008887E+03</totfact>
</mgrwt>
</event>
<event>
 6    1  0.1190675E-005  0.3192311E+03  0.7546771E-02  0.1076004E+00
          2   -1    0    0  501    0  0.00000000000E+00  0.00000000000E+00  0.12546000237E+04  0.12546000237E+04  0.00000000000E+00 0.  1.
         -2   -1    0    0    0  501 -0.00000000000E+00 -0.00000000000E+00 -0.20306973478E+02  0.20306973478E+02  0.00000000000E+00 0. -1.
          5    1    1    2  502    0 -0.10714867243E+02  0.95948581207E+02  0.87473561323E+03  0.88005989663E+03  0.47000000000E+01 0. -1.
         -5    1    1    2    0  502  0.10965848745E+02 -0.35362500187E+02  0.18374918658E+03  0.18750095954E+03  0.47000000000E+01 0. -1.
        -11    1    1    2    0    0 -0.42072418862E+02 -0.24034719639E+02  0.11606150241E+03  0.12576974405E+03  0.00000000000E+00 0.  1.
         11    1    1    2    0    0  0.41821437360E+02 -0.36551361381E+02  0.59746747971E+02  0.81576396922E+02  0.00000000000E+00 0. -1.
<mgrwt>
<rscale>  0 0.31923114E+03</rscale>
<asrwt>0</asrwt>
<pdfrwt beam="1">  1        2 0.19301533E+00 0.31923114E+03</pdfrwt>
<pdfrwt beam="2">  1       -2 0.31241508E-02 0.31923114E+03</pdfrwt>
<totfact> 0.74365725E+03</totfact>
</mgrwt>
</event>
<event>
 6    1  0.1190675E-005  0.1154605E+03  0.7546771E-02  0.1315117E+00
         -2   -1    0    0    0  501 -0.00000000000E+00  0.00000000000E+00  0.63375982110E+01  0.63375982110E+01  0.00000000000E+00 0.  1.
          2   -1    0    0  501    0  0.00000000000E+00 -0.00000000000E+00 -0.10053425880E+04  0.10053425880E+04  0.00000000000E+00 0. -1.
          5    1    1    2  502    0  0.29748098165E+02  0.36034857013E+02 -0.74017481854E+03  0.74166320676E+03  0.47000000000E+01 0. -1.
         -5    1    1    2    0  502 -0.37473322124E+02 -0.19988826824E+02 -0.14997662657E+03  0.15594512364E+03  0.47000000000E+01 0.  1.
        -11    1    1    2    0    0 -0.92785731093E+01 -0.12508060067E+02 -0.36900378932E+02  0.40052234032E+02  0.00000000000E+00 0. -1.
         11    1    1    2    0    0  0.17003797068E+02 -0.35379701217E+01 -0.71953165706E+02  0.74019621739E+02  0.00000000000E+00 0.  1.
<mgrwt>
<rscale>  0 0.85120894E+02</rscale>
<asrwt>0</asrwt>
<pdfrwt beam="2">  1        2 0.15466811E+00 0.11546047E+03</pdfrwt>
<pdfrwt beam="1">  1       -2 0.97501498E-03 0.11546047E+03</pdfrwt>
<totfact> 0.53226691E+04</totfact>
</mgrwt>
</event>
<event>
 6    1  0.1190675E-005  0.1279992E+03  0.7546771E-02  0.1242273E+00
          1   -1    0    0  501    0  0.00000000000E+00  0.00000000000E+00  0.39589088314E+03  0.39589088314E+03  0.00000000000E+00 0. -1.
         -1   -1    0    0    0  501 -0.00000000000E+00 -0.00000000000E+00 -0.33234473941E+02  0.33234473941E+02  0.00000000000E+00 0.  1.
          5    1    1    2  502    0  0.66958233932E+02  0.15094339943E+02  0.68063900590E+02  0.96778245247E+02  0.47000000000E+01 0.  1.
         -5    1    1    2    0  502 -0.41290428968E+02 -0.51293736315E+01  0.15342650222E+03  0.15903770490E+03  0.47000000000E+01 0.  1.
        -11    1    1    2    0    0  0.25810027952E+02  0.23189700933E+02  0.27785960938E+02  0.44451989803E+02  0.00000000000E+00 0.  1.
         11    1    1    2    0    0 -0.51477832915E+02 -0.33154667244E+02  0.11338004546E+03  0.12885741713E+03  0.00000000000E+00 0. -1.
<mgrwt>
<rscale>  0 0.12050091E+03</rscale>
<asrwt>0</asrwt>
<pdfrwt beam="1">  1        1 0.60906286E-01 0.12799923E+03</pdfrwt>
<pdfrwt beam="2">  1       -1 0.51129963E-02 0.12799923E+03</pdfrwt>
<totfact> 0.98757011E+03</totfact>
</mgrwt>
</event>
<event>
 6    1  0.1190675E-005  0.1432184E+03  0.7546771E-02  0.1219976E+00
         -1   -1    0    0    0  501 -0.00000000000E+00  0.00000000000E+00  0.65845302853E+02  0.65845302853E+02  0.00000000000E+00 0.  1.
          1   -1    0    0  501    0  0.00000000000E+00 -0.00000000000E+00 -0.29656527767E+03  0.29656527767E+03  0.00000000000E+00 0. -1.
          5    1    1    2  502    0  0.43084886252E+02 -0.13361946794E+02 -0.52010758440E+02  0.69007666523E+02  0.47000000000E+01 0.  1.
         -5    1    1    2    0  502 -0.88542738195E+02 -0.39743525451E+02 -0.14557448012E+03  0.17502395140E+03  0.47000000000E+01 0.  1.
        -11    1    1    2    0    0  0.49990649035E+02 -0.88230831650E+01 -0.79965874842E+01  0.51389271243E+02  0.00000000000E+00 0.  1.
         11    1    1    2    0    0 -0.45327970915E+01  0.61928555410E+02 -0.25138148778E+02  0.66989691361E+02  0.00000000000E+00 0. -1.
<mgrwt>
<rscale>  0 0.13517260E+03</rscale>
<asrwt>0</asrwt>
<pdfrwt beam="2">  1        1 0.45625427E-01 0.14321838E+03</pdfrwt>
<pdfrwt beam="1">  1       -1 0.10130047E-01 0.14321838E+03</pdfrwt>
<totfact> 0.51065191E+03</totfact>
</mgrwt>
</event>
<event>
 6    1  0.1190675E-005  0.1385286E+03  0.7546771E-02  0.1225819E+00
         -1   -1    0    0    0  501 -0.00000000000E+00  0.00000000000E+00  0.13592632824E+03  0.13592632824E+03  0.00000000000E+00 0.  1.
          1   -1    0    0  501    0  0.00000000000E+00 -0.00000000000E+00 -0.11876137163E+03  0.11876137163E+03  0.00000000000E+00 0. -1.
          5    1    1    2  502    0  0.46208351466E+01  0.89928714438E+02  0.12357969770E+02  0.91012829946E+02  0.47000000000E+01 0.  1.
         -5    1    1    2    0  502  0.19224267513E+02 -0.35174180808E+02 -0.26396846615E+02  0.48225293862E+02  0.47000000000E+01 0.  1.
        -11    1    1    2    0    0  0.13359496331E+02 -0.20107680014E+02  0.54439793182E+02  0.59552380469E+02  0.00000000000E+00 0.  1.
         11    1    1    2    0    0 -0.37204598990E+02 -0.34646853616E+02 -0.23235959726E+02  0.55897195600E+02  0.00000000000E+00 0. -1.
<mgrwt>
<rscale>  0 0.13110961E+03</rscale>
<asrwt>0</asrwt>
<pdfrwt beam="2">  1        1 0.18270980E-01 0.13852857E+03</pdfrwt>
<pdfrwt beam="1">  1       -1 0.20911743E-01 0.13852857E+03</pdfrwt>
<totfact> 0.51442798E+03</totfact>
</mgrwt>
</event>
<event>
 6    1  0.1190675E-005  0.1269080E+03  0.7546771E-02  0.1247550E+00
          4   -1    0    0  501    0  0.00000000000E+00  0.00000000000E+00  0.52622528521E+03  0.52622528521E+03  0.00000000000E+00 0. -1.
         -4   -1    0    0    0  501 -0.00000000000E+00 -0.00000000000E+00 -0.24097415682E+02  0.24097415682E+02  0.00000000000E+00 0.  1.
          5    1    1    2  502    0  0.40833950415E+02  0.25168825790E+02  0.41277723225E+02  0.63457243343E+02  0.47000000000E+01 0. -1.
         -5    1    1    2    0  502 -0.61538117424E+02 -0.17910644730E+02  0.18687658315E+03  0.19761750535E+03  0.47000000000E+01 0. -1.
        -11    1    1    2    0    0  0.13027542155E+02 -0.47833354025E+02  0.12010602068E+03  0.12993537938E+03  0.00000000000E+00 0. -1.
         11    1    1    2    0    0  0.76766248549E+01  0.40575172966E+02  0.15386754247E+03  0.15931257281E+03  0.00000000000E+00 0.  1.
<mgrwt>
<rscale>  0 0.11734027E+03</rscale>
<asrwt>0</asrwt>
<pdfrwt beam="1">  1        4 0.80957728E-01 0.12690799E+03</pdfrwt>
<pdfrwt beam="2">  1       -4 0.37072951E-02 0.12690799E+03</pdfrwt>
<totfact> 0.87181371E+02</totfact>
</mgrwt>
</event>
<event>
 6    1  0.1190675E-005  0.1462764E+03  0.7546771E-02  0.1215019E+00
          1   -1    0    0  501    0  0.00000000000E+00  0.00000000000E+00  0.19054604921E+04  0.19054604921E+04  0.00000000000E+00 0.  1.
         -1   -1    0    0    0  501 -0.00000000000E+00 -0.00000000000E+00 -0.11969473343E+02  0.11969473343E+02  0.00000000000E+00 0. -1.
          5    1    1    2  502    0  0.53233418146E+02 -0.12927893646E+02  0.21241605951E+03  0.21941649797E+03  0.47000000000E+01 0.  1.
         -5    1    1    2    0  502  0.21784609721E+02  0.89893475723E+00  0.12706646166E+04  0.12708603523E+04  0.47000000000E+01 0.  1.
        -11    1    1    2    0    0 -0.69587716914E+02  0.26950925083E+02  0.40259868979E+03  0.40945635632E+03  0.00000000000E+00 0.  1.
         11    1    1    2    0    0 -0.54303109522E+01 -0.14921966195E+02  0.78116528696E+01  0.17696758819E+02  0.00000000000E+00 0. -1.
<mgrwt>
<rscale>  0 0.13875110E+03</rscale>
<asrwt>0</asrwt>
<pdfrwt beam="1">  1        1 0.29314753E+00 0.14627645E+03</pdfrwt>
<pdfrwt beam="2">  1       -1 0.18414590E-02 0.14627645E+03</pdfrwt>
<totfact> 0.29960757E+03</totfact>
</mgrwt>
</event>
<event>
 6    1  0.1190675E-005  0.2216885E+03  0.7546771E-02  0.1135891E+00
          1   -1    0    0  501    0  0.00000000000E+00  0.00000000000E+00  0.25715610664E+03  0.25715610664E+03  0.00000000000E+00 0. -1.
         -1   -1    0    0    0  501 -0.00000000000E+00 -0.00000000000E+00 -0.38010071005E+03  0.38010071005E+03  0.00000000000E+00 0.  1.
          5    1    1    2  502    0  0.12133921218E+03 -0.47175430435E+02  0.56093699684E+02  0.14183553431E+03  0.47000000000E+01 0. -1.
         -5    1    1    2    0  502  0.14684358422E+02 -0.75379607628E+02  0.11424325494E+03  0.13773644009E+03  0.47000000000E+01 0. -1.
        -11    1    1    2    0    0 -0.55854223557E+02  0.10952825826E+03 -0.18967545311E+03  0.22603741097E+03  0.00000000000E+00 0. -1.
         11    1    1    2    0    0 -0.80169347044E+02  0.13026779800E+02 -0.10360610492E+03  0.13164743132E+03  0.00000000000E+00 0.  1.
<mgrwt>
<rscale>  0 0.21732804E+03</rscale>
<asrwt>0</asrwt>
<pdfrwt beam="1">  1        1 0.39562478E-01 0.22168854E+03</pdfrwt>
<pdfrwt beam="2">  1       -1 0.58477032E-01 0.22168854E+03</pdfrwt>
<totfact> 0.32844950E+02</totfact>
</mgrwt>
</event>
<event>
 6    1  0.1190675E-005  0.3228644E+03  0.7546771E-02  0.1074339E+00
          1   -1    0    0  501    0  0.00000000000E+00  0.00000000000E+00  0.41475285663E+02  0.41475285663E+02  0.00000000000E+00 0. -1.
         -1   -1    0    0    0  501 -0.00000000000E+00 -0.00000000000E+00 -0.62833439201E+03  0.62833439201E+03  0.00000000000E+00 0.  1.
          5    1    1    2  502    0 -0.32611876851E+02  0.13268499375E+02 -0.89782331986E+00  0.35531446272E+02  0.47000000000E+01 0.  1.
         -5    1    1    2    0  502 -0.48685030334E+02 -0.86442733727E+02 -0.21530600476E+03  0.23711040483E+03  0.47000000000E+01 0.  1.
        -11    1    1    2    0    0  0.38468774718E+02  0.47351137567E+02 -0.72077185046E+02  0.94430384206E+02  0.00000000000E+00 0. -1.
         11    1    1    2    0    0  0.42828132467E+02  0.25823096786E+02 -0.29857809322E+03  0.30273744236E+03  0.00000000000E+00 0.  1.
<mgrwt>
<rscale>  0 0.32286436E+03</rscale>
<asrwt>0</asrwt>
<pdfrwt beam="1">  1        1 0.63808133E-02 0.32286436E+03</pdfrwt>
<pdfrwt beam="2">  1       -1 0.96666828E-01 0.32286436E+03</pdfrwt>
<totfact> 0.12929235E+03</totfact>
</mgrwt>
</event>
<event>
 6    1  0.1190675E-005  0.1267563E+03  0.7546771E-02  0.1248371E+00
         -1   -1    0    0    0  501 -0.00000000000E+00  0.00000000000E+00  0.37320749165E+02  0.37320749165E+02  0.00000000000E+00 0.  1.
          1   -1    0    0  501    0  0.00000000000E+00 -0.00000000000E+00 -0.37112208615E+03  0.37112208615E+03  0.00000000000E+00 0. -1.
          5    1    1    2  502    0  0.45281351767E+02  0.42536261573E+02 -0.20785424838E+03  0.21699127387E+03  0.47000000000E+01 0. -1.
         -5    1    1    2    0  502 -0.46368995285E+02 -0.21613796992E+02 -0.57653498712E+02  0.77222120262E+02  0.47000000000E+01 0. -1.
        -11    1    1    2    0    0 -0.75180613234E+01  0.32133053649E+02 -0.90122197638E+01  0.34209274882E+02  0.00000000000E+00 0.  1.
         11    1    1    2    0    0  0.86057048415E+01 -0.53055518230E+02 -0.59281370135E+02  0.80020166306E+02  0.00000000000E+00 0. -1.
<mgrwt>
<rscale>  0 0.11685864E+03</rscale>
<asrwt>0</asrwt>
<pdfrwt beam="2">  1        1 0.57095708E-01 0.12675629E+03</pdfrwt>
<pdfrwt beam="1">  1       -1 0.57416534E-02 0.12675629E+03</pdfrwt>
<totfact> 0.90116317E+03</totfact>
</mgrwt>
</event>
<event>
 6    1  0.1190675E-005  0.1372815E+03  0.7546771E-02  0.1228968E+00
          2   -1    0    0  501    0  0.00000000000E+00  0.00000000000E+00  0.12898655450E+04  0.12898655450E+04  0.00000000000E+00 0. -1.
         -2   -1    0    0    0  501 -0.00000000000E+00 -0.00000000000E+00 -0.11705727288E+02  0.11705727288E+02  0.00000000000E+00 0.  1.
          5    1    1    2  502    0 -0.77336647556E+02 -0.18155597616E+02  0.28062807829E+03  0.29169297404E+03  0.47000000000E+01 0. -1.
         -5    1    1    2    0  502  0.25882582877E+02  0.42080143429E+02  0.36585196219E+03  0.36920237649E+03  0.47000000000E+01 0. -1.
        -11    1    1    2    0    0  0.16716353260E+02 -0.56754162890E+02  0.35644371080E+03  0.36132062001E+03  0.00000000000E+00 0. -1.
         11    1    1    2    0    0  0.34737711420E+02  0.32829617077E+02  0.27523606643E+03  0.27935530175E+03  0.00000000000E+00 0.  1.
<mgrwt>
<rscale>  0 0.12898590E+03</rscale>
<asrwt>0</asrwt>
<pdfrwt beam="1">  1        2 0.19844074E+00 0.13728154E+03</pdfrwt>
<pdfrwt beam="2">  1       -2 0.18008821E-02 0.13728154E+03</pdfrwt>
<totfact> 0.15473296E+04</totfact>
</mgrwt>
</event>
<event>
 6    1  0.1190675E-005  0.1269182E+03  0.7546771E-02  0.1238934E+00
         -2   -1    0    0    0  501 -0.00000000000E+00  0.00000000000E+00  0.77718632210E+02  0.77718632210E+02  0.00000000000E+00 0.  1.
          2   -1    0    0  501    0  0.00000000000E+00 -0.00000000000E+00 -0.18781421263E+03  0.18781421263E+03  0.00000000000E+00 0. -1.
          5    1    1    2  502    0 -0.63091110451E+02 -0.19580789921E+02 -0.47204809928E+02  0.81328221622E+02  0.47000000000E+01 0.  1.
         -5    1    1    2    0  502  0.60337852154E+02 -0.22141682443E+01 -0.36584565402E+02  0.70753652692E+02  0.47000000000E+01 0.  1.
        -11    1    1    2    0    0 -0.40451321578E+02  0.41448847894E+02  0.24258826236E+01  0.57967243471E+02  0.00000000000E+00 0. -1.
         11    1    1    2    0    0  0.43204579874E+02 -0.19653889729E+02 -0.28732087715E+02  0.55483727057E+02  0.00000000000E+00 0.  1.
<mgrwt>
<rscale>  0 0.12255892E+03</rscale>
<asrwt>0</asrwt>
<pdfrwt beam="2">  1        2 0.28894494E-01 0.12691823E+03</pdfrwt>
<pdfrwt beam="1">  1       -2 0.11956713E-01 0.12691823E+03</pdfrwt>
<totfact> 0.85534318E+03</totfact>
</mgrwt>
</event>
<event>
 6    1  0.1190675E-005  0.2517883E+03  0.7546771E-02  0.1114674E+00
          1   -1    0    0  501    0  0.00000000000E+00  0.00000000000E+00  0.83306639419E+03  0.83306639419E+03  0.00000000000E+00 0. -1.
         -1   -1    0    0    0  501 -0.00000000000E+00 -0.00000000000E+00 -0.80748662346E+02  0.80748662346E+02  0.00000000000E+00 0.  1.
          5    1    1    2  502    0 -0.60980200624E+02 -0.10770113018E+02  0.53962373529E+02  0.82271550122E+02  0.47000000000E+01 0. -1.
         -5    1    1    2    0  502 -0.11416969779E+03 -0.11997380718E+03  0.48713731450E+03  0.51454182287E+03  0.47000000000E+01 0. -1.
        -11    1    1    2    0    0  0.54474890988E+02  0.96556722222E+02  0.10360312601E+03  0.15173767520E+03  0.00000000000E+00 0.  1.
         11    1    1    2    0    0  0.12067500743E+03  0.34187197972E+02  0.10761491780E+03  0.16526400835E+03  0.00000000000E+00 0. -1.
<mgrwt>
<rscale>  0 0.24784534E+03</rscale>
<asrwt>0</asrwt>
<pdfrwt beam="1">  1        1 0.12816406E+00 0.25178826E+03</pdfrwt>
<pdfrwt beam="2">  1       -1 0.12422872E-01 0.25178826E+03</pdfrwt>
<totfact> 0.94033338E+02</totfact>
</mgrwt>
</event>
<event>
 6    1  0.1190675E-005  0.1269858E+03  0.7546771E-02  0.1248315E+00
          2   -1    0    0  501    0  0.00000000000E+00  0.00000000000E+00  0.33184586018E+03  0.33184586018E+03  0.00000000000E+00 0. -1.
         -2   -1    0    0    0  501 -0.00000000000E+00 -0.00000000000E+00 -0.75159985022E+02  0.75159985022E+02  0.00000000000E+00 0.  1.
          5    1    1    2  502    0  0.27115440568E+02 -0.23724624879E+02  0.21252681439E+02  0.42093602973E+02  0.47000000000E+01 0. -1.
         -5    1    1    2    0  502 -0.48336404291E+02  0.30778252052E+02  0.26335623863E+03  0.26955946877E+03  0.47000000000E+01 0. -1.
        -11    1    1    2    0    0  0.11715256229E+02 -0.28796570691E+02 -0.52610745110E+02  0.61109575462E+02  0.00000000000E+00 0.  1.
         11    1    1    2    0    0  0.95057074936E+01  0.21742943518E+02  0.24687700196E+02  0.34243197993E+02  0.00000000000E+00 0. -1.
<mgrwt>
<rscale>  0 0.11689141E+03</rscale>
<asrwt>0</asrwt>
<pdfrwt beam="1">  1        2 0.51053208E-01 0.12698582E+03</pdfrwt>
<pdfrwt beam="2">  1       -2 0.11563075E-01 0.12698582E+03</pdfrwt>
<totfact> 0.49189010E+03</totfact>
</mgrwt>
</event>
<event>
 6    1  0.1190675E-005  0.1605759E+03  0.7546771E-02  0.1195897E+00
         -1   -1    0    0    0  501 -0.00000000000E+00  0.00000000000E+00  0.80019011657E+02  0.80019011657E+02  0.00000000000E+00 0.  1.
          1   -1    0    0  501    0  0.00000000000E+00 -0.00000000000E+00 -0.27438655036E+03  0.27438655036E+03  0.00000000000E+00 0. -1.
          5    1    1    2  502    0 -0.33793487653E+02 -0.11242709233E+03 -0.64161542626E+02  0.13386801130E+03  0.47000000000E+01 0.  1.
         -5    1    1    2    0  502 -0.27604628257E+02  0.32458474611E+02 -0.29336568881E+02  0.51945089749E+02  0.47000000000E+01 0.  1.
        -11    1    1    2    0    0  0.82392546884E+02  0.52304619396E+02 -0.88448358660E+02  0.13170959396E+03  0.00000000000E+00 0. -1.
         11    1    1    2    0    0 -0.20994430975E+02  0.27663998322E+02 -0.12421068539E+02  0.36882867008E+02  0.00000000000E+00 0.  1.
<mgrwt>
<rscale>  0 0.15378516E+03</rscale>
<asrwt>0</asrwt>
<pdfrwt beam="2">  1        1 0.42213316E-01 0.16057588E+03</pdfrwt>
<pdfrwt beam="1">  1       -1 0.12310617E-01 0.16057588E+03</pdfrwt>
<totfact> 0.41904577E+03</totfact>
</mgrwt>
</event>
<event>
 6    1  0.1190675E-005  0.1507253E+03  0.7546771E-02  0.1208556E+00
         -2   -1    0    0    0  501 -0.00000000000E+00  0.00000000000E+00  0.23006434215E+03  0.23006434215E+03  0.00000000000E+00 0.  1.
          2   -1    0    0  501    0  0.00000000000E+00 -0.00000000000E+00 -0.86409734232E+02  0.86409734232E+02  0.00000000000E+00 0. -1.
          5    1    1    2  502    0  0.37233133331E+02 -0.29027054328E+02 -0.42650865018E+01  0.47635670075E+02  0.47000000000E+01 0. -1.
         -5    1    1    2    0  502 -0.91574595712E+02 -0.35329234968E+02  0.47650196634E+02  0.10920939823E+03  0.47000000000E+01 0. -1.
        -11    1    1    2    0    0  0.96953366136E+01  0.31388563924E+02  0.98791204395E+02  0.10411024716E+03  0.00000000000E+00 0.  1.
         11    1    1    2    0    0  0.44646125767E+02  0.32967725372E+02  0.14782933882E+01  0.55518760915E+02  0.00000000000E+00 0. -1.
<mgrwt>
<rscale>  0 0.14360723E+03</rscale>
<asrwt>0</asrwt>
<pdfrwt beam="2">  1        2 0.13293805E-01 0.15072527E+03</pdfrwt>
<pdfrwt beam="1">  1       -2 0.35394514E-01 0.15072527E+03</pdfrwt>
<totfact> 0.32745309E+03</totfact>
</mgrwt>
</event>
<event>
 6    1  0.1190675E-005  0.1461802E+03  0.7546771E-02  0.1214962E+00
          1   -1    0    0  501    0  0.00000000000E+00  0.00000000000E+00  0.22708152364E+03  0.22708152364E+03  0.00000000000E+00 0. -1.
         -1   -1    0    0    0  501 -0.00000000000E+00 -0.00000000000E+00 -0.99450703907E+02  0.99450703907E+02  0.00000000000E+00 0.  1.
          5    1    1    2  502    0 -0.21508323798E+02  0.50392957207E+02  0.71453372845E+02  0.90165029915E+02  0.47000000000E+01 0. -1.
         -5    1    1    2    0  502  0.88137611620E+02 -0.14321587140E+02  0.74219958702E+02  0.11620687893E+03  0.47000000000E+01 0. -1.
        -11    1    1    2    0    0 -0.36095038456E+02 -0.14663141086E+01  0.34690666829E+02  0.50084371247E+02  0.00000000000E+00 0. -1.
         11    1    1    2    0    0 -0.30534249366E+02 -0.34605055958E+02 -0.52733178644E+02  0.70075947458E+02  0.00000000000E+00 0.  1.
<mgrwt>
<rscale>  0 0.13879335E+03</rscale>
<asrwt>0</asrwt>
<pdfrwt beam="1">  1        1 0.34935619E-01 0.14618018E+03</pdfrwt>
<pdfrwt beam="2">  1       -1 0.15300108E-01 0.14618018E+03</pdfrwt>
<totfact> 0.37559806E+03</totfact>
</mgrwt>
</event>
<event>
 6    1  0.1190675E-005  0.1268446E+03  0.7546771E-02  0.1247043E+00
         -1   -1    0    0    0  501 -0.00000000000E+00  0.00000000000E+00  0.51180897283E+02  0.51180897283E+02  0.00000000000E+00 0.  1.
          1   -1    0    0  501    0  0.00000000000E+00 -0.00000000000E+00 -0.52685164713E+03  0.52685164713E+03  0.00000000000E+00 0. -1.
          5    1    1    2  502    0  0.39607800630E+02  0.41828265475E+02 -0.12058436825E+03  0.13372008648E+03  0.47000000000E+01 0. -1.
         -5    1    1    2    0  502 -0.18809543983E+02 -0.47568843414E+02 -0.34626796724E+03  0.35005740807E+03  0.47000000000E+01 0. -1.
        -11    1    1    2    0    0 -0.34324702774E+02 -0.35934874343E+02 -0.73183181364E+00  0.49699456661E+02  0.00000000000E+00 0. -1.
         11    1    1    2    0    0  0.13526446127E+02  0.41675452281E+02 -0.80865825432E+01  0.44555593195E+02  0.00000000000E+00 0.  1.
<mgrwt>
<rscale>  0 0.11763944E+03</rscale>
<asrwt>0</asrwt>
<pdfrwt beam="2">  1        1 0.81054096E-01 0.12684463E+03</pdfrwt>
<pdfrwt beam="1">  1       -1 0.78739845E-02 0.12684463E+03</pdfrwt>
<totfact> 0.35944338E+03</totfact>
</mgrwt>
</event>
<event>
 6    1  0.1190675E-005  0.2413244E+03  0.7546771E-02  0.1121675E+00
         -1   -1    0    0    0  501 -0.00000000000E+00  0.00000000000E+00  0.52197261726E+02  0.52197261726E+02  0.00000000000E+00 0.  1.
          1   -1    0    0  501    0  0.00000000000E+00 -0.00000000000E+00 -0.11689277706E+04  0.11689277706E+04  0.00000000000E+00 0. -1.
          5    1    1    2  502    0  0.16151621742E+03 -0.71778909033E+02 -0.74869554119E+03  0.76928980474E+03  0.47000000000E+01 0.  1.
         -5    1    1    2    0  502  0.19756128510E+02 -0.26995230563E+02 -0.27511774330E+02  0.43566441370E+02  0.47000000000E+01 0.  1.
        -11    1    1    2    0    0 -0.32948750625E+02  0.64999132602E+02 -0.11911765748E+03  0.13964069511E+03  0.00000000000E+00 0. -1.
         11    1    1    2    0    0 -0.14832359531E+03  0.33775006994E+02 -0.22140553590E+03  0.26862809114E+03  0.00000000000E+00 0.  1.
<mgrwt>
<rscale>  0 0.23719539E+03</rscale>
<asrwt>0</asrwt>
<pdfrwt beam="2">  1        1 0.17983505E+00 0.24132443E+03</pdfrwt>
<pdfrwt beam="1">  1       -1 0.80303477E-02 0.24132443E+03</pdfrwt>
<totfact> 0.10333777E+03</totfact>
</mgrwt>
</event>
<event>
 6    1  0.1190675E-005  0.1682129E+03  0.7546771E-02  0.1185018E+00
         -1   -1    0    0    0  501 -0.00000000000E+00  0.00000000000E+00  0.14057665913E+03  0.14057665913E+03  0.00000000000E+00 0.  1.
          1   -1    0    0  501    0  0.00000000000E+00 -0.00000000000E+00 -0.58053533637E+03  0.58053533637E+03  0.00000000000E+00 0. -1.
          5    1    1    2  502    0 -0.75284113855E+02  0.91757733989E+02 -0.27573864491E+03  0.30023502434E+03  0.47000000000E+01 0. -1.
         -5    1    1    2    0  502 -0.20867609313E+02 -0.21663118739E+02 -0.24780704145E+03  0.24967011760E+03  0.47000000000E+01 0.  1.
        -11    1    1    2    0    0 -0.12695258118E+02  0.36807642918E+01 -0.32703647138E+01  0.13616640181E+02  0.00000000000E+00 0. -1.
         11    1    1    2    0    0  0.10884698129E+03 -0.73775379542E+02  0.86857373834E+02  0.15759021337E+03  0.00000000000E+00 0.  1.
<mgrwt>
<rscale>  0 0.16330271E+03</rscale>
<asrwt>0</asrwt>
<pdfrwt beam="2">  1        1 0.89313127E-01 0.16821290E+03</pdfrwt>
<pdfrwt beam="1">  1       -1 0.21627179E-01 0.16821290E+03</pdfrwt>
<totfact> 0.65767650E+02</totfact>
</mgrwt>
</event>
<event>
 6    1  0.1190675E-005  0.2740058E+03  0.7546771E-02  0.1099009E+00
         -1   -1    0    0    0  501 -0.00000000000E+00  0.00000000000E+00  0.86139495597E+02  0.86139495597E+02  0.00000000000E+00 0.  1.
          1   -1    0    0  501    0  0.00000000000E+00 -0.00000000000E+00 -0.21790001724E+03  0.21790001724E+03  0.00000000000E+00 0. -1.
          5    1    1    2  502    0 -0.84078269128E+02  0.22770859471E+02 -0.12148741719E+03  0.14956252845E+03  0.47000000000E+01 0. -1.
         -5    1    1    2    0  502  0.33105358146E+02 -0.26615618952E+02 -0.24290227055E+02  0.49157512555E+02  0.47000000000E+01 0. -1.
        -11    1    1    2    0    0  0.27321709473E+02 -0.43078457954E+02  0.13507911110E+02  0.52770190551E+02  0.00000000000E+00 0.  1.
         11    1    1    2    0    0  0.23651201509E+02  0.46923217435E+02  0.50921148800E+00  0.52549281285E+02  0.00000000000E+00 0. -1.
<mgrwt>
<rscale>  0 0.27400582E+03</rscale>
<asrwt>0</asrwt>
<pdfrwt beam="2">  1        1 0.33523080E-01 0.27400582E+03</pdfrwt>
<pdfrwt beam="1">  1       -1 0.13252230E-01 0.27400582E+03</pdfrwt>
<totfact> 0.51126593E+03</totfact>
</mgrwt>
</event>
<event>
 6    1  0.1190675E-005  0.1347802E+03  0.7546771E-02  0.1231789E+00
          2   -1    0    0  501    0  0.00000000000E+00  0.00000000000E+00  0.10376612120E+03  0.10376612120E+03  0.00000000000E+00 0. -1.
         -2   -1    0    0    0  501 -0.00000000000E+00 -0.00000000000E+00 -0.20459460069E+03  0.20459460069E+03  0.00000000000E+00 0.  1.
          5    1    1    2  502    0  0.10304254389E+02 -0.43356310482E+02 -0.96504386848E+01  0.45838502200E+02  0.47000000000E+01 0. -1.
         -5    1    1    2    0  502  0.25594596733E+02  0.78739743133E+02  0.41135832507E+02  0.92570390766E+02  0.47000000000E+01 0. -1.
        -11    1    1    2    0    0  0.87203732634E+01  0.24468275450E+02 -0.62739786089E+02  0.67904507744E+02  0.00000000000E+00 0.  1.
         11    1    1    2    0    0 -0.44619224385E+02 -0.59851708101E+02 -0.69574087218E+02  0.10204732118E+03  0.00000000000E+00 0. -1.
<mgrwt>
<rscale>  0 0.12712218E+03</rscale>
<asrwt>0</asrwt>
<pdfrwt beam="1">  1        2 0.15964019E-01 0.13478016E+03</pdfrwt>
<pdfrwt beam="2">  1       -2 0.31476092E-01 0.13478016E+03</pdfrwt>
<totfact> 0.32532158E+03</totfact>
</mgrwt>
</event>
<event>
 6    1  0.1190675E-005  0.2728025E+03  0.7546771E-02  0.1099686E+00
          1   -1    0    0  501    0  0.00000000000E+00  0.00000000000E+00  0.52255746685E+02  0.52255746685E+02  0.00000000000E+00 0. -1.
         -1   -1    0    0    0  501 -0.00000000000E+00 -0.00000000000E+00 -0.35604318119E+03  0.35604318119E+03  0.00000000000E+00 0.  1.
          5    1    1    2  502    0  0.23991471137E+02  0.21290141491E+02 -0.11859715089E+02  0.34519612600E+02  0.47000000000E+01 0. -1.
         -5    1    1    2    0  502 -0.49215198224E+02 -0.97955612745E+02 -0.14297940029E+03  0.18022940024E+03  0.47000000000E+01 0. -1.
        -11    1    1    2    0    0 -0.23061868006E+02  0.60900576039E+02 -0.11592812573E+03  0.13296638768E+03  0.00000000000E+00 0.  1.
         11    1    1    2    0    0  0.48285595093E+02  0.15764895214E+02 -0.33020193399E+02  0.60583527354E+02  0.00000000000E+00 0. -1.
<mgrwt>
<rscale>  0 0.27280251E+03</rscale>
<asrwt>0</asrwt>
<pdfrwt beam="1">  1        1 0.80393457E-02 0.27280251E+03</pdfrwt>
<pdfrwt beam="2">  1       -1 0.54775874E-01 0.27280251E+03</pdfrwt>
<totfact> 0.29778109E+03</totfact>
</mgrwt>
</event>
<event>
 6    1  0.1190675E-005  0.1281624E+03  0.7546771E-02  0.1244377E+00
          1   -1    0    0  501    0  0.00000000000E+00  0.00000000000E+00  0.72554012945E+03  0.72554012945E+03  0.00000000000E+00 0. -1.
         -1   -1    0    0    0  501 -0.00000000000E+00 -0.00000000000E+00 -0.22249230105E+02  0.22249230105E+02  0.00000000000E+00 0.  1.
          5    1    1    2  502    0 -0.37778829546E+02 -0.50292749552E+02  0.36241436080E+03  0.36786255522E+03  0.47000000000E+01 0.  1.
         -5    1    1    2    0  502  0.54126701233E+02  0.27207742495E+02  0.20320537325E+03  0.21209543785E+03  0.47000000000E+01 0.  1.
        -11    1    1    2    0    0 -0.53864288503E+02  0.12374127409E+02  0.64755646948E+02  0.85133861751E+02  0.00000000000E+00 0.  1.
         11    1    1    2    0    0  0.37516416816E+02  0.10710879648E+02  0.72915518346E+02  0.82697504734E+02  0.00000000000E+00 0. -1.
<mgrwt>
<rscale>  0 0.11922752E+03</rscale>
<asrwt>0</asrwt>
<pdfrwt beam="1">  1        1 0.11162154E+00 0.12816236E+03</pdfrwt>
<pdfrwt beam="2">  1       -1 0.34229590E-02 0.12816236E+03</pdfrwt>
<totfact> 0.79518407E+03</totfact>
</mgrwt>
</event>
<event>
 6    1  0.1190675E-005  0.1770363E+03  0.7546771E-02  0.1176353E+00
          2   -1    0    0  501    0  0.00000000000E+00  0.00000000000E+00  0.60037569427E+02  0.60037569427E+02  0.00000000000E+00 0.  1.
         -2   -1    0    0    0  501 -0.00000000000E+00 -0.00000000000E+00 -0.46101418859E+03  0.46101418859E+03  0.00000000000E+00 0. -1.
          5    1    1    2  502    0 -0.43614262895E+02  0.83992407006E+02 -0.22277518239E+03  0.24209047948E+03  0.47000000000E+01 0.  1.
         -5    1    1    2    0  502  0.34831937225E+01  0.34776726291E+02  0.80834419028E+01  0.36179902750E+02  0.47000000000E+01 0.  1.
        -11    1    1    2    0    0  0.56159911170E+02 -0.67545192435E+02 -0.16110142236E+03  0.18349375175E+03  0.00000000000E+00 0. -1.
         11    1    1    2    0    0 -0.16028841998E+02 -0.51223940862E+02 -0.25183456318E+02  0.59287624049E+02  0.00000000000E+00 0.  1.
<mgrwt>
<rscale>  0 0.17144114E+03</rscale>
<asrwt>0</asrwt>
<pdfrwt beam="1">  1        2 0.92365491E-02 0.17703633E+03</pdfrwt>
<pdfrwt beam="2">  1       -2 0.70925260E-01 0.17703633E+03</pdfrwt>
<totfact> 0.12908105E+03</totfact>
</mgrwt>
</event>
<event>
 6    1  0.1190675E-005  0.2387601E+03  0.7546771E-02  0.1157961E+00
         -2   -1    0    0    0  501 -0.00000000000E+00  0.00000000000E+00  0.24084772155E+02  0.24084772155E+02  0.00000000000E+00 0.  1.
          2   -1    0    0  501    0  0.00000000000E+00 -0.00000000000E+00 -0.13705689944E+04  0.13705689944E+04  0.00000000000E+00 0. -1.
          5    1    1    2  502    0 -0.35288393281E+02 -0.31459346669E+02 -0.11685337788E+04  0.11694991421E+04  0.47000000000E+01 0. -1.
         -5    1    1    2    0  502  0.42634406133E+01  0.14191521440E+02  0.64706734070E+01  0.16838521936E+02  0.47000000000E+01 0.  1.
        -11    1    1    2    0    0  0.45711775202E+02 -0.23777933419E+02 -0.11928249807E+03  0.12993564120E+03  0.00000000000E+00 0.  1.
         11    1    1    2    0    0 -0.14686822535E+02  0.41045758648E+02 -0.65138618837E+02  0.78380461361E+02  0.00000000000E+00 0. -1.
<mgrwt>
<rscale>  0 0.19055592E+03</rscale>
<asrwt>0</asrwt>
<pdfrwt beam="2">  1        2 0.21085679E+00 0.23876011E+03</pdfrwt>
<pdfrwt beam="1">  1       -2 0.37053492E-02 0.23876011E+03</pdfrwt>
<totfact> 0.49329366E+03</totfact>
</mgrwt>
</event>
<event>
 6    1  0.1190675E-005  0.2281833E+03  0.7546771E-02  0.1131234E+00
         -1   -1    0    0    0  501 -0.00000000000E+00  0.00000000000E+00  0.56171380936E+02  0.56171380936E+02  0.00000000000E+00 0.  1.
          1   -1    0    0  501    0  0.00000000000E+00 -0.00000000000E+00 -0.11009121389E+04  0.11009121389E+04  0.00000000000E+00 0. -1.
          5    1    1    2  502    0 -0.12522861837E+03 -0.10483374637E+03 -0.50472160646E+03  0.53050759775E+03  0.47000000000E+01 0.  1.
         -5    1    1    2    0  502  0.21164043227E+02 -0.55219264914E+02 -0.30687313502E+03  0.31255446716E+03  0.47000000000E+01 0.  1.
        -11    1    1    2    0    0 -0.33398263194E+01  0.22900786141E+02 -0.20116568826E+00  0.23143917416E+02  0.00000000000E+00 0.  1.
         11    1    1    2    0    0  0.10740440147E+03  0.13715222514E+03 -0.23294485077E+03  0.29087753749E+03  0.00000000000E+00 0. -1.
<mgrwt>
<rscale>  0 0.22359136E+03</rscale>
<asrwt>0</asrwt>
<pdfrwt beam="2">  1        1 0.16937108E+00 0.22818331E+03</pdfrwt>
<pdfrwt beam="1">  1       -1 0.86417517E-02 0.22818331E+03</pdfrwt>
<totfact> 0.10328801E+03</totfact>
</mgrwt>
</event>
<event>
 6    1  0.1190675E-005  0.1729938E+03  0.7546771E-02  0.1181405E+00
          2   -1    0    0  501    0  0.00000000000E+00  0.00000000000E+00  0.13023137801E+04  0.13023137801E+04  0.00000000000E+00 0. -1.
         -2   -1    0    0    0  501 -0.00000000000E+00 -0.00000000000E+00 -0.20029462896E+02  0.20029462896E+02  0.00000000000E+00 0.  1.
          5    1    1    2  502    0  0.21836103195E+02  0.64468873949E+02  0.37063837906E+03  0.37686595647E+03  0.47000000000E+01 0. -1.
         -5    1    1    2    0  502 -0.97714557498E+02  0.27917468326E+02  0.37250473359E+03  0.38614684555E+03  0.47000000000E+01 0. -1.
        -11    1    1    2    0    0  0.80147642664E+02 -0.44204816782E+02  0.43470429481E+03  0.44423589947E+03  0.00000000000E+00 0. -1.
         11    1    1    2    0    0 -0.42691883619E+01 -0.48181525493E+02  0.10443690978E+03  0.11509454154E+03  0.00000000000E+00 0.  1.
<mgrwt>
<rscale>  0 0.16663318E+03</rscale>
<asrwt>0</asrwt>
<pdfrwt beam="1">  1        2 0.20035590E+00 0.17299379E+03</pdfrwt>
<pdfrwt beam="2">  1       -2 0.30814569E-02 0.17299379E+03</pdfrwt>
<totfact> 0.70153829E+03</totfact>
</mgrwt>
</event>
<event>
 6    1  0.1330819E-005  0.2474484E+03  0.7546771E-02  0.1114928E+00
         -1   -1    0    0    0  501 -0.00000000000E+00  0.00000000000E+00  0.29305570554E+02  0.29305570554E+02  0.00000000000E+00 0.  1.
          1   -1    0    0  501    0  0.00000000000E+00 -0.00000000000E+00 -0.52234710281E+03  0.52234710281E+03  0.00000000000E+00 0. -1.
          5    1    1    2  502    0 -0.12716295715E+02  0.10923439449E+01  0.89312891515E+01  0.16271303510E+02  0.47000000000E+01 0.  1.
         -5    1    1    2    0  502  0.10022654029E+02 -0.61210690286E+02 -0.29723873278E+03  0.30367771809E+03  0.47000000000E+01 0.  1.
        -11    1    1    2    0    0  0.40590060993E+02  0.56370956307E+02 -0.14633963670E+03  0.16198928062E+03  0.00000000000E+00 0. -1.
         11    1    1    2    0    0 -0.37896419308E+02  0.37473900351E+01 -0.58394451930E+02  0.69714371148E+02  0.00000000000E+00 0.  1.
<mgrwt>
<rscale>  0 0.24744842E+03</rscale>
<asrwt>0</asrwt>
<pdfrwt beam="2">  1        1 0.80361100E-01 0.24744842E+03</pdfrwt>
<pdfrwt beam="1">  1       -1 0.45085489E-02 0.24744842E+03</pdfrwt>
<totfact> 0.86644269E+03</totfact>
</mgrwt>
</event>
<event>
 6    1  0.1190675E-005  0.1420707E+03  0.7546771E-02  0.1221707E+00
          2   -1    0    0  501    0  0.00000000000E+00  0.00000000000E+00  0.51040468942E+03  0.51040468942E+03  0.00000000000E+00 0. -1.
         -2   -1    0    0    0  501 -0.00000000000E+00 -0.00000000000E+00 -0.37871785832E+02  0.37871785832E+02  0.00000000000E+00 0.  1.
          5    1    1    2  502    0  0.31005129799E+02  0.11621511240E+02  0.28732672868E+03  0.28926651484E+03  0.47000000000E+01 0. -1.
         -5    1    1    2    0  502 -0.38975362434E+02  0.55440174218E+02  0.82247665580E+02  0.10667455314E+03  0.47000000000E+01 0. -1.
        -11    1    1    2    0    0  0.42565375821E+02 -0.19168994355E+02  0.20718616660E+02  0.51073698120E+02  0.00000000000E+00 0.  1.
         11    1    1    2    0    0 -0.34595143186E+02 -0.47892691103E+02  0.82239892668E+02  0.10126170915E+03  0.00000000000E+00 0. -1.
<mgrwt>
<rscale>  0 0.13395195E+03</rscale>
<asrwt>0</asrwt>
<pdfrwt beam="1">  1        2 0.78523793E-01 0.14207074E+03</pdfrwt>
<pdfrwt beam="2">  1       -2 0.58264290E-02 0.14207074E+03</pdfrwt>
<totfact> 0.90136609E+03</totfact>
</mgrwt>
</event>
<event>
 6    1  0.1190675E-005  0.4698938E+03  0.7546771E-02  0.1075674E+00
         -1   -1    0    0    0  501 -0.00000000000E+00  0.00000000000E+00  0.34230148062E+03  0.34230148062E+03  0.00000000000E+00 0.  1.
          1   -1    0    0  501    0  0.00000000000E+00 -0.00000000000E+00 -0.25350887051E+03  0.25350887051E+03  0.00000000000E+00 0. -1.
          5    1    1    2  502    0 -0.17735644373E+03 -0.10472452153E+03 -0.86083505501E+02  0.22328231784E+03  0.47000000000E+01 0. -1.
         -5    1    1    2    0  502  0.20047649293E+03  0.10344486284E+03  0.10002768511E+03  0.24681833735E+03  0.47000000000E+01 0.  1.
        -11    1    1    2    0    0 -0.27230579110E+02  0.36915838203E+02  0.77156482890E+02  0.89763056993E+02  0.00000000000E+00 0.  1.
         11    1    1    2    0    0  0.41105299116E+01 -0.35636179511E+02 -0.23080523834E+01  0.35946638954E+02  0.00000000000E+00 0. -1.
<mgrwt>
<rscale>  0 0.31994713E+03</rscale>
<asrwt>0</asrwt>
<pdfrwt beam="2">  1        1 0.39001365E-01 0.46989380E+03</pdfrwt>
<pdfrwt beam="1">  1       -1 0.52661766E-01 0.46989380E+03</pdfrwt>
<totfact> 0.40352249E+02</totfact>
</mgrwt>
</event>
<event>
 6    1  0.1190675E-005  0.1340867E+03  0.7546771E-02  0.1233239E+00
          1   -1    0    0  501    0  0.00000000000E+00  0.00000000000E+00  0.66613537569E+02  0.66613537569E+02  0.00000000000E+00 0. -1.
         -1   -1    0    0    0  501 -0.00000000000E+00 -0.00000000000E+00 -0.21486587976E+03  0.21486587976E+03  0.00000000000E+00 0.  1.
          5    1    1    2  502    0  0.70943749306E+02 -0.23706689359E+02 -0.67866449358E+02  0.10110869218E+03  0.47000000000E+01 0.  1.
         -5    1    1    2    0  502 -0.49747826227E+02 -0.19948326901E+02 -0.12566228986E+02  0.55251987036E+02  0.47000000000E+01 0.  1.
        -11    1    1    2    0    0 -0.52335159717E+02  0.43915497251E+01 -0.21077967174E+02  0.56590947614E+02  0.00000000000E+00 0.  1.
         11    1    1    2    0    0  0.31139236639E+02  0.39263466535E+02 -0.46741696670E+02  0.68527790497E+02  0.00000000000E+00 0. -1.
<mgrwt>
<rscale>  0 0.12617842E+03</rscale>
<asrwt>0</asrwt>
<pdfrwt beam="1">  1        1 0.10248237E-01 0.13408671E+03</pdfrwt>
<pdfrwt beam="2">  1       -1 0.33056289E-01 0.13408671E+03</pdfrwt>
<totfact> 0.51092546E+03</totfact>
</mgrwt>
</event>
<event>
 6    1  0.1190675E-005  0.1273303E+03  0.7546771E-02  0.1245866E+00
          3   -1    0    0  501    0  0.00000000000E+00  0.00000000000E+00  0.16728225030E+03  0.16728225030E+03  0.00000000000E+00 0. -1.
         -3   -1    0    0    0  501 -0.00000000000E+00 -0.00000000000E+00 -0.12208921110E+03  0.12208921110E+03  0.00000000000E+00 0.  1.
          5    1    1    2  502    0 -0.31089652708E+02  0.43086031423E+02  0.12784922325E+03  0.13852973145E+03  0.47000000000E+01 0.  1.
         -5    1    1    2    0  502  0.12888179565E+02 -0.27089483662E+02 -0.12918605589E+02  0.32998873737E+02  0.47000000000E+01 0.  1.
        -11    1    1    2    0    0  0.27506131007E+02  0.22524294550E+02 -0.69667188415E+02  0.78214117840E+02  0.00000000000E+00 0.  1.
         11    1    1    2    0    0 -0.93046578632E+01 -0.38520842311E+02 -0.70390051261E-01  0.39628738374E+02  0.00000000000E+00 0. -1.
<mgrwt>
<rscale>  0 0.11833725E+03</rscale>
<asrwt>0</asrwt>
<pdfrwt beam="1">  1        3 0.25735731E-01 0.12733034E+03</pdfrwt>
<pdfrwt beam="2">  1       -3 0.18782956E-01 0.12733034E+03</pdfrwt>
<totfact> 0.81722151E+02</totfact>
</mgrwt>
</event>
<event>
 6    1  0.1190675E-005  0.1250426E+03  0.7546771E-02  0.1251043E+00
          1   -1    0    0  501    0  0.00000000000E+00  0.00000000000E+00  0.10461218111E+03  0.10461218111E+03  0.00000000000E+00 0. -1.
         -1   -1    0    0    0  501 -0.00000000000E+00 -0.00000000000E+00 -0.16152232120E+03  0.16152232120E+03  0.00000000000E+00 0.  1.
          5    1    1    2  502    0  0.39104360135E+01 -0.13926066626E+02 -0.42910988635E+02  0.45526583302E+02  0.47000000000E+01 0.  1.
         -5    1    1    2    0  502 -0.23698542046E+00  0.14368101220E+02  0.85113349120E+02  0.86445767353E+02  0.47000000000E+01 0.  1.
        -11    1    1    2    0    0 -0.31016307646E+02  0.23249741226E+02 -0.13210343897E+02  0.40952106087E+02  0.00000000000E+00 0. -1.
         11    1    1    2    0    0  0.27342857053E+02 -0.23691775820E+02 -0.85902156674E+02  0.93210045567E+02  0.00000000000E+00 0.  1.
<mgrwt>
<rscale>  0 0.11530882E+03</rscale>
<asrwt>0</asrwt>
<pdfrwt beam="1">  1        1 0.16094182E-01 0.12504264E+03</pdfrwt>
<pdfrwt beam="2">  1       -1 0.24849588E-01 0.12504264E+03</pdfrwt>
<totfact> 0.45433897E+03</totfact>
</mgrwt>
</event>
<event>
 6    1  0.1190675E-005  0.4655344E+03  0.7546771E-02  0.1023188E+00
         -2   -1    0    0    0  501 -0.00000000000E+00  0.00000000000E+00  0.29089614078E+03  0.29089614078E+03  0.00000000000E+00 0.  1.
          2   -1    0    0  501    0  0.00000000000E+00 -0.00000000000E+00 -0.18625397275E+03  0.18625397275E+03  0.00000000000E+00 0. -1.
          5    1    1    2  502    0  0.51507033446E+02  0.90190365807E+02 -0.14415017393E+03  0.17773193079E+03  0.47000000000E+01 0. -1.
         -5    1    1    2    0  502 -0.16477372450E+02  0.14417818102E+02  0.17255688054E+02  0.28270586337E+02  0.47000000000E+01 0.  1.
        -11    1    1    2    0    0  0.49005762357E+01 -0.96265781523E+02  0.18930248004E+03  0.21243009506E+03  0.00000000000E+00 0.  1.
         11    1    1    2    0    0 -0.39930237232E+02 -0.83424023859E+01  0.42234173857E+02  0.58717501346E+02  0.00000000000E+00 0. -1.
<mgrwt>
<rscale>  0 0.46553437E+03</rscale>
<asrwt>0</asrwt>
<pdfrwt beam="2">  1        2 0.28654457E-01 0.46553437E+03</pdfrwt>
<pdfrwt beam="1">  1       -2 0.44753252E-01 0.46553437E+03</pdfrwt>
<totfact> 0.88988684E+02</totfact>
</mgrwt>
</event>
<event>
 6    1  0.1190675E-005  0.1411262E+03  0.7546771E-02  0.1222658E+00
          1   -1    0    0  501    0  0.00000000000E+00  0.00000000000E+00  0.65033899299E+02  0.65033899299E+02  0.00000000000E+00 0. -1.
         -1   -1    0    0    0  501 -0.00000000000E+00 -0.00000000000E+00 -0.31823827417E+03  0.31823827417E+03  0.00000000000E+00 0.  1.
          5    1    1    2  502    0  0.71205159069E+02 -0.21797538939E+02 -0.11460703740E+02  0.75490033197E+02  0.47000000000E+01 0.  1.
         -5    1    1    2    0  502 -0.18701559603E+02  0.60988903404E+02 -0.36020378463E+02  0.73409483956E+02  0.47000000000E+01 0.  1.
        -11    1    1    2    0    0 -0.85537113673E+01 -0.61644399480E+02 -0.12756048670E+03  0.14193264505E+03  0.00000000000E+00 0. -1.
         11    1    1    2    0    0 -0.43949888098E+02  0.22453035016E+02 -0.78162805973E+02  0.92440011266E+02  0.00000000000E+00 0.  1.
<mgrwt>
<rscale>  0 0.13328725E+03</rscale>
<asrwt>0</asrwt>
<pdfrwt beam="1">  1        1 0.10005215E-01 0.14112623E+03</pdfrwt>
<pdfrwt beam="2">  1       -1 0.48959735E-01 0.14112623E+03</pdfrwt>
<totfact> 0.26530548E+03</totfact>
</mgrwt>
</event>
<event>
 6    1  0.1190675E-005  0.1304606E+03  0.7546771E-02  0.1241267E+00
         -1   -1    0    0    0  501 -0.00000000000E+00  0.00000000000E+00  0.45973542110E+02  0.45973542110E+02  0.00000000000E+00 0.  1.
          1   -1    0    0  501    0  0.00000000000E+00 -0.00000000000E+00 -0.99113386749E+03  0.99113386749E+03  0.00000000000E+00 0. -1.
          5    1    1    2  502    0 -0.30348725039E+02 -0.32018505977E+02 -0.55343096937E+03  0.55520640999E+03  0.47000000000E+01 0. -1.
         -5    1    1    2    0  502  0.61625721733E+02  0.41881209420E+02 -0.37646368393E+03  0.38379520658E+03  0.47000000000E+01 0.  1.
        -11    1    1    2    0    0 -0.61404248284E+02 -0.14330255842E+02  0.20183572913E+01  0.63086541401E+02  0.00000000000E+00 0.  1.
         11    1    1    2    0    0  0.30127251591E+02  0.44675523985E+01 -0.17284029375E+02  0.35019251624E+02  0.00000000000E+00 0. -1.
<mgrwt>
<rscale>  0 0.12111630E+03</rscale>
<asrwt>0</asrwt>
<pdfrwt beam="2">  1        1 0.15248214E+00 0.13046061E+03</pdfrwt>
<pdfrwt beam="1">  1       -1 0.70728525E-02 0.13046061E+03</pdfrwt>
<totfact> 0.16798190E+03</totfact>
</mgrwt>
</event>
<event>
 6    1  0.1190675E-005  0.1532046E+03  0.7546771E-02  0.1203667E+00
          2   -1    0    0  501    0  0.00000000000E+00  0.00000000000E+00  0.45909998933E+03  0.45909998933E+03  0.00000000000E+00 0. -1.
         -2   -1    0    0    0  501 -0.00000000000E+00 -0.00000000000E+00 -0.53221032227E+02  0.53221032227E+02  0.00000000000E+00 0.  1.
          5    1    1    2  502    0 -0.67161264452E+02 -0.18100306503E+02  0.76725601701E+02  0.10366853184E+03  0.47000000000E+01 0. -1.
         -5    1    1    2    0  502  0.21471082746E+02 -0.57785724100E+02  0.24488605060E+03  0.25256972321E+03  0.47000000000E+01 0. -1.
        -11    1    1    2    0    0  0.28395394743E+02  0.40178341112E+02  0.10152370782E+03  0.11281693484E+03  0.00000000000E+00 0. -1.
         11    1    1    2    0    0  0.17294786963E+02  0.35707689490E+02 -0.17256403014E+02  0.43265831667E+02  0.00000000000E+00 0.  1.
<mgrwt>
<rscale>  0 0.14743024E+03</rscale>
<asrwt>0</asrwt>
<pdfrwt beam="1">  1        2 0.70630765E-01 0.15320457E+03</pdfrwt>
<pdfrwt beam="2">  1       -2 0.81878514E-02 0.15320457E+03</pdfrwt>
<totfact> 0.60367997E+03</totfact>
</mgrwt>
</event>
<event>
 6    1  0.1190675E-005  0.1575168E+03  0.7546771E-02  0.1200982E+00
         -1   -1    0    0    0  501 -0.00000000000E+00  0.00000000000E+00  0.10897576628E+02  0.10897576628E+02  0.00000000000E+00 0.  1.
          1   -1    0    0  501    0  0.00000000000E+00 -0.00000000000E+00 -0.21190123524E+04  0.21190123524E+04  0.00000000000E+00 0. -1.
          5    1    1    2  502    0 -0.18704447924E+02 -0.52980317114E+02 -0.12023879171E+04  0.12037090859E+04  0.47000000000E+01 0. -1.
         -5    1    1    2    0  502 -0.65066697203E+02  0.64070065078E+01 -0.30969822125E+03  0.31655931997E+03  0.47000000000E+01 0. -1.
        -11    1    1    2    0    0 -0.16653642711E+02  0.14833562549E+02 -0.12589033713E+03  0.12785051965E+03  0.00000000000E+00 0.  1.
         11    1    1    2    0    0  0.10042478784E+03  0.31739748057E+02 -0.47013830038E+03  0.48179100355E+03  0.00000000000E+00 0. -1.
<mgrwt>
<rscale>  0 0.14958652E+03</rscale>
<asrwt>0</asrwt>
<pdfrwt beam="2">  1        1 0.32600181E+00 0.15751678E+03</pdfrwt>
<pdfrwt beam="1">  1       -1 0.16765507E-02 0.15751678E+03</pdfrwt>
<totfact> 0.25070944E+03</totfact>
</mgrwt>
</event>
<event>
 6    1  0.1190675E-005  0.1442559E+03  0.7546771E-02  0.1218548E+00
         -4   -1    0    0    0  501 -0.00000000000E+00  0.00000000000E+00  0.60854668121E+02  0.60854668121E+02  0.00000000000E+00 0.  1.
          4   -1    0    0  501    0  0.00000000000E+00 -0.00000000000E+00 -0.27880571386E+03  0.27880571386E+03  0.00000000000E+00 0. -1.
          5    1    1    2  502    0  0.21638309813E+02  0.20799898301E+01 -0.14752006729E+03  0.14918714107E+03  0.47000000000E+01 0. -1.
         -5    1    1    2    0  502  0.49368014911E+02 -0.14001127028E+02  0.72326369129E+01  0.52034925685E+02  0.47000000000E+01 0. -1.
        -11    1    1    2    0    0 -0.52396741626E+02  0.42025359862E+02 -0.78143211198E+02  0.10304324753E+03  0.00000000000E+00 0. -1.
         11    1    1    2    0    0 -0.18609583098E+02 -0.30104222664E+02  0.47959582870E+00  0.35395067699E+02  0.00000000000E+00 0.  1.
<mgrwt>
<rscale>  0 0.13619081E+03</rscale>
<asrwt>0</asrwt>
<pdfrwt beam="2">  1        4 0.42893187E-01 0.14425587E+03</pdfrwt>
<pdfrwt beam="1">  1       -4 0.93622566E-02 0.14425587E+03</pdfrwt>
<totfact> 0.75200647E+02</totfact>
</mgrwt>
</event>
<event>
 6    1  0.1190675E-005  0.1302903E+03  0.7546771E-02  0.1241018E+00
         -4   -1    0    0    0  501 -0.00000000000E+00  0.00000000000E+00  0.10916451291E+03  0.10916451291E+03  0.00000000000E+00 0. -1.
          4   -1    0    0  501    0  0.00000000000E+00 -0.00000000000E+00 -0.12340000701E+03  0.12340000701E+03  0.00000000000E+00 0.  1.
          5    1    1    2  502    0  0.34715350896E+02 -0.52108153874E+02 -0.13740758702E+02  0.64275296481E+02  0.47000000000E+01 0.  1.
         -5    1    1    2    0  502  0.99408933269E+00  0.60764948617E+02  0.27069753618E+02  0.66695042956E+02  0.47000000000E+01 0.  1.
        -11    1    1    2    0    0  0.17630040465E+02 -0.17681901676E+02 -0.38993049096E+02  0.46302546922E+02  0.00000000000E+00 0. -1.
         11    1    1    2    0    0 -0.53339480694E+02  0.90251069334E+01  0.11428560085E+02  0.55291633557E+02  0.00000000000E+00 0.  1.
<mgrwt>
<rscale>  0 0.12126914E+03</rscale>
<asrwt>0</asrwt>
<pdfrwt beam="2">  1        4 0.18984616E-01 0.13029032E+03</pdfrwt>
<pdfrwt beam="1">  1       -4 0.16794541E-01 0.13029032E+03</pdfrwt>
<totfact> 0.12500108E+03</totfact>
</mgrwt>
</event>
<event>
 6    1  0.1190675E-005  0.2437058E+03  0.7546771E-02  0.1141424E+00
          2   -1    0    0  501    0  0.00000000000E+00  0.00000000000E+00  0.65858980542E+03  0.65858980542E+03  0.00000000000E+00 0. -1.
         -2   -1    0    0    0  501 -0.00000000000E+00 -0.00000000000E+00 -0.55680258561E+02  0.55680258561E+02  0.00000000000E+00 0.  1.
          5    1    1    2  502    0 -0.31577224831E+02 -0.61012559369E+02  0.25028600488E+03  0.25958587744E+03  0.47000000000E+01 0. -1.
         -5    1    1    2    0  502 -0.12726494103E+02  0.15161183956E+03  0.18797985062E+03  0.24188143332E+03  0.47000000000E+01 0.  1.
        -11    1    1    2    0    0  0.30523260986E+02  0.10102831415E+02  0.51474348254E+02  0.60690569218E+02  0.00000000000E+00 0.  1.
         11    1    1    2    0    0  0.13780457948E+02 -0.10070211160E+03  0.11316934311E+03  0.15211218400E+03  0.00000000000E+00 0. -1.
<mgrwt>
<rscale>  0 0.21017983E+03</rscale>
<asrwt>0</asrwt>
<pdfrwt beam="1">  1        2 0.10132150E+00 0.24370577E+03</pdfrwt>
<pdfrwt beam="2">  1       -2 0.85661941E-02 0.24370577E+03</pdfrwt>
<totfact> 0.38089884E+03</totfact>
</mgrwt>
</event>
<event>
 6    1  0.1190675E-005  0.1320811E+03  0.7546771E-02  0.1237458E+00
          1   -1    0    0  501    0  0.00000000000E+00  0.00000000000E+00  0.63081908920E+02  0.63081908920E+02  0.00000000000E+00 0. -1.
         -1   -1    0    0    0  501 -0.00000000000E+00 -0.00000000000E+00 -0.22668094507E+03  0.22668094507E+03  0.00000000000E+00 0.  1.
          5    1    1    2  502    0  0.27929339521E+02 -0.32149258334E+02 -0.23272131219E+01  0.42908376087E+02  0.47000000000E+01 0.  1.
         -5    1    1    2    0  502 -0.64535190373E+02  0.54142122486E+02 -0.57434699781E+02  0.10206368092E+03  0.47000000000E+01 0.  1.
        -11    1    1    2    0    0  0.51065983212E+02  0.67501058493E+01 -0.99870606085E+02  0.11237186716E+03  0.00000000000E+00 0.  1.
         11    1    1    2    0    0 -0.14460132361E+02 -0.28742970001E+02 -0.39665171647E+01  0.32418929822E+02  0.00000000000E+00 0. -1.
<mgrwt>
<rscale>  0 0.12348403E+03</rscale>
<asrwt>0</asrwt>
<pdfrwt beam="1">  1        1 0.97049090E-02 0.13208108E+03</pdfrwt>
<pdfrwt beam="2">  1       -1 0.34873992E-01 0.13208108E+03</pdfrwt>
<totfact> 0.50070461E+03</totfact>
</mgrwt>
</event>
<event>
 6    1  0.1190675E-005  0.1775446E+03  0.7546771E-02  0.1174448E+00
          2   -1    0    0  501    0  0.00000000000E+00  0.00000000000E+00  0.19971466777E+04  0.19971466777E+04  0.00000000000E+00 0.  1.
         -2   -1    0    0    0  501 -0.00000000000E+00 -0.00000000000E+00 -0.16220208659E+02  0.16220208659E+02  0.00000000000E+00 0. -1.
          5    1    1    2  502    0  0.32624098022E+02  0.60115952250E+02  0.53158287069E+03  0.53598572546E+03  0.47000000000E+01 0. -1.
         -5    1    1    2    0  502 -0.97823712573E+02  0.47814168970E+02  0.84169671837E+03  0.84872323475E+03  0.47000000000E+01 0. -1.
        -11    1    1    2    0    0  0.20979635599E+02  0.17433712937E+02  0.13168935278E+03  0.13448481361E+03  0.00000000000E+00 0.  1.
         11    1    1    2    0    0  0.44219978952E+02 -0.12536383416E+03  0.47595752724E+03  0.49417311257E+03  0.00000000000E+00 0. -1.
<mgrwt>
<rscale>  0 0.17330145E+03</rscale>
<asrwt>0</asrwt>
<pdfrwt beam="1">  1        2 0.30725314E+00 0.17754457E+03</pdfrwt>
<pdfrwt beam="2">  1       -2 0.24954183E-02 0.17754457E+03</pdfrwt>
<totfact> 0.41476253E+03</totfact>
</mgrwt>
</event>
<event>
 6    1  0.1190675E-005  0.7342546E+03  0.7546771E-02  0.9660381E-01
          1   -1    0    0  501    0  0.00000000000E+00  0.00000000000E+00  0.66197053147E+03  0.66197053147E+03  0.00000000000E+00 0. -1.
         -1   -1    0    0    0  501 -0.00000000000E+00 -0.00000000000E+00 -0.20360795905E+03  0.20360795905E+03  0.00000000000E+00 0.  1.
          5    1    1    2  502    0 -0.22495047641E+03 -0.20359448814E+03  0.32679551767E+03  0.44594936126E+03  0.47000000000E+01 0. -1.
         -5    1    1    2    0  502  0.25934397086E+02  0.80039500131E+01  0.17372589473E+01  0.27600076751E+02  0.47000000000E+01 0.  1.
        -11    1    1    2    0    0  0.15805693029E+03  0.40246368500E+02  0.16010208275E+03  0.22854855127E+03  0.00000000000E+00 0.  1.
         11    1    1    2    0    0  0.40959149037E+02  0.15534416963E+03 -0.30272286948E+02  0.16348050124E+03  0.00000000000E+00 0. -1.
<mgrwt>
<rscale>  0 0.73425464E+03</rscale>
<asrwt>0</asrwt>
<pdfrwt beam="1">  1        1 0.10184162E+00 0.73425464E+03</pdfrwt>
<pdfrwt beam="2">  1       -1 0.31324302E-01 0.73425464E+03</pdfrwt>
<totfact> 0.28339659E+02</totfact>
</mgrwt>
</event>
<event>
 6    1  0.1190675E-005  0.2926878E+03  0.7546771E-02  0.1088954E+00
          2   -1    0    0  501    0  0.00000000000E+00  0.00000000000E+00  0.11976667826E+03  0.11976667826E+03  0.00000000000E+00 0. -1.
         -2   -1    0    0    0  501 -0.00000000000E+00 -0.00000000000E+00 -0.17881880141E+03  0.17881880141E+03  0.00000000000E+00 0.  1.
          5    1    1    2  502    0  0.24582000829E+02  0.23001949712E+02 -0.67087428062E+01  0.34647679364E+02  0.47000000000E+01 0. -1.
         -5    1    1    2    0  502 -0.12184990823E+03 -0.24487869756E+02 -0.30609905014E+02  0.12808634660E+03  0.47000000000E+01 0. -1.
        -11    1    1    2    0    0  0.63357256967E+02  0.41406614878E+02 -0.32510979344E+02  0.82374835623E+02  0.00000000000E+00 0.  1.
         11    1    1    2    0    0  0.33910650430E+02 -0.39920694834E+02  0.10777504017E+02  0.53476618081E+02  0.00000000000E+00 0. -1.
<mgrwt>
<rscale>  0 0.29268778E+03</rscale>
<asrwt>0</asrwt>
<pdfrwt beam="1">  1        2 0.18425643E-01 0.29268778E+03</pdfrwt>
<pdfrwt beam="2">  1       -2 0.27510585E-01 0.29268778E+03</pdfrwt>
<totfact> 0.36480180E+03</totfact>
</mgrwt>
</event>
<event>
 6    1  0.1190675E-005  0.1697042E+03  0.7546771E-02  0.1184659E+00
         -1   -1    0    0    0  501 -0.00000000000E+00  0.00000000000E+00  0.28370659741E+02  0.28370659741E+02  0.00000000000E+00 0.  1.
          1   -1    0    0  501    0  0.00000000000E+00 -0.00000000000E+00 -0.88740634976E+03  0.88740634976E+03  0.00000000000E+00 0. -1.
          5    1    1    2  502    0  0.69271121696E+02 -0.88611467598E+02 -0.42805028486E+03  0.44260548670E+03  0.47000000000E+01 0.  1.
         -5    1    1    2    0  502 -0.39162002723E+02 -0.22151139086E+02 -0.68018464219E+02  0.81688046217E+02  0.47000000000E+01 0.  1.
        -11    1    1    2    0    0 -0.15736377797E+02  0.12518735247E+03 -0.31824036874E+03  0.34233965458E+03  0.00000000000E+00 0.  1.
         11    1    1    2    0    0 -0.14372741175E+02 -0.14424745784E+02 -0.44726572206E+02  0.49143822003E+02  0.00000000000E+00 0. -1.
<mgrwt>
<rscale>  0 0.16362902E+03</rscale>
<asrwt>0</asrwt>
<pdfrwt beam="2">  1        1 0.13652403E+00 0.16970417E+03</pdfrwt>
<pdfrwt beam="1">  1       -1 0.43647176E-02 0.16970417E+03</pdfrwt>
<totfact> 0.41535218E+03</totfact>
</mgrwt>
</event>
<event>
 6    1  0.1190675E-005  0.1366398E+03  0.7546771E-02  0.1230095E+00
          1   -1    0    0  501    0  0.00000000000E+00  0.00000000000E+00  0.45833268580E+02  0.45833268580E+02  0.00000000000E+00 0. -1.
         -1   -1    0    0    0  501 -0.00000000000E+00 -0.00000000000E+00 -0.33801898266E+03  0.33801898266E+03  0.00000000000E+00 0.  1.
          5    1    1    2  502    0  0.21503813385E+02 -0.54905853928E+02  0.10193381030E+01  0.59162452923E+02  0.47000000000E+01 0. -1.
         -5    1    1    2    0  502  0.12778792746E+02  0.11686363713E+02 -0.12208120803E+03  0.12339278745E+03  0.47000000000E+01 0. -1.
        -11    1    1    2    0    0 -0.39720436128E+02  0.21695548658E+02 -0.17318503622E+03  0.17900130348E+03  0.00000000000E+00 0.  1.
         11    1    1    2    0    0  0.54378299970E+01  0.21523941557E+02  0.20611920625E+01  0.22295707388E+02  0.00000000000E+00 0. -1.
<mgrwt>
<rscale>  0 0.12823743E+03</rscale>
<asrwt>0</asrwt>
<pdfrwt beam="1">  1        1 0.70512723E-02 0.13663982E+03</pdfrwt>
<pdfrwt beam="2">  1       -1 0.52002919E-01 0.13663982E+03</pdfrwt>
<totfact> 0.37885517E+03</totfact>
</mgrwt>
</event>
<event>
 6    1  0.1190675E-005  0.1690442E+03  0.7546771E-02  0.1196818E+00
          2   -1    0    0  501    0  0.00000000000E+00  0.00000000000E+00  0.17471484408E+04  0.17471484408E+04  0.00000000000E+00 0. -1.
         -2   -1    0    0    0  501 -0.00000000000E+00 -0.00000000000E+00 -0.18875144167E+02  0.18875144167E+02  0.00000000000E+00 0.  1.
          5    1    1    2  502    0 -0.42472020219E+02  0.67854053561E+02  0.73213991595E+03  0.73651815430E+03  0.47000000000E+01 0. -1.
         -5    1    1    2    0  502  0.87709420280E+02 -0.13260870350E+02  0.78319683210E+03  0.78821834596E+03  0.47000000000E+01 0.  1.
        -11    1    1    2    0    0 -0.50612319485E+02 -0.70973774864E+02  0.12962089480E+03  0.15620646584E+03  0.00000000000E+00 0.  1.
         11    1    1    2    0    0  0.53749194239E+01  0.16380591652E+02  0.83315653749E+02  0.85080618835E+02  0.00000000000E+00 0. -1.
<mgrwt>
<rscale>  0 0.15301325E+03</rscale>
<asrwt>0</asrwt>
<pdfrwt beam="1">  1        2 0.26879194E+00 0.16904418E+03</pdfrwt>
<pdfrwt beam="2">  1       -2 0.29038697E-02 0.16904418E+03</pdfrwt>
<totfact> 0.44636339E+03</totfact>
</mgrwt>
</event>
<event>
 6    1  0.1190675E-005  0.1355011E+03  0.7546771E-02  0.1232135E+00
          2   -1    0    0  501    0  0.00000000000E+00  0.00000000000E+00  0.77518049745E+02  0.77518049745E+02  0.00000000000E+00 0. -1.
         -2   -1    0    0    0  501 -0.00000000000E+00 -0.00000000000E+00 -0.20959090582E+03  0.20959090582E+03  0.00000000000E+00 0.  1.
          5    1    1    2  502    0 -0.48730759442E+02  0.63302441205E+02 -0.12609891750E+02  0.81012254309E+02  0.47000000000E+01 0.  1.
         -5    1    1    2    0  502  0.54038150608E+02 -0.11267355084E+02 -0.12580179452E+02  0.56810438537E+02  0.47000000000E+01 0.  1.
        -11    1    1    2    0    0  0.23294644648E+02 -0.12462057865E+02 -0.95585362716E+02  0.99169072402E+02  0.00000000000E+00 0.  1.
         11    1    1    2    0    0 -0.28602035814E+02 -0.39573028256E+02 -0.11297422160E+02  0.50117190320E+02  0.00000000000E+00 0. -1.
<mgrwt>
<rscale>  0 0.12689608E+03</rscale>
<asrwt>0</asrwt>
<pdfrwt beam="1">  1        2 0.11925854E-01 0.13550113E+03</pdfrwt>
<pdfrwt beam="2">  1       -2 0.32244755E-01 0.13550113E+03</pdfrwt>
<totfact> 0.43969984E+03</totfact>
</mgrwt>
</event>
<event>
 6    1  0.1190675E-005  0.1505144E+03  0.7546771E-02  0.1218357E+00
          2   -1    0    0  501    0  0.00000000000E+00  0.00000000000E+00  0.19141486450E+03  0.19141486450E+03  0.00000000000E+00 0. -1.
         -2   -1    0    0    0  501 -0.00000000000E+00 -0.00000000000E+00 -0.12476501212E+03  0.12476501212E+03  0.00000000000E+00 0.  1.
          5    1    1    2  502    0 -0.35003995886E+02  0.35672939564E+02  0.82202070213E+02  0.96317748585E+02  0.47000000000E+01 0. -1.
         -5    1    1    2    0  502  0.73667395524E+02 -0.52093316921E+02  0.45942553001E+02  0.10135781671E+03  0.47000000000E+01 0.  1.
        -11    1    1    2    0    0  0.23208188660E+02 -0.11329939011E+01  0.72744788198E+01  0.24347930880E+02  0.00000000000E+00 0.  1.
         11    1    1    2    0    0 -0.61871588297E+02  0.17553371259E+02 -0.68769249661E+02  0.94156380452E+02  0.00000000000E+00 0. -1.
<mgrwt>
<rscale>  0 0.13632822E+03</rscale>
<asrwt>0</asrwt>
<pdfrwt beam="1">  1        2 0.29448441E-01 0.15051440E+03</pdfrwt>
<pdfrwt beam="2">  1       -2 0.19194617E-01 0.15051440E+03</pdfrwt>
<totfact> 0.39023759E+03</totfact>
</mgrwt>
</event>
<event>
 6    1  0.1190675E-005  0.2716130E+03  0.7546771E-02  0.1101725E+00
          2   -1    0    0  501    0  0.00000000000E+00  0.00000000000E+00  0.75703513409E+03  0.75703513409E+03  0.00000000000E+00 0. -1.
         -2   -1    0    0    0  501 -0.00000000000E+00 -0.00000000000E+00 -0.95775804600E+02  0.95775804600E+02  0.00000000000E+00 0.  1.
          5    1    1    2  502    0 -0.83244357916E+02 -0.84045045457E+02  0.58416588404E+02  0.13201431965E+03  0.47000000000E+01 0. -1.
         -5    1    1    2    0  502 -0.12850380173E+03 -0.31279135748E+02  0.22147886892E+03  0.25800502083E+03  0.47000000000E+01 0. -1.
        -11    1    1    2    0    0  0.56505936368E+02 -0.49349113711E+00  0.36532977565E+02  0.67289098880E+02  0.00000000000E+00 0.  1.
         11    1    1    2    0    0  0.15524222327E+03  0.11581767234E+03  0.34483089460E+03  0.39550249934E+03  0.00000000000E+00 0. -1.
<mgrwt>
<rscale>  0 0.26922306E+03</rscale>
<asrwt>0</asrwt>
<pdfrwt beam="1">  1        2 0.11646694E+00 0.27161299E+03</pdfrwt>
<pdfrwt beam="2">  1       -2 0.14734740E-01 0.27161299E+03</pdfrwt>
<totfact> 0.13427284E+03</totfact>
</mgrwt>
</event>
<event>
 6    1  0.1190675E-005  0.3981107E+03  0.7546771E-02  0.1044436E+00
         -1   -1    0    0    0  501 -0.00000000000E+00  0.00000000000E+00  0.24603227478E+02  0.24603227478E+02  0.00000000000E+00 0.  1.
          1   -1    0    0  501    0  0.00000000000E+00 -0.00000000000E+00 -0.16104813950E+04  0.16104813950E+04  0.00000000000E+00 0. -1.
          5    1    1    2  502    0 -0.72938388145E+02 -0.12776819892E+03 -0.62899798533E+03  0.64599170015E+03  0.47000000000E+01 0.  1.
         -5    1    1    2    0  502  0.23743922471E+02 -0.18656070087E+02 -0.45820336834E+03  0.45922134049E+03  0.47000000000E+01 0.  1.
        -11    1    1    2    0    0 -0.10717260111E+02  0.90176839004E+02 -0.19228318654E+03  0.21264887910E+03  0.00000000000E+00 0.  1.
         11    1    1    2    0    0  0.59911725784E+02  0.56247430007E+02 -0.30639362733E+03  0.31722270275E+03  0.00000000000E+00 0. -1.
<mgrwt>
<rscale>  0 0.39811074E+03</rscale>
<asrwt>0</asrwt>
<pdfrwt beam="2">  1        1 0.24776643E+00 0.39811074E+03</pdfrwt>
<pdfrwt beam="1">  1       -1 0.37851110E-02 0.39811074E+03</pdfrwt>
<totfact> 0.16084127E+03</totfact>
</mgrwt>
</event>
<event>
 6    1  0.1190675E-005  0.1262665E+03  0.7546771E-02  0.1248845E+00
          2   -1    0    0  501    0  0.00000000000E+00  0.00000000000E+00  0.12136723647E+03  0.12136723647E+03  0.00000000000E+00 0. -1.
         -2   -1    0    0    0  501 -0.00000000000E+00 -0.00000000000E+00 -0.97960554960E+02  0.97960554960E+02  0.00000000000E+00 0.  1.
          5    1    1    2  502    0  0.38095527552E+02  0.58586548678E+02  0.20996027250E+02  0.73120284913E+02  0.47000000000E+01 0.  1.
         -5    1    1    2    0  502 -0.25445215872E+02 -0.45978686213E+02 -0.97238998738E+01  0.53648325467E+02  0.47000000000E+01 0.  1.
        -11    1    1    2    0    0 -0.30980169834E+02 -0.30389296594E+01  0.44407001605E+02  0.54230875043E+02  0.00000000000E+00 0. -1.
         11    1    1    2    0    0  0.18329858154E+02 -0.95689328049E+01 -0.32272447474E+02  0.38328306002E+02  0.00000000000E+00 0.  1.
<mgrwt>
<rscale>  0 0.11658152E+03</rscale>
<asrwt>0</asrwt>
<pdfrwt beam="1">  1        2 0.18671883E-01 0.12626646E+03</pdfrwt>
<pdfrwt beam="2">  1       -2 0.15070855E-01 0.12626646E+03</pdfrwt>
<totfact> 0.95576809E+03</totfact>
</mgrwt>
</event>
<event>
 6    1  0.1190675E-005  0.1258158E+03  0.7546771E-02  0.1249515E+00
          2   -1    0    0  501    0  0.00000000000E+00  0.00000000000E+00  0.34417834514E+03  0.34417834514E+03  0.00000000000E+00 0. -1.
         -2   -1    0    0    0  501 -0.00000000000E+00 -0.00000000000E+00 -0.35120053925E+02  0.35120053925E+02  0.00000000000E+00 0.  1.
          5    1    1    2  502    0 -0.40790688771E+01 -0.45187076669E+01 -0.21892493484E+02  0.23204068455E+02  0.47000000000E+01 0.  1.
         -5    1    1    2    0  502 -0.75693468392E+01  0.12855221975E+02  0.17177419953E+03  0.17248483228E+03  0.47000000000E+01 0.  1.
        -11    1    1    2    0    0 -0.10927291288E+02  0.15556740868E+02 -0.19991589876E+01  0.19115818527E+02  0.00000000000E+00 0.  1.
         11    1    1    2    0    0  0.22575707004E+02 -0.23893255176E+02  0.16117574416E+03  0.16449367980E+03  0.00000000000E+00 0. -1.
<mgrwt>
<rscale>  0 0.11619200E+03</rscale>
<asrwt>0</asrwt>
<pdfrwt beam="1">  1        2 0.52950512E-01 0.12581582E+03</pdfrwt>
<pdfrwt beam="2">  1       -2 0.54030855E-02 0.12581582E+03</pdfrwt>
<totfact> 0.15291796E+04</totfact>
</mgrwt>
</event>
<event>
 6    1  0.1190675E-005  0.1351770E+03  0.7546771E-02  0.1233089E+00
         -2   -1    0    0    0  501 -0.00000000000E+00  0.00000000000E+00  0.35696480404E+03  0.35696480404E+03  0.00000000000E+00 0.  1.
          2   -1    0    0  501    0  0.00000000000E+00 -0.00000000000E+00 -0.52628855584E+02  0.52628855584E+02  0.00000000000E+00 0. -1.
          5    1    1    2  502    0 -0.41721565715E+02 -0.19521570885E+02  0.76100920160E+02  0.89079856448E+02  0.47000000000E+01 0. -1.
         -5    1    1    2    0  502  0.10035191365E+02  0.60070435632E+02 -0.91552249694E+01  0.61766256540E+02  0.47000000000E+01 0. -1.
        -11    1    1    2    0    0  0.62840206477E+01  0.26752202102E+02  0.99450037460E+02  0.10317693145E+03  0.00000000000E+00 0.  1.
         11    1    1    2    0    0  0.25402353702E+02 -0.67301066849E+02  0.13794021580E+03  0.15557061518E+03  0.00000000000E+00 0. -1.
<mgrwt>
<rscale>  0 0.12627596E+03</rscale>
<asrwt>0</asrwt>
<pdfrwt beam="2">  1        2 0.80967472E-02 0.13517701E+03</pdfrwt>
<pdfrwt beam="1">  1       -2 0.54917661E-01 0.13517701E+03</pdfrwt>
<totfact> 0.25545590E+03</totfact>
</mgrwt>
</event>
<event>
 6    1  0.1190675E-005  0.1358588E+03  0.7546771E-02  0.1230158E+00
          2   -1    0    0  501    0  0.00000000000E+00  0.00000000000E+00  0.64667331661E+02  0.64667331661E+02  0.00000000000E+00 0. -1.
         -2   -1    0    0    0  501 -0.00000000000E+00 -0.00000000000E+00 -0.22978100052E+03  0.22978100052E+03  0.00000000000E+00 0.  1.
          5    1    1    2  502    0  0.18702920756E+02 -0.18728687402E+02 -0.10158913351E+03  0.10508570323E+03  0.47000000000E+01 0.  1.
         -5    1    1    2    0  502  0.27414592577E+02  0.45327584986E+02  0.15938592659E+02  0.55518272513E+02  0.47000000000E+01 0.  1.
        -11    1    1    2    0    0 -0.18807237733E+02 -0.56611588885E+02 -0.70382942438E+02  0.92262358378E+02  0.00000000000E+00 0. -1.
         11    1    1    2    0    0 -0.27310275600E+02  0.30012691301E+02 -0.90801855699E+01  0.41581998058E+02  0.00000000000E+00 0.  1.
<mgrwt>
<rscale>  0 0.12819550E+03</rscale>
<asrwt>0</asrwt>
<pdfrwt beam="1">  1        2 0.99488204E-02 0.13585883E+03</pdfrwt>
<pdfrwt beam="2">  1       -2 0.35350923E-01 0.13585883E+03</pdfrwt>
<totfact> 0.46303561E+03</totfact>
</mgrwt>
</event>
<event>
 6    1  0.1190675E-005  0.1470642E+03  0.7546771E-02  0.1214545E+00
         -4   -1    0    0    0  501 -0.00000000000E+00  0.00000000000E+00  0.11017199592E+03  0.11017199592E+03  0.00000000000E+00 0. -1.
          4   -1    0    0  501    0  0.00000000000E+00 -0.00000000000E+00 -0.16039334216E+03  0.16039334216E+03  0.00000000000E+00 0.  1.
          5    1    1    2  502    0 -0.36939004548E+02  0.28519156310E+02  0.32959048892E+02  0.57325572283E+02  0.47000000000E+01 0. -1.
         -5    1    1    2    0  502  0.35938534606E+02  0.48955890913E+02 -0.73032984430E+02  0.95100811456E+02  0.47000000000E+01 0. -1.
        -11    1    1    2    0    0 -0.95452189212E+01  0.65091760667E+01 -0.29178135232E+02  0.31382226705E+02  0.00000000000E+00 0.  1.
         11    1    1    2    0    0  0.10545688863E+02 -0.83984223290E+02  0.19030724529E+02  0.86756727643E+02  0.00000000000E+00 0. -1.
<mgrwt>
<rscale>  0 0.13909981E+03</rscale>
<asrwt>0</asrwt>
<pdfrwt beam="2">  1        4 0.24675899E-01 0.14706421E+03</pdfrwt>
<pdfrwt beam="1">  1       -4 0.16949538E-01 0.14706421E+03</pdfrwt>
<totfact> 0.78326218E+02</totfact>
</mgrwt>
</event>
<event>
 6    1  0.1190675E-005  0.1199690E+03  0.7546771E-02  0.1256593E+00
         -4   -1    0    0    0  501 -0.00000000000E+00  0.00000000000E+00  0.51957562426E+02  0.51957562426E+02  0.00000000000E+00 0. -1.
          4   -1    0    0  501    0  0.00000000000E+00 -0.00000000000E+00 -0.31238918277E+03  0.31238918277E+03  0.00000000000E+00 0.  1.
          5    1    1    2  502    0  0.54119513803E+02 -0.20969532196E+02 -0.20585317424E+03  0.21393050834E+03  0.47000000000E+01 0.  1.
         -5    1    1    2    0  502 -0.35832082670E+02  0.23898097361E+02 -0.37146373223E+02  0.57070134480E+02  0.47000000000E+01 0. -1.
        -11    1    1    2    0    0 -0.35891066429E+02 -0.31703575851E+02  0.11108206846E+02  0.49159715525E+02  0.00000000000E+00 0. -1.
         11    1    1    2    0    0  0.17603635296E+02  0.28775010687E+02 -0.28540279721E+02  0.44186386842E+02  0.00000000000E+00 0.  1.
<mgrwt>
<rscale>  0 0.11217573E+03</rscale>
<asrwt>0</asrwt>
<pdfrwt beam="2">  1        4 0.48059875E-01 0.11996903E+03</pdfrwt>
<pdfrwt beam="1">  1       -4 0.79934709E-02 0.11996903E+03</pdfrwt>
<totfact> 0.74987260E+02</totfact>
</mgrwt>
</event>
<event>
 6    1  0.1190675E-005  0.1474585E+03  0.7546771E-02  0.1213146E+00
         -1   -1    0    0    0  501 -0.00000000000E+00  0.00000000000E+00  0.86799362270E+03  0.86799362270E+03  0.00000000000E+00 0.  1.
          1   -1    0    0  501    0  0.00000000000E+00 -0.00000000000E+00 -0.22718323481E+02  0.22718323481E+02  0.00000000000E+00 0. -1.
          5    1    1    2  502    0  0.13715979582E+02 -0.81787077608E+02  0.11773594878E+03  0.14408711877E+03  0.47000000000E+01 0.  1.
         -5    1    1    2    0  502 -0.46009361397E+02  0.10577656120E+02  0.21002587483E+03  0.21531768678E+03  0.47000000000E+01 0.  1.
        -11    1    1    2    0    0 -0.22620277110E+02 -0.77067842008E+01  0.90232754573E+02  0.93343566769E+02  0.00000000000E+00 0. -1.
         11    1    1    2    0    0  0.54913658925E+02  0.78916205688E+02  0.42728072105E+03  0.43796357387E+03  0.00000000000E+00 0.  1.
<mgrwt>
<rscale>  0 0.14013606E+03</rscale>
<asrwt>0</asrwt>
<pdfrwt beam="2">  1        1 0.34951274E-02 0.14745847E+03</pdfrwt>
<pdfrwt beam="1">  1       -1 0.13353746E+00 0.14745847E+03</pdfrwt>
<totfact> 0.13716187E+03</totfact>
</mgrwt>
</event>
<event>
 6    1  0.1190675E-005  0.1254369E+03  0.7546771E-02  0.1249921E+00
         -1   -1    0    0    0  501 -0.00000000000E+00  0.00000000000E+00  0.10671384291E+03  0.10671384291E+03  0.00000000000E+00 0.  1.
          1   -1    0    0  501    0  0.00000000000E+00 -0.00000000000E+00 -0.11037148405E+03  0.11037148405E+03  0.00000000000E+00 0. -1.
          5    1    1    2  502    0  0.95770548809E+01  0.18825187446E+02  0.55151798788E+02  0.59244565760E+02  0.47000000000E+01 0.  1.
         -5    1    1    2    0  502 -0.18333542070E+02 -0.24372416634E+02 -0.58613318401E+02  0.66240052471E+02  0.47000000000E+01 0.  1.
        -11    1    1    2    0    0 -0.14847960270E+02  0.26743280570E+02  0.33470064627E+02  0.45342146023E+02  0.00000000000E+00 0.  1.
         11    1    1    2    0    0  0.23604447458E+02 -0.21196051382E+02 -0.33666186149E+02  0.46258562708E+02  0.00000000000E+00 0. -1.
<mgrwt>
<rscale>  0 0.11595603E+03</rscale>
<asrwt>0</asrwt>
<pdfrwt beam="2">  1        1 0.16980228E-01 0.12543687E+03</pdfrwt>
<pdfrwt beam="1">  1       -1 0.16417514E-01 0.12543687E+03</pdfrwt>
<totfact> 0.82499306E+03</totfact>
</mgrwt>
</event>
<event>
 6    1  0.1190675E-005  0.1427891E+03  0.7546771E-02  0.1220135E+00
         -3   -1    0    0    0  501 -0.00000000000E+00  0.00000000000E+00  0.20776701320E+03  0.20776701320E+03  0.00000000000E+00 0.  1.
          3   -1    0    0  501    0  0.00000000000E+00 -0.00000000000E+00 -0.82416007672E+02  0.82416007672E+02  0.00000000000E+00 0. -1.
          5    1    1    2  502    0  0.13866479703E+02  0.65645384373E+01  0.77658095022E+02  0.79298437227E+02  0.47000000000E+01 0. -1.
         -5    1    1    2    0  502  0.49684216583E+02 -0.33383115142E+02 -0.35288377530E+02  0.69644191019E+02  0.47000000000E+01 0. -1.
        -11    1    1    2    0    0 -0.69907128595E+02  0.50999044651E+02  0.76284717293E+02  0.11535712928E+03  0.00000000000E+00 0.  1.
         11    1    1    2    0    0  0.63564323093E+01 -0.24180467946E+02  0.66965707470E+01  0.25883263348E+02  0.00000000000E+00 0. -1.
<mgrwt>
<rscale>  0 0.13505988E+03</rscale>
<asrwt>0</asrwt>
<pdfrwt beam="2">  1        3 0.12679386E-01 0.14278905E+03</pdfrwt>
<pdfrwt beam="1">  1       -3 0.31964156E-01 0.14278905E+03</pdfrwt>
<totfact> 0.10958824E+03</totfact>
</mgrwt>
</event>
<event>
 6    1  0.1190675E-005  0.1439683E+03  0.7546771E-02  0.1220418E+00
         -2   -1    0    0    0  501 -0.00000000000E+00  0.00000000000E+00  0.61862583847E+03  0.61862583847E+03  0.00000000000E+00 0.  1.
          2   -1    0    0  501    0  0.00000000000E+00 -0.00000000000E+00 -0.29423840832E+02  0.29423840832E+02  0.00000000000E+00 0. -1.
          5    1    1    2  502    0 -0.34484080632E+02  0.49778098085E+01  0.13884129001E+03  0.14322333685E+03  0.47000000000E+01 0. -1.
         -5    1    1    2    0  502  0.65709534026E+02  0.59263501243E+02  0.84129845907E+02  0.12218766883E+03  0.47000000000E+01 0. -1.
        -11    1    1    2    0    0  0.11154792847E+02 -0.63590722026E+02  0.26775344502E+03  0.27542715308E+03  0.00000000000E+00 0.  1.
         11    1    1    2    0    0 -0.42380246242E+02 -0.65058902542E+00  0.98477416702E+02  0.10721152055E+03  0.00000000000E+00 0. -1.
<mgrwt>
<rscale>  0 0.13485973E+03</rscale>
<asrwt>0</asrwt>
<pdfrwt beam="2">  1        2 0.45267452E-02 0.14396831E+03</pdfrwt>
<pdfrwt beam="1">  1       -2 0.95173196E-01 0.14396831E+03</pdfrwt>
<totfact> 0.16687708E+03</totfact>
</mgrwt>
</event>
<event>
 6    1  0.1190675E-005  0.1263449E+03  0.7546771E-02  0.1248544E+00
         -1   -1    0    0    0  501 -0.00000000000E+00  0.00000000000E+00  0.40679956087E+02  0.40679956087E+02  0.00000000000E+00 0.  1.
          1   -1    0    0  501    0  0.00000000000E+00 -0.00000000000E+00 -0.37487107700E+03  0.37487107700E+03  0.00000000000E+00 0. -1.
          5    1    1    2  502    0  0.52327526411E+02 -0.13152126798E+02 -0.12185380041E+03  0.13334761766E+03  0.47000000000E+01 0.  1.
         -5    1    1    2    0  502 -0.70722332831E+02  0.13673961584E+02 -0.16165760871E+03  0.17704207986E+03  0.47000000000E+01 0.  1.
        -11    1    1    2    0    0  0.33069276604E+02  0.87693260416E+01  0.14903331241E+02  0.37317387588E+02  0.00000000000E+00 0.  1.
         11    1    1    2    0    0 -0.14674470184E+02 -0.92911608278E+01 -0.65583043028E+02  0.67843947980E+02  0.00000000000E+00 0. -1.
<mgrwt>
<rscale>  0 0.11675753E+03</rscale>
<asrwt>0</asrwt>
<pdfrwt beam="2">  1        1 0.57672473E-01 0.12634495E+03</pdfrwt>
<pdfrwt beam="1">  1       -1 0.62584548E-02 0.12634495E+03</pdfrwt>
<totfact> 0.78270727E+03</totfact>
</mgrwt>
</event>
<event>
 6    1  0.1190675E-005  0.3359083E+03  0.7546771E-02  0.1068552E+00
         -3   -1    0    0    0  501 -0.00000000000E+00  0.00000000000E+00  0.18808995260E+03  0.18808995260E+03  0.00000000000E+00 0.  1.
          3   -1    0    0  501    0  0.00000000000E+00 -0.00000000000E+00 -0.14997400756E+03  0.14997400756E+03  0.00000000000E+00 0. -1.
          5    1    1    2  502    0 -0.18106270596E+02 -0.82629572980E+01 -0.20730624850E+02  0.29119792322E+02  0.47000000000E+01 0. -1.
         -5    1    1    2    0  502  0.14522255421E+03  0.64775188884E+01  0.35942773335E+02  0.14981829480E+03  0.47000000000E+01 0. -1.
        -11    1    1    2    0    0 -0.58492484900E+02 -0.39798603535E+02  0.33339476631E+02  0.78210103792E+02  0.00000000000E+00 0.  1.
         11    1    1    2    0    0 -0.68623798711E+02  0.41584041945E+02 -0.10435680081E+02  0.80915769246E+02  0.00000000000E+00 0. -1.
<mgrwt>
<rscale>  0 0.33590834E+03</rscale>
<asrwt>0</asrwt>
<pdfrwt beam="2">  1        3 0.23072924E-01 0.33590834E+03</pdfrwt>
<pdfrwt beam="1">  1       -3 0.28936916E-01 0.33590834E+03</pdfrwt>
<totfact> 0.51570167E+02</totfact>
</mgrwt>
</event>
<event>
 6    1  0.1190675E-005  0.1814759E+03  0.7546771E-02  0.1172267E+00
         -2   -1    0    0    0  501 -0.00000000000E+00  0.00000000000E+00  0.21279476107E+02  0.21279476107E+02  0.00000000000E+00 0.  1.
          2   -1    0    0  501    0  0.00000000000E+00 -0.00000000000E+00 -0.17496464901E+04  0.17496464901E+04  0.00000000000E+00 0. -1.
          5    1    1    2  502    0 -0.36634135657E+02  0.71557097084E+02 -0.29406694660E+03  0.30489332089E+03  0.47000000000E+01 0. -1.
         -5    1    1    2    0  502 -0.46166352988E+02  0.31577110388E+02 -0.10330912133E+04  0.10346148999E+04  0.47000000000E+01 0. -1.
        -11    1    1    2    0    0  0.67118077923E+02 -0.75132997761E+02 -0.37956499979E+03  0.39270777024E+03  0.00000000000E+00 0. -1.
         11    1    1    2    0    0  0.15682410722E+02 -0.28001209711E+02 -0.21643854291E+02  0.38709975199E+02  0.00000000000E+00 0.  1.
<mgrwt>
<rscale>  0 0.17546371E+03</rscale>
<asrwt>0</asrwt>
<pdfrwt beam="2">  1        2 0.26917641E+00 0.18147587E+03</pdfrwt>
<pdfrwt beam="1">  1       -2 0.32737653E-02 0.18147587E+03</pdfrwt>
<totfact> 0.37291404E+03</totfact>
</mgrwt>
</event>
<event>
 6    1  0.1190675E-005  0.1504419E+03  0.7546771E-02  0.1208879E+00
         -1   -1    0    0    0  501 -0.00000000000E+00  0.00000000000E+00  0.20227407909E+03  0.20227407909E+03  0.00000000000E+00 0.  1.
          1   -1    0    0  501    0  0.00000000000E+00 -0.00000000000E+00 -0.11423072544E+03  0.11423072544E+03  0.00000000000E+00 0. -1.
          5    1    1    2  502    0  0.86754557604E+01 -0.86655230332E+02 -0.31081107498E+02  0.92587891864E+02  0.47000000000E+01 0. -1.
         -5    1    1    2    0  502 -0.55423853560E+02  0.17218306000E+02  0.10784123926E+02  0.59217066238E+02  0.47000000000E+01 0. -1.
        -11    1    1    2    0    0  0.63092054351E+02  0.24780170448E+02  0.32472590241E+02  0.75160716379E+02  0.00000000000E+00 0. -1.
         11    1    1    2    0    0 -0.16343656551E+02  0.44656753884E+02  0.75867746985E+02  0.89539130047E+02  0.00000000000E+00 0.  1.
<mgrwt>
<rscale>  0 0.14335932E+03</rscale>
<asrwt>0</asrwt>
<pdfrwt beam="2">  1        1 0.17573958E-01 0.15044194E+03</pdfrwt>
<pdfrwt beam="1">  1       -1 0.31119089E-01 0.15044194E+03</pdfrwt>
<totfact> 0.28185915E+03</totfact>
</mgrwt>
</event>
<event>
 6    1  0.1190675E-005  0.1411695E+03  0.7546771E-02  0.1222640E+00
         -1   -1    0    0    0  501 -0.00000000000E+00  0.00000000000E+00  0.16014221431E+03  0.16014221431E+03  0.00000000000E+00 0.  1.
          1   -1    0    0  501    0  0.00000000000E+00 -0.00000000000E+00 -0.10495486619E+03  0.10495486619E+03  0.00000000000E+00 0. -1.
          5    1    1    2  502    0  0.40993566611E+00 -0.50385749078E+02  0.58584892980E+02  0.77415576229E+02  0.47000000000E+01 0.  1.
         -5    1    1    2    0  502 -0.29089287762E+02 -0.86222664114E+01 -0.55903386175E+02  0.63779375400E+02  0.47000000000E+01 0.  1.
        -11    1    1    2    0    0  0.29235961117E+02  0.68666936643E+01 -0.18899883413E+02  0.35483777946E+02  0.00000000000E+00 0. -1.
         11    1    1    2    0    0 -0.55660902139E+00  0.52141321825E+02  0.71405724732E+02  0.88418350922E+02  0.00000000000E+00 0.  1.
<mgrwt>
<rscale>  0 0.13329991E+03</rscale>
<asrwt>0</asrwt>
<pdfrwt beam="2">  1        1 0.16146902E-01 0.14116949E+03</pdfrwt>
<pdfrwt beam="1">  1       -1 0.24637264E-01 0.14116949E+03</pdfrwt>
<totfact> 0.46229600E+03</totfact>
</mgrwt>
</event>
<event>
 6    1  0.1190675E-005  0.2718045E+03  0.7546771E-02  0.1100251E+00
          1   -1    0    0  501    0  0.00000000000E+00  0.00000000000E+00  0.29847310631E+03  0.29847310631E+03  0.00000000000E+00 0. -1.
         -1   -1    0    0    0  501 -0.00000000000E+00 -0.00000000000E+00 -0.61879705097E+02  0.61879705097E+02  0.00000000000E+00 0.  1.
          5    1    1    2  502    0  0.42404162830E+02 -0.41298767600E+02  0.21234077717E+03  0.22048672721E+03  0.47000000000E+01 0.  1.
         -5    1    1    2    0  502 -0.34208661396E+00 -0.66540165031E+01 -0.17687563468E+02  0.19476469401E+02  0.47000000000E+01 0.  1.
        -11    1    1    2    0    0 -0.33046691063E+02  0.73092571883E+02  0.13444905330E+02  0.81334945343E+02  0.00000000000E+00 0.  1.
         11    1    1    2    0    0 -0.90153851530E+01 -0.25139787780E+02  0.28495282190E+02  0.39054669454E+02  0.00000000000E+00 0. -1.
<mgrwt>
<rscale>  0 0.27180455E+03</rscale>
<asrwt>0</asrwt>
<pdfrwt beam="1">  1        1 0.45918939E-01 0.27180455E+03</pdfrwt>
<pdfrwt beam="2">  1       -1 0.95199548E-02 0.27180455E+03</pdfrwt>
<totfact> 0.57607236E+03</totfact>
</mgrwt>
</event>
<event>
 6    1  0.1190675E-005  0.3298121E+03  0.7546771E-02  0.1071220E+00
         -1   -1    0    0    0  501 -0.00000000000E+00  0.00000000000E+00  0.10177894459E+03  0.10177894459E+03  0.00000000000E+00 0.  1.
          1   -1    0    0  501    0  0.00000000000E+00 -0.00000000000E+00 -0.26718687325E+03  0.26718687325E+03  0.00000000000E+00 0. -1.
          5    1    1    2  502    0 -0.26998226328E+01  0.44655990313E+01  0.23074309056E+02  0.24119377176E+02  0.47000000000E+01 0. -1.
         -5    1    1    2    0  502  0.11102429670E+03 -0.47147024473E+02 -0.14476883323E+03  0.18849228485E+03  0.47000000000E+01 0.  1.
        -11    1    1    2    0    0 -0.15852158291E+02 -0.19285534495E+02 -0.37262770168E+02  0.44852389054E+02  0.00000000000E+00 0.  1.
         11    1    1    2    0    0 -0.92472315771E+02  0.61966959936E+02 -0.64506343154E+01  0.11150176676E+03  0.00000000000E+00 0. -1.
<mgrwt>
<rscale>  0 0.32981206E+03</rscale>
<asrwt>0</asrwt>
<pdfrwt beam="2">  1        1 0.41105673E-01 0.32981206E+03</pdfrwt>
<pdfrwt beam="1">  1       -1 0.15658299E-01 0.32981206E+03</pdfrwt>
<totfact> 0.30493157E+03</totfact>
</mgrwt>
</event>
<event>
 6    1  0.1190675E-005  0.1413928E+03  0.7546771E-02  0.1221323E+00
          1   -1    0    0  501    0  0.00000000000E+00  0.00000000000E+00  0.87264802477E+03  0.87264802477E+03  0.00000000000E+00 0. -1.
         -1   -1    0    0    0  501 -0.00000000000E+00 -0.00000000000E+00 -0.18806405682E+02  0.18806405682E+02  0.00000000000E+00 0.  1.
          5    1    1    2  502    0  0.62650783525E+02  0.58584824733E+02  0.30167060382E+03  0.31366310841E+03  0.47000000000E+01 0.  1.
         -5    1    1    2    0  502  0.33266335419E+01 -0.54844261448E+02  0.16674351796E+03  0.17562588160E+03  0.47000000000E+01 0.  1.
        -11    1    1    2    0    0 -0.34768374737E+01  0.24152498517E+02  0.23688020184E+02  0.34008144372E+02  0.00000000000E+00 0.  1.
         11    1    1    2    0    0 -0.62500579593E+02 -0.27893061801E+02  0.36173947712E+03  0.36815729608E+03  0.00000000000E+00 0. -1.
<mgrwt>
<rscale>  0 0.13422116E+03</rscale>
<asrwt>0</asrwt>
<pdfrwt beam="1">  1        1 0.13425351E+00 0.14139281E+03</pdfrwt>
<pdfrwt beam="2">  1       -1 0.28932939E-02 0.14139281E+03</pdfrwt>
<totfact> 0.77391531E+03</totfact>
</mgrwt>
</event>
<event>
 6    1  0.1190675E-005  0.1309319E+03  0.7546771E-02  0.1240047E+00
         -1   -1    0    0    0  501 -0.00000000000E+00  0.00000000000E+00  0.26103592843E+02  0.26103592843E+02  0.00000000000E+00 0.  1.
          1   -1    0    0  501    0  0.00000000000E+00 -0.00000000000E+00 -0.68700891914E+03  0.68700891914E+03  0.00000000000E+00 0. -1.
          5    1    1    2  502    0  0.95861947661E+01  0.39317874274E+02 -0.47368287616E+03  0.47543174856E+03  0.47000000000E+01 0.  1.
         -5    1    1    2    0  502  0.29307936188E+02 -0.36596671588E+02 -0.74346935221E+02  0.88021748856E+02  0.47000000000E+01 0.  1.
        -11    1    1    2    0    0 -0.40627736124E+02  0.15597386036E+02 -0.12170363006E+03  0.12925039637E+03  0.00000000000E+00 0. -1.
         11    1    1    2    0    0  0.17336051690E+01 -0.18318588723E+02  0.88281151435E+01  0.20408618196E+02  0.00000000000E+00 0.  1.
<mgrwt>
<rscale>  0 0.12186784E+03</rscale>
<asrwt>0</asrwt>
<pdfrwt beam="2">  1        1 0.10569369E+00 0.13093193E+03</pdfrwt>
<pdfrwt beam="1">  1       -1 0.40159369E-02 0.13093193E+03</pdfrwt>
<totfact> 0.68141862E+03</totfact>
</mgrwt>
</event>
<event>
 6    1  0.1190675E-005  0.2637606E+03  0.7546771E-02  0.1104905E+00
          3   -1    0    0  501    0  0.00000000000E+00  0.00000000000E+00  0.39236939970E+03  0.39236939970E+03  0.00000000000E+00 0. -1.
         -3   -1    0    0    0  501 -0.00000000000E+00 -0.00000000000E+00 -0.44326640723E+02  0.44326640723E+02  0.00000000000E+00 0.  1.
          5    1    1    2  502    0 -0.49515062240E+02 -0.10963442421E+02  0.40631916844E+02  0.65153519665E+02  0.47000000000E+01 0. -1.
         -5    1    1    2    0  502  0.21823201866E+02  0.95136190872E+01  0.26644799307E+03  0.26755071313E+03  0.47000000000E+01 0. -1.
        -11    1    1    2    0    0  0.11963495971E+02 -0.23001000479E+02 -0.22409528106E+02  0.34268910237E+02  0.00000000000E+00 0.  1.
         11    1    1    2    0    0  0.15728364404E+02  0.24450823813E+02  0.63372377172E+02  0.69722897389E+02  0.00000000000E+00 0. -1.
<mgrwt>
<rscale>  0 0.26376063E+03</rscale>
<asrwt>0</asrwt>
<pdfrwt beam="1">  1        3 0.60364521E-01 0.26376063E+03</pdfrwt>
<pdfrwt beam="2">  1       -3 0.68194834E-02 0.26376063E+03</pdfrwt>
<totfact> 0.95283178E+02</totfact>
</mgrwt>
</event>
<event>
 6    1  0.1190675E-005  0.2084752E+03  0.7546771E-02  0.1146643E+00
         -2   -1    0    0    0  501 -0.00000000000E+00  0.00000000000E+00  0.61123835168E+02  0.61123835168E+02  0.00000000000E+00 0.  1.
          2   -1    0    0  501    0  0.00000000000E+00 -0.00000000000E+00 -0.65152631241E+03  0.65152631241E+03  0.00000000000E+00 0. -1.
          5    1    1    2  502    0 -0.13591282226E+02 -0.26653231576E+02 -0.56567482058E+01  0.30809195158E+02  0.47000000000E+01 0.  1.
         -5    1    1    2    0  502 -0.15326164820E+03  0.25255572266E+02 -0.32217378270E+03  0.35769402147E+03  0.47000000000E+01 0.  1.
        -11    1    1    2    0    0  0.96997977359E+02 -0.42746561968E+02 -0.12755571582E+03  0.16585034462E+03  0.00000000000E+00 0. -1.
         11    1    1    2    0    0  0.69854953066E+02  0.44144221278E+02 -0.13501623052E+03  0.15829658633E+03  0.00000000000E+00 0.  1.
<mgrwt>
<rscale>  0 0.20371360E+03</rscale>
<asrwt>0</asrwt>
<pdfrwt beam="2">  1        2 0.10023482E+00 0.20847516E+03</pdfrwt>
<pdfrwt beam="1">  1       -2 0.94036666E-02 0.20847516E+03</pdfrwt>
<totfact> 0.33152285E+03</totfact>
</mgrwt>
</event>
<event>
 6    1  0.1190675E-005  0.3210057E+03  0.7546771E-02  0.1075187E+00
         -1   -1    0    0    0  501 -0.00000000000E+00  0.00000000000E+00  0.10151444681E+03  0.10151444681E+03  0.00000000000E+00 0.  1.
          1   -1    0    0  501    0  0.00000000000E+00 -0.00000000000E+00 -0.25376840187E+03  0.25376840187E+03  0.00000000000E+00 0. -1.
          5    1    1    2  502    0 -0.18824079073E+02 -0.19822906112E+02 -0.10979835762E+02  0.29831868078E+02  0.47000000000E+01 0.  1.
         -5    1    1    2    0  502  0.68202892479E+02  0.12593974172E+03 -0.77915155516E+02  0.16311135627E+03  0.47000000000E+01 0.  1.
        -11    1    1    2    0    0  0.16454186999E+02 -0.38519019975E+02  0.97107373184E+01  0.42997134659E+02  0.00000000000E+00 0.  1.
         11    1    1    2    0    0 -0.65833000405E+02 -0.67597815630E+02 -0.73069701101E+02  0.11934248966E+03  0.00000000000E+00 0. -1.
<mgrwt>
<rscale>  0 0.32100566E+03</rscale>
<asrwt>0</asrwt>
<pdfrwt beam="2">  1        1 0.39041292E-01 0.32100566E+03</pdfrwt>
<pdfrwt beam="1">  1       -1 0.15617607E-01 0.32100566E+03</pdfrwt>
<totfact> 0.32658900E+03</totfact>
</mgrwt>
</event>
<event>
 6    1  0.1190675E-005  0.4655315E+03  0.7546771E-02  0.1023189E+00
          2   -1    0    0  501    0  0.00000000000E+00  0.00000000000E+00  0.78607264248E+03  0.78607264248E+03  0.00000000000E+00 0. -1.
         -2   -1    0    0    0  501 -0.00000000000E+00 -0.00000000000E+00 -0.68924781876E+02  0.68924781876E+02  0.00000000000E+00 0.  1.
          5    1    1    2  502    0 -0.86314234982E+00  0.25449533871E+02  0.68693972515E+02  0.73412367138E+02  0.47000000000E+01 0.  1.
         -5    1    1    2    0  502  0.98879050952E+02 -0.13036951070E+03  0.57278951522E+03  0.59572073557E+03  0.47000000000E+01 0.  1.
        -11    1    1    2    0    0 -0.31748555917E+02  0.81991279330E+02  0.77812187779E+01  0.88267140289E+02  0.00000000000E+00 0.  1.
         11    1    1    2    0    0 -0.66267352684E+02  0.22928697496E+02  0.67883154091E+02  0.97597181363E+02  0.00000000000E+00 0. -1.
<mgrwt>
<rscale>  0 0.46553146E+03</rscale>
<asrwt>0</asrwt>
<pdfrwt beam="1">  1        2 0.12093425E+00 0.46553146E+03</pdfrwt>
<pdfrwt beam="2">  1       -2 0.10603813E-01 0.46553146E+03</pdfrwt>
<totfact> 0.21993762E+03</totfact>
</mgrwt>
</event>
<event>
 6    1  0.1190675E-005  0.2943889E+03  0.7546771E-02  0.1088080E+00
          1   -1    0    0  501    0  0.00000000000E+00  0.00000000000E+00  0.76590894891E+02  0.76590894891E+02  0.00000000000E+00 0. -1.
         -1   -1    0    0    0  501 -0.00000000000E+00 -0.00000000000E+00 -0.28288223036E+03  0.28288223036E+03  0.00000000000E+00 0.  1.
          5    1    1    2  502    0  0.92520079239E+02 -0.41998306139E+02 -0.90755163109E+02  0.13631732249E+03  0.47000000000E+01 0. -1.
         -5    1    1    2    0  502 -0.64553471789E+01  0.10079852170E+02  0.28134428896E+02  0.30933978345E+02  0.47000000000E+01 0. -1.
        -11    1    1    2    0    0 -0.10792916948E+02 -0.18719467249E+02 -0.76086044350E+02  0.79094826981E+02  0.00000000000E+00 0.  1.
         11    1    1    2    0    0 -0.75271815113E+02  0.50637921218E+02 -0.67584556908E+02  0.11312699743E+03  0.00000000000E+00 0. -1.
<mgrwt>
<rscale>  0 0.29438888E+03</rscale>
<asrwt>0</asrwt>
<pdfrwt beam="1">  1        1 0.11783215E-01 0.29438888E+03</pdfrwt>
<pdfrwt beam="2">  1       -1 0.43520342E-01 0.29438888E+03</pdfrwt>
<totfact> 0.27230560E+03</totfact>
</mgrwt>
</event>
<event>
 6    1  0.1190675E-005  0.1733984E+03  0.7546771E-02  0.1180437E+00
          1   -1    0    0  501    0  0.00000000000E+00  0.00000000000E+00  0.25608668654E+03  0.25608668654E+03  0.00000000000E+00 0. -1.
         -1   -1    0    0    0  501 -0.00000000000E+00 -0.00000000000E+00 -0.19106294122E+03  0.19106294122E+03  0.00000000000E+00 0.  1.
          5    1    1    2  502    0  0.28151204718E+02  0.56611696982E+02  0.17676251176E+03  0.18778831200E+03  0.47000000000E+01 0.  1.
         -5    1    1    2    0  502 -0.17123275568E+02  0.63083019030E+02  0.87023419080E+01  0.66109716463E+02  0.47000000000E+01 0.  1.
        -11    1    1    2    0    0 -0.87019800784E+01 -0.69076316728E+02 -0.12426084913E+03  0.14243602289E+03  0.00000000000E+00 0.  1.
         11    1    1    2    0    0 -0.23259490720E+01 -0.50618399284E+02  0.38197407844E+01  0.50815576400E+02  0.00000000000E+00 0. -1.
<mgrwt>
<rscale>  0 0.16754099E+03</rscale>
<asrwt>0</asrwt>
<pdfrwt beam="1">  1        1 0.39397952E-01 0.17339838E+03</pdfrwt>
<pdfrwt beam="2">  1       -1 0.29394299E-01 0.17339838E+03</pdfrwt>
<totfact> 0.11269328E+03</totfact>
</mgrwt>
</event>
<event>
 6    1  0.1190675E-005  0.1290627E+03  0.7546771E-02  0.1243482E+00
         -2   -1    0    0    0  501 -0.00000000000E+00  0.00000000000E+00  0.38495118488E+02  0.38495118488E+02  0.00000000000E+00 0.  1.
          2   -1    0    0  501    0  0.00000000000E+00 -0.00000000000E+00 -0.36203180316E+03  0.36203180316E+03  0.00000000000E+00 0. -1.
          5    1    1    2  502    0 -0.23166710605E+02 -0.43374324626E+02 -0.25020235474E+02  0.55372653000E+02  0.47000000000E+01 0.  1.
         -5    1    1    2    0  502 -0.39808451861E+01  0.26264113494E+02 -0.21919461812E+03  0.22084841271E+03  0.47000000000E+01 0.  1.
        -11    1    1    2    0    0  0.32959628003E+01  0.20428254253E+02  0.15893952041E+02  0.26092041969E+02  0.00000000000E+00 0.  1.
         11    1    1    2    0    0  0.23851592991E+02 -0.33180431209E+01 -0.95215783116E+02  0.98213813961E+02  0.00000000000E+00 0. -1.
<mgrwt>
<rscale>  0 0.11976708E+03</rscale>
<asrwt>0</asrwt>
<pdfrwt beam="2">  1        2 0.55697201E-01 0.12906271E+03</pdfrwt>
<pdfrwt beam="1">  1       -2 0.59223259E-02 0.12906271E+03</pdfrwt>
<totfact> 0.12646604E+04</totfact>
</mgrwt>
</event>
<event>
 6    1  0.1190675E-005  0.1679218E+03  0.7546771E-02  0.1200467E+00
          2   -1    0    0  501    0  0.00000000000E+00  0.00000000000E+00  0.13470632141E+04  0.13470632141E+04  0.00000000000E+00 0. -1.
         -2   -1    0    0    0  501 -0.00000000000E+00 -0.00000000000E+00 -0.14429564092E+02  0.14429564092E+02  0.00000000000E+00 0.  1.
          5    1    1    2  502    0 -0.69934566829E+02 -0.35920870996E+02  0.87589798988E+03  0.87943193670E+03  0.47000000000E+01 0. -1.
         -5    1    1    2    0  502  0.16285941032E+02  0.30300390209E+02  0.45985634911E+02  0.57620431621E+02  0.47000000000E+01 0.  1.
        -11    1    1    2    0    0 -0.15286598473E+02 -0.12689429324E+02  0.23942474806E+02  0.31111795340E+02  0.00000000000E+00 0.  1.
         11    1    1    2    0    0  0.68935224270E+02  0.18309910112E+02  0.38680755039E+03  0.39332861451E+03  0.00000000000E+00 0. -1.
<mgrwt>
<rscale>  0 0.15000489E+03</rscale>
<asrwt>0</asrwt>
<pdfrwt beam="1">  1        2 0.20724040E+00 0.16792178E+03</pdfrwt>
<pdfrwt beam="2">  1       -2 0.22199340E-02 0.16792178E+03</pdfrwt>
<totfact> 0.10737056E+04</totfact>
</mgrwt>
</event>
<event>
 6    1  0.1190675E-005  0.1345438E+03  0.7546771E-02  0.1232316E+00
          3   -1    0    0  501    0  0.00000000000E+00  0.00000000000E+00  0.54508278914E+03  0.54508278914E+03  0.00000000000E+00 0. -1.
         -3   -1    0    0    0  501 -0.00000000000E+00 -0.00000000000E+00 -0.26944209093E+02  0.26944209093E+02  0.00000000000E+00 0.  1.
          5    1    1    2  502    0 -0.50562237559E+02  0.71038945944E+01  0.24727477955E+03  0.25253497141E+03  0.47000000000E+01 0. -1.
         -5    1    1    2    0  502  0.44182532100E+02  0.42262504126E+02  0.76234099916E+02  0.97836309148E+02  0.47000000000E+01 0. -1.
        -11    1    1    2    0    0  0.31861952113E+02 -0.45163610735E+02  0.49345854363E+02  0.74094190527E+02  0.00000000000E+00 0.  1.
         11    1    1    2    0    0 -0.25482246654E+02 -0.42027879856E+01  0.14528384622E+03  0.14756152715E+03  0.00000000000E+00 0. -1.
<mgrwt>
<rscale>  0 0.12677817E+03</rscale>
<asrwt>0</asrwt>
<pdfrwt beam="1">  1        3 0.83858883E-01 0.13454382E+03</pdfrwt>
<pdfrwt beam="2">  1       -3 0.41452633E-02 0.13454382E+03</pdfrwt>
<totfact> 0.95255871E+02</totfact>
</mgrwt>
</event>
<event>
 6    1  0.1190675E-005  0.1651422E+03  0.7546771E-02  0.1190042E+00
          2   -1    0    0  501    0  0.00000000000E+00  0.00000000000E+00  0.74882516943E+03  0.74882516943E+03  0.00000000000E+00 0. -1.
         -2   -1    0    0    0  501 -0.00000000000E+00 -0.00000000000E+00 -0.38840325848E+02  0.38840325848E+02  0.00000000000E+00 0.  1.
          5    1    1    2  502    0  0.33778633793E+02 -0.17475063907E+02  0.27098577745E+03  0.27368185096E+03  0.47000000000E+01 0.  1.
         -5    1    1    2    0  502  0.22903400114E+02  0.10931442816E+03  0.27897854694E+03  0.30054172688E+03  0.47000000000E+01 0.  1.
        -11    1    1    2    0    0 -0.76316914985E+02 -0.55584363216E+02  0.81369116431E+02  0.12463878231E+03  0.00000000000E+00 0.  1.
         11    1    1    2    0    0  0.19634881079E+02 -0.36255001033E+02  0.78651402755E+02  0.88803135137E+02  0.00000000000E+00 0. -1.
<mgrwt>
<rscale>  0 0.15881404E+03</rscale>
<asrwt>0</asrwt>
<pdfrwt beam="1">  1        2 0.11520386E+00 0.16514224E+03</pdfrwt>
<pdfrwt beam="2">  1       -2 0.59754353E-02 0.16514224E+03</pdfrwt>
<totfact> 0.56156171E+03</totfact>
</mgrwt>
</event>
<event>
 6    1  0.1190675E-005  0.1307392E+03  0.7546771E-02  0.1241011E+00
          1   -1    0    0  501    0  0.00000000000E+00  0.00000000000E+00  0.27225311467E+03  0.27225311467E+03  0.00000000000E+00 0. -1.
         -1   -1    0    0    0  501 -0.00000000000E+00 -0.00000000000E+00 -0.11432358407E+03  0.11432358407E+03  0.00000000000E+00 0.  1.
          5    1    1    2  502    0 -0.12059838729E+02 -0.48130997483E+02  0.69111929930E+02  0.85209045808E+02  0.47000000000E+01 0.  1.
         -5    1    1    2    0  502 -0.11675822018E+02  0.78197078397E+02  0.16179869789E+03  0.18014443241E+03  0.47000000000E+01 0.  1.
        -11    1    1    2    0    0 -0.17988094154E+02 -0.20744944458E+02 -0.73506875869E+02  0.78467732552E+02  0.00000000000E+00 0.  1.
         11    1    1    2    0    0  0.41723754901E+02 -0.93211364570E+01  0.52577864720E+00  0.42755487965E+02  0.00000000000E+00 0. -1.
<mgrwt>
<rscale>  0 0.12127329E+03</rscale>
<asrwt>0</asrwt>
<pdfrwt beam="1">  1        1 0.41885094E-01 0.13073925E+03</pdfrwt>
<pdfrwt beam="2">  1       -1 0.17588244E-01 0.13073925E+03</pdfrwt>
<totfact> 0.23960905E+03</totfact>
</mgrwt>
</event>
<event>
 6    1  0.1190675E-005  0.3939608E+03  0.7546771E-02  0.1045891E+00
          2   -1    0    0  501    0  0.00000000000E+00  0.00000000000E+00  0.19787900105E+03  0.19787900105E+03  0.00000000000E+00 0. -1.
         -2   -1    0    0    0  501 -0.00000000000E+00 -0.00000000000E+00 -0.19608585074E+03  0.19608585074E+03  0.00000000000E+00 0.  1.
          5    1    1    2  502    0 -0.36483158869E+01  0.17385895878E+03  0.48534113247E+01  0.17402842687E+03  0.47000000000E+01 0. -1.
         -5    1    1    2    0  502  0.16598114803E+02 -0.12270643708E+02  0.25130058268E+02  0.32858422674E+02  0.47000000000E+01 0. -1.
        -11    1    1    2    0    0 -0.28235201707E+02 -0.12196184445E+03 -0.55122955868E+02  0.13678617759E+03  0.00000000000E+00 0. -1.
         11    1    1    2    0    0  0.15285402791E+02 -0.39626470624E+02  0.26932636584E+02  0.50291824643E+02  0.00000000000E+00 0.  1.
<mgrwt>
<rscale>  0 0.39396077E+03</rscale>
<asrwt>0</asrwt>
<pdfrwt beam="1">  1        2 0.30442923E-01 0.39396077E+03</pdfrwt>
<pdfrwt beam="2">  1       -2 0.30167054E-01 0.39396077E+03</pdfrwt>
<totfact> 0.17583819E+03</totfact>
</mgrwt>
</event>
<event>
 6    1  0.1190675E-005  0.3364908E+03  0.7546771E-02  0.1069560E+00
          1   -1    0    0  501    0  0.00000000000E+00  0.00000000000E+00  0.53407068060E+03  0.53407068060E+03  0.00000000000E+00 0. -1.
         -1   -1    0    0    0  501 -0.00000000000E+00 -0.00000000000E+00 -0.24703149919E+03  0.24703149919E+03  0.00000000000E+00 0.  1.
          5    1    1    2  502    0 -0.95540451777E+02  0.16566184156E+03  0.25899962727E+03  0.32198559067E+03  0.47000000000E+01 0.  1.
         -5    1    1    2    0  502 -0.90951997116E+02  0.84981193235E+02  0.47948139121E+02  0.13347352932E+03  0.47000000000E+01 0.  1.
        -11    1    1    2    0    0  0.82762352760E+02 -0.60617362472E+02 -0.35581766808E+02  0.10858238253E+03  0.00000000000E+00 0. -1.
         11    1    1    2    0    0  0.10373009613E+03 -0.19002567232E+03  0.15673181831E+02  0.21706067726E+03  0.00000000000E+00 0.  1.
<mgrwt>
<rscale>  0 0.33358929E+03</rscale>
<asrwt>0</asrwt>
<pdfrwt beam="1">  1        1 0.82164720E-01 0.33649083E+03</pdfrwt>
<pdfrwt beam="2">  1       -1 0.38004846E-01 0.33649083E+03</pdfrwt>
<totfact> 0.28005587E+02</totfact>
</mgrwt>
</event>
<event>
 6    1  0.1190675E-005  0.1318396E+03  0.7546771E-02  0.1237806E+00
         -1   -1    0    0    0  501 -0.00000000000E+00  0.00000000000E+00  0.42835989551E+02  0.42835989551E+02  0.00000000000E+00 0.  1.
          1   -1    0    0  501    0  0.00000000000E+00 -0.00000000000E+00 -0.36157194888E+03  0.36157194888E+03  0.00000000000E+00 0. -1.
          5    1    1    2  502    0 -0.46643920325E+02 -0.37550527278E-02 -0.69356897970E+02  0.83714542425E+02  0.47000000000E+01 0. -1.
         -5    1    1    2    0  502  0.78665502974E+02  0.27052685710E+02 -0.18006581979E+03  0.19840841368E+03  0.47000000000E+01 0. -1.
        -11    1    1    2    0    0 -0.52185659611E+02  0.12245490819E+02 -0.23124264607E+02  0.58378306998E+02  0.00000000000E+00 0.  1.
         11    1    1    2    0    0  0.20164076961E+02 -0.39294421476E+02 -0.46188976970E+02  0.63906675335E+02  0.00000000000E+00 0. -1.
<mgrwt>
<rscale>  0 0.12326472E+03</rscale>
<asrwt>0</asrwt>
<pdfrwt beam="2">  1        1 0.55626454E-01 0.13183956E+03</pdfrwt>
<pdfrwt beam="1">  1       -1 0.65901522E-02 0.13183956E+03</pdfrwt>
<totfact> 0.76037128E+03</totfact>
</mgrwt>
</event>
<event>
 6    1  0.1190675E-005  0.1236549E+03  0.7546771E-02  0.1245040E+00
         -1   -1    0    0    0  501 -0.00000000000E+00  0.00000000000E+00  0.65751894473E+03  0.65751894473E+03  0.00000000000E+00 0.  1.
          1   -1    0    0  501    0  0.00000000000E+00 -0.00000000000E+00 -0.20805870525E+02  0.20805870525E+02  0.00000000000E+00 0. -1.
          5    1    1    2  502    0  0.13001984722E+01  0.51695926082E+02  0.19034326068E+03  0.19729877389E+03  0.47000000000E+01 0. -1.
         -5    1    1    2    0  502 -0.51007893769E+02 -0.32536254128E+02  0.84023033000E+02  0.10364542023E+03  0.47000000000E+01 0.  1.
        -11    1    1    2    0    0  0.25151581193E+01 -0.49084469398E+02  0.18657433652E+03  0.19293935370E+03  0.00000000000E+00 0. -1.
         11    1    1    2    0    0  0.47192537177E+02  0.29924797444E+02  0.17577244400E+03  0.18444126745E+03  0.00000000000E+00 0.  1.
<mgrwt>
<rscale>  0 0.11883006E+03</rscale>
<asrwt>0</asrwt>
<pdfrwt beam="2">  1        1 0.32009037E-02 0.12365494E+03</pdfrwt>
<pdfrwt beam="1">  1       -1 0.10115674E+00 0.12365494E+03</pdfrwt>
<totfact> 0.29283406E+03</totfact>
</mgrwt>
</event>
<event>
 6    1  0.1190675E-005  0.2924265E+03  0.7546771E-02  0.1090785E+00
         -1   -1    0    0    0  501 -0.00000000000E+00  0.00000000000E+00  0.45417153037E+03  0.45417153037E+03  0.00000000000E+00 0.  1.
          1   -1    0    0  501    0  0.00000000000E+00 -0.00000000000E+00 -0.18607851771E+03  0.18607851771E+03  0.00000000000E+00 0. -1.
          5    1    1    2  502    0 -0.52189142182E+02 -0.21833753601E+02  0.56913749278E+02  0.80384601852E+02  0.47000000000E+01 0.  1.
         -5    1    1    2    0  502 -0.83047120096E+02 -0.20532635143E+03  0.22758354904E+02  0.22270107199E+03  0.47000000000E+01 0.  1.
        -11    1    1    2    0    0  0.95835520724E+02  0.19557206243E+03  0.11026563333E+03  0.24411347470E+03  0.00000000000E+00 0. -1.
         11    1    1    2    0    0  0.39400741554E+02  0.31588042602E+02  0.78155275153E+02  0.93050899537E+02  0.00000000000E+00 0.  1.
<mgrwt>
<rscale>  0 0.28916633E+03</rscale>
<asrwt>0</asrwt>
<pdfrwt beam="2">  1        1 0.28627464E-01 0.29242654E+03</pdfrwt>
<pdfrwt beam="1">  1       -1 0.69872543E-01 0.29242654E+03</pdfrwt>
<totfact> 0.34736369E+02</totfact>
</mgrwt>
</event>
<event>
 6    1  0.1190675E-005  0.2977556E+03  0.7546771E-02  0.1086368E+00
          1   -1    0    0  501    0  0.00000000000E+00  0.00000000000E+00  0.21736491680E+03  0.21736491680E+03  0.00000000000E+00 0. -1.
         -1   -1    0    0    0  501 -0.00000000000E+00 -0.00000000000E+00 -0.10196953872E+03  0.10196953872E+03  0.00000000000E+00 0.  1.
          5    1    1    2  502    0  0.75544019899E+02  0.73637972461E+02  0.54709611078E+02  0.11893141500E+03  0.47000000000E+01 0.  1.
         -5    1    1    2    0  502 -0.23843605678E+02 -0.95045984108E+01  0.74103739231E+02  0.78564044516E+02  0.47000000000E+01 0.  1.
        -11    1    1    2    0    0 -0.37019921644E+02 -0.36973675014E+02 -0.51092831349E+02  0.73130053041E+02  0.00000000000E+00 0.  1.
         11    1    1    2    0    0 -0.14680492577E+02 -0.27159699036E+02  0.37674859121E+02  0.48708942955E+02  0.00000000000E+00 0. -1.
<mgrwt>
<rscale>  0 0.29775561E+03</rscale>
<asrwt>0</asrwt>
<pdfrwt beam="1">  1        1 0.33440756E-01 0.29775561E+03</pdfrwt>
<pdfrwt beam="2">  1       -1 0.15687621E-01 0.29775561E+03</pdfrwt>
<totfact> 0.39351442E+03</totfact>
</mgrwt>
</event>
<event>
 6    1  0.1190675E-005  0.2634687E+03  0.7546771E-02  0.1105077E+00
         -1   -1    0    0    0  501 -0.00000000000E+00  0.00000000000E+00  0.16316535885E+02  0.16316535885E+02  0.00000000000E+00 0.  1.
          1   -1    0    0  501    0  0.00000000000E+00 -0.00000000000E+00 -0.10635802101E+04  0.10635802101E+04  0.00000000000E+00 0. -1.
          5    1    1    2  502    0  0.71363375399E+02 -0.59765976391E+02 -0.52577752975E+03  0.53397453505E+03  0.47000000000E+01 0.  1.
         -5    1    1    2    0  502 -0.28215483018E+02  0.30688201130E+02 -0.26956984771E+03  0.27281472095E+03  0.47000000000E+01 0.  1.
        -11    1    1    2    0    0  0.17208942989E+00  0.42052130937E+02 -0.46171774502E+02  0.62451934252E+02  0.00000000000E+00 0.  1.
         11    1    1    2    0    0 -0.43319981811E+02 -0.12974355676E+02 -0.20574452220E+03  0.21065555570E+03  0.00000000000E+00 0. -1.
<mgrwt>
<rscale>  0 0.26346874E+03</rscale>
<asrwt>0</asrwt>
<pdfrwt beam="2">  1        1 0.16362778E+00 0.26346874E+03</pdfrwt>
<pdfrwt beam="1">  1       -1 0.25102354E-02 0.26346874E+03</pdfrwt>
<totfact> 0.70270694E+03</totfact>
</mgrwt>
</event>
<event>
 6    1  0.1190675E-005  0.1300517E+03  0.7546771E-02  0.1240703E+00
         -1   -1    0    0    0  501 -0.00000000000E+00  0.00000000000E+00  0.52676594477E+03  0.52676594477E+03  0.00000000000E+00 0.  1.
          1   -1    0    0  501    0  0.00000000000E+00 -0.00000000000E+00 -0.28474744422E+02  0.28474744422E+02  0.00000000000E+00 0. -1.
          5    1    1    2  502    0  0.59461508606E+01 -0.34332449423E+02  0.13272292423E+03  0.13730090462E+03  0.47000000000E+01 0. -1.
         -5    1    1    2    0  502 -0.61699080279E+01  0.70231821061E+02  0.48276256757E+02  0.85576068039E+02  0.47000000000E+01 0. -1.
        -11    1    1    2    0    0 -0.57342538597E+01 -0.57130983055E+02  0.29665850984E+03  0.30216403220E+03  0.00000000000E+00 0.  1.
         11    1    1    2    0    0  0.59580110270E+01  0.21231611417E+02  0.20633509511E+02  0.30199684328E+02  0.00000000000E+00 0. -1.
<mgrwt>
<rscale>  0 0.12146263E+03</rscale>
<asrwt>0</asrwt>
<pdfrwt beam="2">  1        1 0.43807303E-02 0.13005169E+03</pdfrwt>
<pdfrwt beam="1">  1       -1 0.81040907E-01 0.13005169E+03</pdfrwt>
<totfact> 0.30548418E+03</totfact>
</mgrwt>
</event>
<event>
 6    1  0.1190675E-005  0.3091417E+03  0.7546771E-02  0.1082248E+00
         -2   -1    0    0    0  501 -0.00000000000E+00  0.00000000000E+00  0.38773106353E+02  0.38773106353E+02  0.00000000000E+00 0.  1.
          2   -1    0    0  501    0  0.00000000000E+00 -0.00000000000E+00 -0.24129197759E+04  0.24129197759E+04  0.00000000000E+00 0. -1.
          5    1    1    2  502    0  0.91654489222E+01  0.76122139815E+02 -0.45651185643E+03  0.46292953102E+03  0.47000000000E+01 0.  1.
         -5    1    1    2    0  502 -0.15866297361E+03  0.16386583159E+03 -0.91914431636E+03  0.94703448420E+03  0.47000000000E+01 0.  1.
        -11    1    1    2    0    0  0.49407844914E+02 -0.32381146357E+02 -0.12361680966E+03  0.13700653053E+03  0.00000000000E+00 0.  1.
         11    1    1    2    0    0  0.10008967977E+03 -0.20760682505E+03 -0.87487368709E+03  0.90472233650E+03  0.00000000000E+00 0. -1.
<mgrwt>
<rscale>  0 0.30606348E+03</rscale>
<asrwt>0</asrwt>
<pdfrwt beam="2">  1        2 0.37121850E+00 0.30914174E+03</pdfrwt>
<pdfrwt beam="1">  1       -2 0.59650922E-02 0.30914174E+03</pdfrwt>
<totfact> 0.66405974E+02</totfact>
</mgrwt>
</event>
<event>
 6    1  0.1190675E-005  0.1259358E+03  0.7546771E-02  0.1240943E+00
          1   -1    0    0  501    0  0.00000000000E+00  0.00000000000E+00  0.40659015710E+02  0.40659015710E+02  0.00000000000E+00 0. -1.
         -1   -1    0    0    0  501 -0.00000000000E+00 -0.00000000000E+00 -0.42804960885E+03  0.42804960885E+03  0.00000000000E+00 0.  1.
          5    1    1    2  502    0  0.44494641127E+02 -0.33029839842E+02 -0.10447439783E+03  0.11835426993E+03  0.47000000000E+01 0.  1.
         -5    1    1    2    0  502 -0.32676341077E+02  0.23434715402E+02  0.67588302240E+01  0.41045108578E+02  0.47000000000E+01 0.  1.
        -11    1    1    2    0    0  0.40663320178E+02  0.30439607233E+02 -0.16008319857E+03  0.16794852117E+03  0.00000000000E+00 0.  1.
         11    1    1    2    0    0 -0.52481620228E+02 -0.20844482793E+02 -0.12959182696E+03  0.14136072488E+03  0.00000000000E+00 0. -1.
<mgrwt>
<rscale>  0 0.12131530E+03</rscale>
<asrwt>0</asrwt>
<pdfrwt beam="1">  1        1 0.62552327E-02 0.12593582E+03</pdfrwt>
<pdfrwt beam="2">  1       -1 0.65853791E-01 0.12593582E+03</pdfrwt>
<totfact> 0.28386363E+03</totfact>
</mgrwt>
</event>
<event>
 6    1  0.1190675E-005  0.1589646E+03  0.7546771E-02  0.1196953E+00
         -1   -1    0    0    0  501 -0.00000000000E+00  0.00000000000E+00  0.27356054647E+03  0.27356054647E+03  0.00000000000E+00 0. -1.
          1   -1    0    0  501    0  0.00000000000E+00 -0.00000000000E+00 -0.79638496157E+02  0.79638496157E+02  0.00000000000E+00 0.  1.
          5    1    1    2  502    0  0.66227988131E+02  0.12666271738E+02  0.13684210392E+03  0.15262513639E+03  0.47000000000E+01 0.  1.
         -5    1    1    2    0  502  0.31015250600E+02  0.10190536855E+01 -0.26339628651E+02  0.40973775487E+02  0.47000000000E+01 0.  1.
        -11    1    1    2    0    0  0.13277344821E+02 -0.19662703689E+02  0.24924972733E+02  0.34411685044E+02  0.00000000000E+00 0. -1.
         11    1    1    2    0    0 -0.11052058355E+03  0.59773782653E+01  0.58494602310E+02  0.12518844571E+03  0.00000000000E+00 0.  1.
<mgrwt>
<rscale>  0 0.15290124E+03</rscale>
<asrwt>0</asrwt>
<pdfrwt beam="2">  1        1 0.12252076E-01 0.15896459E+03</pdfrwt>
<pdfrwt beam="1">  1       -1 0.42086238E-01 0.15896459E+03</pdfrwt>
<totfact> 0.26788918E+03</totfact>
</mgrwt>
</event>
<event>
 6    1  0.1190675E-005  0.1562223E+03  0.7546771E-02  0.1201247E+00
          1   -1    0    0  501    0  0.00000000000E+00  0.00000000000E+00  0.74450608503E+03  0.74450608503E+03  0.00000000000E+00 0. -1.
         -1   -1    0    0    0  501 -0.00000000000E+00 -0.00000000000E+00 -0.29353291202E+02  0.29353291202E+02  0.00000000000E+00 0.  1.
          5    1    1    2  502    0 -0.46253514948E+01 -0.79612647898E+02  0.15849631994E+03  0.17749011527E+03  0.47000000000E+01 0. -1.
         -5    1    1    2    0  502 -0.59769103465E+02  0.11543849187E+02  0.32286297569E+03  0.32858514460E+03  0.47000000000E+01 0. -1.
        -11    1    1    2    0    0 -0.18629720577E+02  0.26355905845E+02  0.31152432975E+02  0.44857266323E+02  0.00000000000E+00 0.  1.
         11    1    1    2    0    0  0.83024175536E+02  0.41712892866E+02  0.20264106522E+03  0.22292685004E+03  0.00000000000E+00 0. -1.
<mgrwt>
<rscale>  0 0.14937206E+03</rscale>
<asrwt>0</asrwt>
<pdfrwt beam="1">  1        1 0.11453938E+00 0.15622227E+03</pdfrwt>
<pdfrwt beam="2">  1       -1 0.45158915E-02 0.15622227E+03</pdfrwt>
<totfact> 0.51495587E+03</totfact>
</mgrwt>
</event>
<event>
 6    1  0.1190675E-005  0.1305554E+03  0.7546771E-02  0.1239868E+00
         -2   -1    0    0    0  501 -0.00000000000E+00  0.00000000000E+00  0.25356431847E+02  0.25356431847E+02  0.00000000000E+00 0.  1.
          2   -1    0    0  501    0  0.00000000000E+00 -0.00000000000E+00 -0.55044564576E+03  0.55044564576E+03  0.00000000000E+00 0. -1.
          5    1    1    2  502    0  0.35026515090E+01 -0.35194624197E+02 -0.24065288554E+03  0.24328343853E+03  0.47000000000E+01 0. -1.
         -5    1    1    2    0  502 -0.18465257932E+02  0.70210774669E+02 -0.12068267693E+03  0.14091457391E+03  0.47000000000E+01 0. -1.
        -11    1    1    2    0    0 -0.35037723527E+02 -0.11380784467E+02 -0.10328432819E+03  0.10965772556E+03  0.00000000000E+00 0.  1.
         11    1    1    2    0    0  0.50000329950E+02 -0.23635366006E+02 -0.60469323246E+02  0.81946339608E+02  0.00000000000E+00 0. -1.
<mgrwt>
<rscale>  0 0.12197854E+03</rscale>
<asrwt>0</asrwt>
<pdfrwt beam="2">  1        2 0.84683937E-01 0.13055544E+03</pdfrwt>
<pdfrwt beam="1">  1       -2 0.39009899E-02 0.13055544E+03</pdfrwt>
<totfact> 0.15030495E+04</totfact>
</mgrwt>
</event>
<event>
 6    1  0.1190675E-005  0.1322115E+03  0.7546771E-02  0.1240402E+00
         -1   -1    0    0    0  501 -0.00000000000E+00  0.00000000000E+00  0.32473443060E+02  0.32473443060E+02  0.00000000000E+00 0.  1.
          1   -1    0    0  501    0  0.00000000000E+00 -0.00000000000E+00 -0.48575806521E+03  0.48575806521E+03  0.00000000000E+00 0. -1.
          5    1    1    2  502    0  0.57537290417E+02  0.77096736363E+01 -0.13518883457E+03  0.14720084866E+03  0.47000000000E+01 0.  1.
         -5    1    1    2    0  502 -0.51912551111E+02 -0.50410647312E+02 -0.23176003760E+03  0.24283935297E+03  0.47000000000E+01 0.  1.
        -11    1    1    2    0    0 -0.62956842420E+01  0.64999204133E+02 -0.39516099070E+02  0.76328594011E+02  0.00000000000E+00 0.  1.
         11    1    1    2    0    0  0.67094493577E+00 -0.22298230457E+02 -0.46819650922E+02  0.51862712627E+02  0.00000000000E+00 0. -1.
<mgrwt>
<rscale>  0 0.12164839E+03</rscale>
<asrwt>0</asrwt>
<pdfrwt beam="2">  1        1 0.74732007E-01 0.13221151E+03</pdfrwt>
<pdfrwt beam="1">  1       -1 0.49959145E-02 0.13221151E+03</pdfrwt>
<totfact> 0.78923399E+03</totfact>
</mgrwt>
</event>
<event>
 6    1  0.1190675E-005  0.2653800E+03  0.7546771E-02  0.1106077E+00
         -2   -1    0    0    0  501 -0.00000000000E+00  0.00000000000E+00  0.56708819200E+02  0.56708819200E+02  0.00000000000E+00 0.  1.
          2   -1    0    0  501    0  0.00000000000E+00 -0.00000000000E+00 -0.11768718061E+04  0.11768718061E+04  0.00000000000E+00 0. -1.
          5    1    1    2  502    0 -0.26530070981E+02  0.30661423783E+02 -0.21761067764E+03  0.22140565620E+03  0.47000000000E+01 0.  1.
         -5    1    1    2    0  502 -0.20506141588E+03  0.34535712721E+01 -0.36243124474E+03  0.41646201339E+03  0.47000000000E+01 0.  1.
        -11    1    1    2    0    0  0.38128978728E+02  0.24222546255E+02 -0.62583685694E+02  0.77183343287E+02  0.00000000000E+00 0. -1.
         11    1    1    2    0    0  0.19346250813E+03 -0.58337541311E+02 -0.47753737886E+03  0.51852961245E+03  0.00000000000E+00 0.  1.
<mgrwt>
<rscale>  0 0.26178328E+03</rscale>
<asrwt>0</asrwt>
<pdfrwt beam="2">  1        2 0.18105717E+00 0.26537998E+03</pdfrwt>
<pdfrwt beam="1">  1       -2 0.87244352E-02 0.26537998E+03</pdfrwt>
<totfact> 0.16992218E+03</totfact>
</mgrwt>
</event>
<event>
 6    1  0.1190675E-005  0.1460006E+03  0.7546771E-02  0.1215259E+00
          2   -1    0    0  501    0  0.00000000000E+00  0.00000000000E+00  0.82596005790E+03  0.82596005790E+03  0.00000000000E+00 0. -1.
         -2   -1    0    0    0  501 -0.00000000000E+00 -0.00000000000E+00 -0.21180929914E+02  0.21180929914E+02  0.00000000000E+00 0.  1.
          5    1    1    2  502    0 -0.57121638516E+02 -0.26871982861E+02  0.38618259681E+03  0.39133626606E+03  0.47000000000E+01 0.  1.
         -5    1    1    2    0  502 -0.16358827273E+02  0.43944138750E+02  0.50343271475E+02  0.68958201420E+02  0.47000000000E+01 0.  1.
        -11    1    1    2    0    0  0.30651202999E+02  0.31429015757E+02  0.78357522591E+02  0.89817485064E+02  0.00000000000E+00 0.  1.
         11    1    1    2    0    0  0.42829262791E+02 -0.48501171646E+02  0.28989573711E+03  0.29702903528E+03  0.00000000000E+00 0. -1.
<mgrwt>
<rscale>  0 0.13857532E+03</rscale>
<asrwt>0</asrwt>
<pdfrwt beam="1">  1        2 0.12707075E+00 0.14600056E+03</pdfrwt>
<pdfrwt beam="2">  1       -2 0.32586052E-02 0.14600056E+03</pdfrwt>
<totfact> 0.12251510E+04</totfact>
</mgrwt>
</event>
<event>
 6    1  0.1190675E-005  0.4548840E+03  0.7546771E-02  0.1026276E+00
         -2   -1    0    0    0  501 -0.00000000000E+00  0.00000000000E+00  0.49747803330E+02  0.49747803330E+02  0.00000000000E+00 0. -1.
          2   -1    0    0  501    0  0.00000000000E+00 -0.00000000000E+00 -0.10398423350E+04  0.10398423350E+04  0.00000000000E+00 0.  1.
          5    1    1    2  502    0  0.24279554274E+02  0.25501479509E+02 -0.20783433187E+03  0.21084833818E+03  0.47000000000E+01 0.  1.
         -5    1    1    2    0  502  0.67288590075E+02 -0.13832619244E+03 -0.60284041061E+03  0.62217404360E+03  0.47000000000E+01 0.  1.
        -11    1    1    2    0    0 -0.67437255977E+02  0.21958053788E+02 -0.23903990520E+02  0.74842103008E+02  0.00000000000E+00 0. -1.
         11    1    1    2    0    0 -0.24130888372E+02  0.90866659142E+02 -0.15551579870E+03  0.18172565356E+03  0.00000000000E+00 0.  1.
<mgrwt>
<rscale>  0 0.45488404E+03</rscale>
<asrwt>0</asrwt>
<pdfrwt beam="2">  1        2 0.15997574E+00 0.45488404E+03</pdfrwt>
<pdfrwt beam="1">  1       -2 0.76535084E-02 0.45488404E+03</pdfrwt>
<totfact> 0.25207554E+03</totfact>
</mgrwt>
</event>
<event>
 6    1  0.1190675E-005  0.4739505E+03  0.7546771E-02  0.1020811E+00
         -2   -1    0    0    0  501 -0.00000000000E+00  0.00000000000E+00  0.91238892713E+02  0.91238892713E+02  0.00000000000E+00 0.  1.
          2   -1    0    0  501    0  0.00000000000E+00 -0.00000000000E+00 -0.61549708650E+03  0.61549708650E+03  0.00000000000E+00 0. -1.
          5    1    1    2  502    0  0.31383841307E+02  0.11243268089E+02 -0.58658653373E+03  0.58755187697E+03  0.47000000000E+01 0. -1.
         -5    1    1    2    0  502 -0.28634171023E+00 -0.13720982130E+01  0.42135621419E+01  0.64659686827E+01  0.47000000000E+01 0.  1.
        -11    1    1    2    0    0  0.42814409517E+01  0.18195274365E+02  0.64459437742E+02  0.67114960030E+02  0.00000000000E+00 0.  1.
         11    1    1    2    0    0 -0.35378940549E+02 -0.28066444241E+02 -0.63446599411E+01  0.45603173535E+02  0.00000000000E+00 0. -1.
<mgrwt>
<rscale>  0 0.47395051E+03</rscale>
<asrwt>0</asrwt>
<pdfrwt beam="2">  1        2 0.94691861E-01 0.47395051E+03</pdfrwt>
<pdfrwt beam="1">  1       -2 0.14036752E-01 0.47395051E+03</pdfrwt>
<totfact> 0.18805003E+03</totfact>
</mgrwt>
</event>
<event>
 6    1  0.1190675E-005  0.1264006E+03  0.7546771E-02  0.1247448E+00
         -2   -1    0    0    0  501 -0.00000000000E+00  0.00000000000E+00  0.21506024370E+02  0.21506024370E+02  0.00000000000E+00 0.  1.
          2   -1    0    0  501    0  0.00000000000E+00 -0.00000000000E+00 -0.56502797953E+03  0.56502797953E+03  0.00000000000E+00 0. -1.
          5    1    1    2  502    0 -0.61116130308E+02 -0.33658462335E+01 -0.22520997831E+03  0.23342693640E+03  0.47000000000E+01 0.  1.
         -5    1    1    2    0  502  0.52094190801E+02  0.19786315133E+02 -0.87277260326E+02  0.10365670818E+03  0.47000000000E+01 0.  1.
        -11    1    1    2    0    0  0.18898679112E+02  0.33602586368E+02 -0.13886237078E+03  0.14411471785E+03  0.00000000000E+00 0. -1.
         11    1    1    2    0    0 -0.98767396049E+01 -0.50023055267E+02 -0.92172345740E+02  0.10533564146E+03  0.00000000000E+00 0.  1.
<mgrwt>
<rscale>  0 0.11740056E+03</rscale>
<asrwt>0</asrwt>
<pdfrwt beam="2">  1        2 0.86927388E-01 0.12640059E+03</pdfrwt>
<pdfrwt beam="1">  1       -2 0.33086189E-02 0.12640059E+03</pdfrwt>
<totfact> 0.18569776E+04</totfact>
</mgrwt>
</event>
<event>
 6    1  0.1190675E-005  0.2236705E+03  0.7546771E-02  0.1134478E+00
          2   -1    0    0  501    0  0.00000000000E+00  0.00000000000E+00  0.65154963969E+03  0.65154963969E+03  0.00000000000E+00 0. -1.
         -2   -1    0    0    0  501 -0.00000000000E+00 -0.00000000000E+00 -0.75962177089E+02  0.75962177089E+02  0.00000000000E+00 0.  1.
          5    1    1    2  502    0  0.10923077903E+03 -0.78220441977E+02  0.14138882766E+03  0.19509662021E+03  0.47000000000E+01 0.  1.
         -5    1    1    2    0  502  0.50788272494E+02 -0.15576476103E+02  0.25064435085E+03  0.25625525525E+03  0.47000000000E+01 0.  1.
        -11    1    1    2    0    0 -0.30457898115E+02 -0.15818372165E+02  0.16714208949E+02  0.38174195949E+02  0.00000000000E+00 0.  1.
         11    1    1    2    0    0 -0.12956115340E+03  0.10961529024E+03  0.16684007514E+03  0.23798574537E+03  0.00000000000E+00 0. -1.
<mgrwt>
<rscale>  0 0.21920338E+03</rscale>
<asrwt>0</asrwt>
<pdfrwt beam="1">  1        2 0.10023840E+00 0.22367052E+03</pdfrwt>
<pdfrwt beam="2">  1       -2 0.11686489E-01 0.22367052E+03</pdfrwt>
<totfact> 0.23481496E+03</totfact>
</mgrwt>
</event>
<event>
 6    1  0.1190675E-005  0.1850714E+03  0.7546771E-02  0.1168052E+00
         -1   -1    0    0    0  501 -0.00000000000E+00  0.00000000000E+00  0.27106959344E+02  0.27106959344E+02  0.00000000000E+00 0.  1.
          1   -1    0    0  501    0  0.00000000000E+00 -0.00000000000E+00 -0.11598505876E+04  0.11598505876E+04  0.00000000000E+00 0. -1.
          5    1    1    2  502    0  0.31102302774E+02  0.29748200794E+02 -0.49144255302E+02  0.65494706027E+02  0.47000000000E+01 0. -1.
         -5    1    1    2    0  502  0.10464495179E+02  0.10024297044E+03 -0.64748017183E+03  0.65529445420E+03  0.47000000000E+01 0. -1.
        -11    1    1    2    0    0 -0.38631200454E+02 -0.32914123661E+02 -0.26129589810E+03  0.26617899156E+03  0.00000000000E+00 0. -1.
         11    1    1    2    0    0 -0.29355974989E+01 -0.97077047575E+02 -0.17482330306E+03  0.19998939519E+03  0.00000000000E+00 0.  1.
<mgrwt>
<rscale>  0 0.17974287E+03</rscale>
<asrwt>0</asrwt>
<pdfrwt beam="2">  1        1 0.17843848E+00 0.18507139E+03</pdfrwt>
<pdfrwt beam="1">  1       -1 0.41703031E-02 0.18507139E+03</pdfrwt>
<totfact> 0.28085282E+03</totfact>
</mgrwt>
</event>
<event>
 6    1  0.1190675E-005  0.1433676E+03  0.7546771E-02  0.1219380E+00
         -1   -1    0    0    0  501 -0.00000000000E+00  0.00000000000E+00  0.48418126667E+02  0.48418126667E+02  0.00000000000E+00 0.  1.
          1   -1    0    0  501    0  0.00000000000E+00 -0.00000000000E+00 -0.56304999362E+03  0.56304999362E+03  0.00000000000E+00 0. -1.
          5    1    1    2  502    0 -0.31960709524E+02 -0.91998645295E+02 -0.40854826791E+03  0.42002263617E+03  0.47000000000E+01 0.  1.
         -5    1    1    2    0  502 -0.77145481005E+01  0.34070908564E+02 -0.56223446294E+02  0.66358925368E+02  0.47000000000E+01 0.  1.
        -11    1    1    2    0    0 -0.26186177076E+01  0.20494043677E+02  0.24281756096E+02  0.31882074337E+02  0.00000000000E+00 0.  1.
         11    1    1    2    0    0  0.42293875332E+02  0.37433693054E+02 -0.74141908852E+02  0.93204484412E+02  0.00000000000E+00 0. -1.
<mgrwt>
<rscale>  0 0.13559630E+03</rscale>
<asrwt>0</asrwt>
<pdfrwt beam="2">  1        1 0.86623075E-01 0.14336763E+03</pdfrwt>
<pdfrwt beam="1">  1       -1 0.74489427E-02 0.14336763E+03</pdfrwt>
<totfact> 0.35961095E+03</totfact>
</mgrwt>
</event>
<event>
 6    1  0.1190675E-005  0.1659059E+03  0.7546771E-02  0.1193749E+00
          2   -1    0    0  501    0  0.00000000000E+00  0.00000000000E+00  0.13260073354E+04  0.13260073354E+04  0.00000000000E+00 0. -1.
         -2   -1    0    0    0  501 -0.00000000000E+00 -0.00000000000E+00 -0.17867616754E+02  0.17867616754E+02  0.00000000000E+00 0.  1.
          5    1    1    2  502    0  0.54651579197E+02 -0.10421135957E+02  0.85165645037E+03  0.85348473603E+03  0.47000000000E+01 0. -1.
         -5    1    1    2    0  502  0.23554306777E+02 -0.38867230690E+02  0.74352347829E+02  0.87268714995E+02  0.47000000000E+01 0.  1.
        -11    1    1    2    0    0 -0.84557162596E+02  0.63996054418E+02  0.36298004623E+03  0.37815330580E+03  0.00000000000E+00 0.  1.
         11    1    1    2    0    0  0.63512766222E+01 -0.14707687770E+02  0.19150874194E+02  0.24968195302E+02  0.00000000000E+00 0. -1.
<mgrwt>
<rscale>  0 0.15560572E+03</rscale>
<asrwt>0</asrwt>
<pdfrwt beam="1">  1        2 0.20400105E+00 0.16590588E+03</pdfrwt>
<pdfrwt beam="2">  1       -2 0.27488651E-02 0.16590588E+03</pdfrwt>
<totfact> 0.80497483E+03</totfact>
</mgrwt>
</event>
<event>
 6    1  0.1190675E-005  0.1255656E+03  0.7546771E-02  0.1250168E+00
         -2   -1    0    0    0  501 -0.00000000000E+00  0.00000000000E+00  0.54043742197E+02  0.54043742197E+02  0.00000000000E+00 0.  1.
          2   -1    0    0  501    0  0.00000000000E+00 -0.00000000000E+00 -0.22057006902E+03  0.22057006902E+03  0.00000000000E+00 0. -1.
          5    1    1    2  502    0 -0.39000843090E+02  0.43148638572E+02 -0.29863648913E+02  0.65549967954E+02  0.47000000000E+01 0. -1.
         -5    1    1    2    0  502  0.48843617023E+02 -0.36459309454E+02 -0.84471196502E+02  0.10427105643E+03  0.47000000000E+01 0. -1.
        -11    1    1    2    0    0  0.18787101898E+02 -0.74069902700E+01  0.19203836872E+02  0.27867652452E+02  0.00000000000E+00 0.  1.
         11    1    1    2    0    0 -0.28629875831E+02  0.71766115123E+00 -0.71395318277E+02  0.76925134381E+02  0.00000000000E+00 0. -1.
<mgrwt>
<rscale>  0 0.11581362E+03</rscale>
<asrwt>0</asrwt>
<pdfrwt beam="2">  1        2 0.33933857E-01 0.12556561E+03</pdfrwt>
<pdfrwt beam="1">  1       -2 0.83144219E-02 0.12556561E+03</pdfrwt>
<totfact> 0.12706939E+04</totfact>
</mgrwt>
</event>
<event>
 6    1  0.1190675E-005  0.1698279E+03  0.7546771E-02  0.1185352E+00
          1   -1    0    0  501    0  0.00000000000E+00  0.00000000000E+00  0.40913331739E+03  0.40913331739E+03  0.00000000000E+00 0. -1.
         -1   -1    0    0    0  501 -0.00000000000E+00 -0.00000000000E+00 -0.61142254726E+02  0.61142254726E+02  0.00000000000E+00 0.  1.
          5    1    1    2  502    0 -0.67698898570E+02 -0.30492469003E+02  0.32946084067E+02  0.81366246005E+02  0.47000000000E+01 0. -1.
         -5    1    1    2    0  502 -0.76830396330E+00 -0.61868475686E+02  0.18378107707E+03  0.19397389738E+03  0.47000000000E+01 0. -1.
        -11    1    1    2    0    0  0.59796872705E+02  0.45283838849E+02  0.26152204270E+02  0.79436955093E+02  0.00000000000E+00 0.  1.
         11    1    1    2    0    0  0.86703298285E+01  0.47077105840E+02  0.10511169726E+03  0.11549847365E+03  0.00000000000E+00 0. -1.
<mgrwt>
<rscale>  0 0.16299918E+03</rscale>
<asrwt>0</asrwt>
<pdfrwt beam="1">  1        1 0.62943586E-01 0.16982795E+03</pdfrwt>
<pdfrwt beam="2">  1       -1 0.94065010E-02 0.16982795E+03</pdfrwt>
<totfact> 0.38534873E+03</totfact>
</mgrwt>
</event>
<event>
 6    1  0.1190675E-005  0.1726570E+03  0.7546771E-02  0.1181250E+00
         -1   -1    0    0    0  501 -0.00000000000E+00  0.00000000000E+00  0.60681649333E+02  0.60681649333E+02  0.00000000000E+00 0.  1.
          1   -1    0    0  501    0  0.00000000000E+00 -0.00000000000E+00 -0.63243362242E+03  0.63243362242E+03  0.00000000000E+00 0. -1.
          5    1    1    2  502    0 -0.33841569697E+01  0.64948070176E+02 -0.23569837459E+03  0.24455166759E+03  0.47000000000E+01 0.  1.
         -5    1    1    2    0  502 -0.10390914928E+03 -0.13229682847E+02 -0.25948990892E+03  0.27987361191E+03  0.47000000000E+01 0.  1.
        -11    1    1    2    0    0  0.86256456913E+02 -0.19216333553E+02 -0.64611792435E+01  0.88606944828E+02  0.00000000000E+00 0.  1.
         11    1    1    2    0    0  0.21036849332E+02 -0.32502053777E+02 -0.70102510326E+02  0.80083047416E+02  0.00000000000E+00 0. -1.
<mgrwt>
<rscale>  0 0.16677772E+03</rscale>
<asrwt>0</asrwt>
<pdfrwt beam="2">  1        1 0.97297478E-01 0.17265699E+03</pdfrwt>
<pdfrwt beam="1">  1       -1 0.93356386E-02 0.17265699E+03</pdfrwt>
<totfact> 0.21910026E+03</totfact>
</mgrwt>
</event>
<event>
 6    1  0.1190675E-005  0.2647134E+03  0.7546771E-02  0.1104344E+00
         -4   -1    0    0    0  501 -0.00000000000E+00  0.00000000000E+00  0.24888205917E+03  0.24888205917E+03  0.00000000000E+00 0.  1.
          4   -1    0    0  501    0  0.00000000000E+00 -0.00000000000E+00 -0.70387958770E+02  0.70387958770E+02  0.00000000000E+00 0. -1.
          5    1    1    2  502    0  0.21883186479E+02 -0.12962530727E+02  0.61911210100E+02  0.67096862738E+02  0.47000000000E+01 0.  1.
         -5    1    1    2    0  502 -0.95135774370E+02  0.19638779466E+02  0.19395147709E+02  0.99170353325E+02  0.47000000000E+01 0.  1.
        -11    1    1    2    0    0  0.21959435760E+02 -0.35407675805E+02  0.27437078182E+01  0.41754619594E+02  0.00000000000E+00 0. -1.
         11    1    1    2    0    0  0.51293152131E+02  0.28731427067E+02  0.94444034769E+02  0.11124818228E+03  0.00000000000E+00 0.  1.
<mgrwt>
<rscale>  0 0.26471343E+03</rscale>
<asrwt>0</asrwt>
<pdfrwt beam="2">  1        4 0.10828917E-01 0.26471343E+03</pdfrwt>
<pdfrwt beam="1">  1       -4 0.38289547E-01 0.26471343E+03</pdfrwt>
<totfact> 0.81965865E+02</totfact>
</mgrwt>
</event>
<event>
 6    1  0.1190675E-005  0.1115024E+03  0.7546771E-02  0.1319579E+00
         -2   -1    0    0    0  501 -0.00000000000E+00  0.00000000000E+00  0.80065595688E+02  0.80065595688E+02  0.00000000000E+00 0.  1.
          2   -1    0    0  501    0  0.00000000000E+00 -0.00000000000E+00 -0.84469516697E+02  0.84469516697E+02  0.00000000000E+00 0. -1.
          5    1    1    2  502    0  0.45001383166E+02  0.30751859836E+02 -0.18136570678E+02  0.57635289243E+02  0.47000000000E+01 0. -1.
         -5    1    1    2    0  502 -0.52289186360E+02 -0.21661274249E+02 -0.18114296000E+02  0.59611974735E+02  0.47000000000E+01 0.  1.
        -11    1    1    2    0    0 -0.76962693964E+01  0.71026509908E+01  0.28530562668E+01  0.10854498781E+02  0.00000000000E+00 0. -1.
         11    1    1    2    0    0  0.14984072590E+02 -0.16193236578E+02  0.28993889402E+02  0.36433349625E+02  0.00000000000E+00 0.  1.
<mgrwt>
<rscale>  0 0.83434049E+02</rscale>
<asrwt>0</asrwt>
<pdfrwt beam="2">  1        2 0.12995310E-01 0.11150245E+03</pdfrwt>
<pdfrwt beam="1">  1       -2 0.12317784E-01 0.11150245E+03</pdfrwt>
<totfact> 0.19918060E+04</totfact>
</mgrwt>
</event>
<event>
 6    1  0.1190675E-005  0.9433240E+03  0.7546771E-02  0.1002861E+00
         -2   -1    0    0    0  501 -0.00000000000E+00  0.00000000000E+00  0.16325895439E+03  0.16325895439E+03  0.00000000000E+00 0.  1.
          2   -1    0    0  501    0  0.00000000000E+00 -0.00000000000E+00 -0.21776436091E+04  0.21776436091E+04  0.00000000000E+00 0. -1.
          5    1    1    2  502    0 -0.28372612685E+02  0.22643838929E+03 -0.19676177775E+04  0.19808132566E+04  0.47000000000E+01 0. -1.
         -5    1    1    2    0  502  0.81676060082E+02 -0.23401049885E+03 -0.59342134531E+02  0.25490286638E+03  0.47000000000E+01 0.  1.
        -11    1    1    2    0    0 -0.29358150944E+02  0.48204356769E+02  0.25754997881E+00  0.56441362230E+02  0.00000000000E+00 0. -1.
         11    1    1    2    0    0 -0.23945296454E+02 -0.40632247211E+02  0.12317707369E+02  0.48745078218E+02  0.00000000000E+00 0.  1.
<mgrwt>
<rscale>  0 0.54413177E+03</rscale>
<asrwt>0</asrwt>
<pdfrwt beam="2">  1        2 0.33502209E+00 0.94332396E+03</pdfrwt>
<pdfrwt beam="1">  1       -2 0.25116762E-01 0.94332396E+03</pdfrwt>
<totfact> 0.76379381E+01</totfact>
</mgrwt>
</event>
<event>
 6    1  0.1190675E-005  0.1257179E+03  0.7546771E-02  0.1250556E+00
         -1   -1    0    0    0  501 -0.00000000000E+00  0.00000000000E+00  0.56884180291E+02  0.56884180291E+02  0.00000000000E+00 0.  1.
          1   -1    0    0  501    0  0.00000000000E+00 -0.00000000000E+00 -0.21569940396E+03  0.21569940396E+03  0.00000000000E+00 0. -1.
          5    1    1    2  502    0  0.48935365406E+02  0.12364978391E+02 -0.65332809153E+01  0.51111020706E+02  0.47000000000E+01 0. -1.
         -5    1    1    2    0  502 -0.44534708059E+02  0.31054325181E+00 -0.11642262115E+03  0.12473874048E+03  0.47000000000E+01 0. -1.
        -11    1    1    2    0    0 -0.14744263655E+02 -0.11819050309E+02 -0.64004588347E+02  0.66735826888E+02  0.00000000000E+00 0. -1.
         11    1    1    2    0    0  0.10343606308E+02 -0.85647133433E+00  0.28145266748E+02  0.29997996182E+02  0.00000000000E+00 0.  1.
<mgrwt>
<rscale>  0 0.11558922E+03</rscale>
<asrwt>0</asrwt>
<pdfrwt beam="2">  1        1 0.33184523E-01 0.12571788E+03</pdfrwt>
<pdfrwt beam="1">  1       -1 0.87514125E-02 0.12571788E+03</pdfrwt>
<totfact> 0.93735582E+03</totfact>
</mgrwt>
</event>
<event>
 6    1  0.1572405E-005  0.2140205E+03  0.7546771E-02  0.1141942E+00
         -1   -1    0    0    0  501 -0.00000000000E+00  0.00000000000E+00  0.96061311767E+02  0.96061311767E+02  0.00000000000E+00 0.  1.
          1   -1    0    0  501    0  0.00000000000E+00 -0.00000000000E+00 -0.46339725393E+03  0.46339725393E+03  0.00000000000E+00 0. -1.
          5    1    1    2  502    0 -0.94801067049E+02 -0.49476599092E+02 -0.23843972792E+03  0.26136329127E+03  0.47000000000E+01 0.  1.
         -5    1    1    2    0  502 -0.69254295629E+02 -0.76711325726E+01 -0.16982666350E+02  0.71871445612E+02  0.47000000000E+01 0.  1.
        -11    1    1    2    0    0  0.23746015685E+02  0.10646016920E+02  0.16168583848E+02  0.30637134997E+02  0.00000000000E+00 0.  1.
         11    1    1    2    0    0  0.14030934699E+03  0.46501714744E+02 -0.12808213174E+03  0.19558669382E+03  0.00000000000E+00 0. -1.
<mgrwt>
<rscale>  0 0.20952647E+03</rscale>
<asrwt>0</asrwt>
<pdfrwt beam="2">  1        1 0.71291886E-01 0.21402054E+03</pdfrwt>
<pdfrwt beam="1">  1       -1 0.14778663E-01 0.21402054E+03</pdfrwt>
<totfact> 0.16370484E+03</totfact>
</mgrwt>
</event>
<event>
 6    1  0.1190675E-005  0.1539959E+03  0.7546771E-02  0.1204005E+00
         -2   -1    0    0    0  501 -0.00000000000E+00  0.00000000000E+00  0.60906530356E+02  0.60906530356E+02  0.00000000000E+00 0.  1.
          2   -1    0    0  501    0  0.00000000000E+00 -0.00000000000E+00 -0.33168188112E+03  0.33168188112E+03  0.00000000000E+00 0. -1.
          5    1    1    2  502    0  0.77256047055E+02 -0.84973332926E+01 -0.26180734693E+02  0.82147564472E+02  0.47000000000E+01 0.  1.
         -5    1    1    2    0  502  0.34201361312E+01 -0.31288108455E+02 -0.14353653680E+03  0.14702200672E+03  0.47000000000E+01 0.  1.
        -11    1    1    2    0    0 -0.42304639919E+02 -0.15435605158E+01 -0.98217163280E+02  0.10695174753E+03  0.00000000000E+00 0. -1.
         11    1    1    2    0    0 -0.38371543267E+02  0.41329002264E+02 -0.28409159927E+01  0.56467092757E+02  0.00000000000E+00 0.  1.
<mgrwt>
<rscale>  0 0.14716153E+03</rscale>
<asrwt>0</asrwt>
<pdfrwt beam="2">  1        2 0.51027981E-01 0.15399591E+03</pdfrwt>
<pdfrwt beam="1">  1       -2 0.93702356E-02 0.15399591E+03</pdfrwt>
<totfact> 0.69372156E+03</totfact>
</mgrwt>
</event>
<event>
 6    1  0.1190675E-005  0.1303345E+03  0.7546771E-02  0.1240348E+00
         -2   -1    0    0    0  501 -0.00000000000E+00  0.00000000000E+00  0.19472444329E+02  0.19472444329E+02  0.00000000000E+00 0.  1.
          2   -1    0    0  501    0  0.00000000000E+00 -0.00000000000E+00 -0.74172756236E+03  0.74172756236E+03  0.00000000000E+00 0. -1.
          5    1    1    2  502    0  0.40823852970E+02  0.11361535238E+02 -0.32360200651E+03  0.32639856016E+03  0.47000000000E+01 0. -1.
         -5    1    1    2    0  502 -0.72871647730E+02  0.69556573012E+01 -0.19529591591E+03  0.20861745608E+03  0.47000000000E+01 0. -1.
        -11    1    1    2    0    0 -0.76192791039E+00 -0.48542193780E+02 -0.67178085280E+02  0.82884378823E+02  0.00000000000E+00 0.  1.
         11    1    1    2    0    0  0.32809722670E+02  0.30225001241E+02 -0.13617911033E+03  0.14329961162E+03  0.00000000000E+00 0. -1.
<mgrwt>
<rscale>  0 0.12168184E+03</rscale>
<asrwt>0</asrwt>
<pdfrwt beam="2">  1        2 0.11411193E+00 0.13033451E+03</pdfrwt>
<pdfrwt beam="1">  1       -2 0.29957607E-02 0.13033451E+03</pdfrwt>
<totfact> 0.15713350E+04</totfact>
</mgrwt>
</event>
<event>
 6    1  0.1190675E-005  0.2725510E+03  0.7546771E-02  0.1099828E+00
         -4   -1    0    0    0  501 -0.00000000000E+00  0.00000000000E+00  0.42232770164E+03  0.42232770164E+03  0.00000000000E+00 0.  1.
          4   -1    0    0  501    0  0.00000000000E+00 -0.00000000000E+00 -0.43972994543E+02  0.43972994543E+02  0.00000000000E+00 0. -1.
          5    1    1    2  502    0  0.16811161898E+01 -0.36485180828E+02  0.10938881730E+03  0.11542095963E+03  0.47000000000E+01 0.  1.
         -5    1    1    2    0  502 -0.28200796790E+01  0.10799305445E+02 -0.31737637568E+02  0.33969773121E+02  0.47000000000E+01 0.  1.
        -11    1    1    2    0    0  0.17298828244E+02 -0.20843258382E+02  0.25063024805E+02  0.36903198925E+02  0.00000000000E+00 0. -1.
         11    1    1    2    0    0 -0.16159864754E+02  0.46529133765E+02  0.27564050255E+03  0.28000676450E+03  0.00000000000E+00 0.  1.
<mgrwt>
<rscale>  0 0.27255101E+03</rscale>
<asrwt>0</asrwt>
<pdfrwt beam="2">  1        4 0.67650764E-02 0.27255101E+03</pdfrwt>
<pdfrwt beam="1">  1       -4 0.64973490E-01 0.27255101E+03</pdfrwt>
<totfact> 0.61094218E+02</totfact>
</mgrwt>
</event>
<event>
 6    1  0.1190675E-005  0.1429845E+03  0.7546771E-02  0.1214374E+00
         -1   -1    0    0    0  501 -0.00000000000E+00  0.00000000000E+00  0.30537392646E+03  0.30537392646E+03  0.00000000000E+00 0.  1.
          1   -1    0    0  501    0  0.00000000000E+00 -0.00000000000E+00 -0.61138908436E+02  0.61138908436E+02  0.00000000000E+00 0. -1.
          5    1    1    2  502    0  0.39069455422E+02  0.23463773738E+02  0.11930081018E+02  0.47343297921E+02  0.47000000000E+01 0. -1.
         -5    1    1    2    0  502  0.26643456155E+02 -0.86190091442E+02  0.95861245524E+02  0.13171967967E+03  0.47000000000E+01 0.  1.
        -11    1    1    2    0    0 -0.75111583987E+02  0.72901989815E+02  0.87017908419E+02  0.13611967732E+03  0.00000000000E+00 0.  1.
         11    1    1    2    0    0  0.93986724110E+01 -0.10175672110E+02  0.49425783063E+02  0.51330179986E+02  0.00000000000E+00 0. -1.
<mgrwt>
<rscale>  0 0.13922587E+03</rscale>
<asrwt>0</asrwt>
<pdfrwt beam="2">  1        1 0.94059861E-02 0.14298454E+03</pdfrwt>
<pdfrwt beam="1">  1       -1 0.46980603E-01 0.14298454E+03</pdfrwt>
<totfact> 0.31058576E+03</totfact>
</mgrwt>
</event>
<event>
 6    1  0.1190675E-005  0.1254155E+03  0.7546771E-02  0.1250176E+00
          1   -1    0    0  501    0  0.00000000000E+00  0.00000000000E+00  0.66213220320E+02  0.66213220320E+02  0.00000000000E+00 0. -1.
         -1   -1    0    0    0  501 -0.00000000000E+00 -0.00000000000E+00 -0.22252721239E+03  0.22252721239E+03  0.00000000000E+00 0.  1.
          5    1    1    2  502    0  0.16008819681E+02  0.59070684900E+01 -0.73241562352E+02  0.75349799081E+02  0.47000000000E+01 0. -1.
         -5    1    1    2    0  502 -0.81908585130E+01 -0.12608283712E+02  0.49804901650E+02  0.52236741952E+02  0.47000000000E+01 0. -1.
        -11    1    1    2    0    0  0.40013843932E+02  0.10638176479E+02 -0.77554241391E+02  0.87914383708E+02  0.00000000000E+00 0. -1.
         11    1    1    2    0    0 -0.47831805099E+02 -0.39369612564E+01 -0.55323089975E+02  0.73239507968E+02  0.00000000000E+00 0.  1.
<mgrwt>
<rscale>  0 0.11580863E+03</rscale>
<asrwt>0</asrwt>
<pdfrwt beam="1">  1        1 0.10186650E-01 0.12541550E+03</pdfrwt>
<pdfrwt beam="2">  1       -1 0.34234955E-01 0.12541550E+03</pdfrwt>
<totfact> 0.48297991E+03</totfact>
</mgrwt>
</event>
<event>
 6    1  0.1190675E-005  0.1281823E+03  0.7546771E-02  0.1245272E+00
          2   -1    0    0  501    0  0.00000000000E+00  0.00000000000E+00  0.47701478204E+02  0.47701478204E+02  0.00000000000E+00 0. -1.
         -2   -1    0    0    0  501 -0.00000000000E+00 -0.00000000000E+00 -0.39694060177E+03  0.39694060177E+03  0.00000000000E+00 0.  1.
          5    1    1    2  502    0 -0.34116363058E+02 -0.28618133275E+02 -0.53981798063E+02  0.70135927331E+02  0.47000000000E+01 0.  1.
         -5    1    1    2    0  502  0.47331007142E+02  0.53835422300E+02 -0.81104217982E+01  0.72293470473E+02  0.47000000000E+01 0.  1.
        -11    1    1    2    0    0 -0.46769072841E+02  0.39758120565E+00 -0.19978025810E+03  0.20518200645E+03  0.00000000000E+00 0.  1.
         11    1    1    2    0    0  0.33554428757E+02 -0.25614870230E+02 -0.87366645604E+02  0.97030675717E+02  0.00000000000E+00 0. -1.
<mgrwt>
<rscale>  0 0.11869090E+03</rscale>
<asrwt>0</asrwt>
<pdfrwt beam="1">  1        2 0.73386891E-02 0.12818225E+03</pdfrwt>
<pdfrwt beam="2">  1       -2 0.61067783E-01 0.12818225E+03</pdfrwt>
<totfact> 0.23212866E+03</totfact>
</mgrwt>
</event>
<event>
 6    1  0.1190675E-005  0.1349945E+03  0.7546771E-02  0.1231485E+00
         -2   -1    0    0    0  501 -0.00000000000E+00  0.00000000000E+00  0.53805382686E+02  0.53805382686E+02  0.00000000000E+00 0.  1.
          2   -1    0    0  501    0  0.00000000000E+00 -0.00000000000E+00 -0.27170437526E+03  0.27170437526E+03  0.00000000000E+00 0. -1.
          5    1    1    2  502    0 -0.50711074943E+02 -0.28755444053E+02 -0.87825800957E+02  0.10551753408E+03  0.47000000000E+01 0. -1.
         -5    1    1    2    0  502  0.15903931399E+02  0.66007146590E+02 -0.32935397048E+02  0.75608920198E+02  0.47000000000E+01 0. -1.
        -11    1    1    2    0    0  0.52777885674E+02 -0.48903799485E+02 -0.99549826874E+02  0.12283018705E+03  0.00000000000E+00 0. -1.
         11    1    1    2    0    0 -0.17970742130E+02  0.11652096948E+02  0.24120323071E+01  0.21553116615E+02  0.00000000000E+00 0.  1.
<mgrwt>
<rscale>  0 0.12732146E+03</rscale>
<asrwt>0</asrwt>
<pdfrwt beam="2">  1        2 0.41800673E-01 0.13499454E+03</pdfrwt>
<pdfrwt beam="1">  1       -2 0.82777512E-02 0.13499454E+03</pdfrwt>
<totfact> 0.10306381E+04</totfact>
</mgrwt>
</event>
<event>
 6    1  0.1190675E-005  0.2846065E+03  0.7546771E-02  0.1094889E+00
          2   -1    0    0  501    0  0.00000000000E+00  0.00000000000E+00  0.10356221010E+04  0.10356221010E+04  0.00000000000E+00 0. -1.
         -2   -1    0    0    0  501 -0.00000000000E+00 -0.00000000000E+00 -0.82221359503E+02  0.82221359503E+02  0.00000000000E+00 0.  1.
          5    1    1    2  502    0  0.34120988442E+02 -0.94701511686E+02  0.37583489907E+03  0.38910998384E+03  0.47000000000E+01 0.  1.
         -5    1    1    2    0  502  0.13497743078E+03 -0.97096946837E+02  0.27768893620E+03  0.32369732652E+03  0.47000000000E+01 0.  1.
        -11    1    1    2    0    0 -0.38603033337E+02  0.75841982845E+02  0.45447910317E+02  0.96476489866E+02  0.00000000000E+00 0.  1.
         11    1    1    2    0    0 -0.13049538589E+03  0.11595647568E+03  0.25442899590E+03  0.30855966026E+03  0.00000000000E+00 0. -1.
<mgrwt>
<rscale>  0 0.28146959E+03</rscale>
<asrwt>0</asrwt>
<pdfrwt beam="1">  1        2 0.15932647E+00 0.28460650E+03</pdfrwt>
<pdfrwt beam="2">  1       -2 0.12649441E-01 0.28460650E+03</pdfrwt>
<totfact> 0.11336818E+03</totfact>
</mgrwt>
</event>
<event>
 6    1  0.1190675E-005  0.2270230E+03  0.7546771E-02  0.1128753E+00
          3   -1    0    0  501    0  0.00000000000E+00  0.00000000000E+00  0.51328949735E+02  0.51328949735E+02  0.00000000000E+00 0. -1.
         -3   -1    0    0    0  501 -0.00000000000E+00 -0.00000000000E+00 -0.25102532445E+03  0.25102532445E+03  0.00000000000E+00 0.  1.
          5    1    1    2  502    0  0.31456827172E+01 -0.58510666395E+02 -0.65022458828E+01  0.59141885355E+02  0.47000000000E+01 0. -1.
         -5    1    1    2    0  502 -0.14954768026E+01  0.14730535503E+02 -0.10811395509E+03  0.10922427575E+03  0.47000000000E+01 0.  1.
        -11    1    1    2    0    0  0.23542562326E+02  0.64351736492E+02 -0.43366092317E+02  0.81092639575E+02  0.00000000000E+00 0.  1.
         11    1    1    2    0    0 -0.25192768241E+02 -0.20571605599E+02 -0.41714081427E+02  0.52895473510E+02  0.00000000000E+00 0. -1.
<mgrwt>
<rscale>  0 0.22702305E+03</rscale>
<asrwt>0</asrwt>
<pdfrwt beam="1">  1        3 0.78967614E-02 0.22702305E+03</pdfrwt>
<pdfrwt beam="2">  1       -3 0.38619281E-01 0.22702305E+03</pdfrwt>
<totfact> 0.18018108E+03</totfact>
</mgrwt>
</event>
<event>
 6    1  0.1190675E-005  0.6173302E+03  0.7546771E-02  0.1001875E+00
         -2   -1    0    0    0  501 -0.00000000000E+00  0.00000000000E+00  0.16034430090E+03  0.16034430090E+03  0.00000000000E+00 0.  1.
          2   -1    0    0  501    0  0.00000000000E+00 -0.00000000000E+00 -0.16067847313E+04  0.16067847313E+04  0.00000000000E+00 0. -1.
          5    1    1    2  502    0  0.23789069979E+03  0.58565312992E+02 -0.85584102577E+03  0.89022908980E+03  0.47000000000E+01 0. -1.
         -5    1    1    2    0  502 -0.23013620689E+03  0.11210562328E+03 -0.17097131254E+03  0.30786949216E+03  0.47000000000E+01 0.  1.
        -11    1    1    2    0    0 -0.25252809201E+02  0.93611101763E+02 -0.37219715446E+02  0.10385590962E+03  0.00000000000E+00 0.  1.
         11    1    1    2    0    0  0.17498316293E+02 -0.26428203803E+03 -0.38240837663E+03  0.46517454059E+03  0.00000000000E+00 0. -1.
<mgrwt>
<rscale>  0 0.54835731E+03</rscale>
<asrwt>0</asrwt>
<pdfrwt beam="2">  1        2 0.24719764E+00 0.61733025E+03</pdfrwt>
<pdfrwt beam="1">  1       -2 0.24668355E-01 0.61733025E+03</pdfrwt>
<totfact> 0.16711986E+02</totfact>
</mgrwt>
</event>
<event>
 6    1  0.1190675E-005  0.1352580E+03  0.7546771E-02  0.1230300E+00
         -2   -1    0    0    0  501 -0.00000000000E+00  0.00000000000E+00  0.16279857765E+02  0.16279857765E+02  0.00000000000E+00 0. -1.
          2   -1    0    0  501    0  0.00000000000E+00 -0.00000000000E+00 -0.12558465569E+04  0.12558465569E+04  0.00000000000E+00 0.  1.
          5    1    1    2  502    0 -0.47713842048E+02 -0.43879551901E+01 -0.41912351696E+03  0.42187969534E+03  0.47000000000E+01 0. -1.
         -5    1    1    2    0  502  0.68792776542E+02  0.51573497455E+02 -0.57956196009E+03  0.58592356782E+03  0.47000000000E+01 0. -1.
        -11    1    1    2    0    0 -0.31056386898E+02 -0.72424497988E+01 -0.15951700017E+02  0.35656822344E+02  0.00000000000E+00 0. -1.
         11    1    1    2    0    0  0.99774524050E+01 -0.39943092466E+02 -0.22492952203E+03  0.22866632912E+03  0.00000000000E+00 0.  1.
<mgrwt>
<rscale>  0 0.12810169E+03</rscale>
<asrwt>0</asrwt>
<pdfrwt beam="2">  1        2 0.19320710E+00 0.13525803E+03</pdfrwt>
<pdfrwt beam="1">  1       -2 0.25045943E-02 0.13525803E+03</pdfrwt>
<totfact> 0.99850770E+03</totfact>
</mgrwt>
</event>
<event>
 6    1  0.1190675E-005  0.1974213E+03  0.7546771E-02  0.1156465E+00
         -2   -1    0    0    0  501 -0.00000000000E+00  0.00000000000E+00  0.69015108125E+02  0.69015108125E+02  0.00000000000E+00 0.  1.
          2   -1    0    0  501    0  0.00000000000E+00 -0.00000000000E+00 -0.60879454528E+03  0.60879454528E+03  0.00000000000E+00 0. -1.
          5    1    1    2  502    0  0.68699204855E+02 -0.78474982490E+02 -0.11925688742E+03  0.15849983855E+03  0.47000000000E+01 0. -1.
         -5    1    1    2    0  502  0.52483412975E+02 -0.14589448852E+02 -0.29963764758E+03  0.30458524341E+03  0.47000000000E+01 0. -1.
        -11    1    1    2    0    0 -0.84748521122E+02  0.82701447867E+01 -0.59721848622E+02  0.10400676098E+03  0.00000000000E+00 0. -1.
         11    1    1    2    0    0 -0.36434096708E+02  0.84794286556E+02 -0.61163053531E+02  0.11071781046E+03  0.00000000000E+00 0.  1.
<mgrwt>
<rscale>  0 0.19223084E+03</rscale>
<asrwt>0</asrwt>
<pdfrwt beam="2">  1        2 0.93660699E-01 0.19742128E+03</pdfrwt>
<pdfrwt beam="1">  1       -2 0.10617709E-01 0.19742128E+03</pdfrwt>
<totfact> 0.29557707E+03</totfact>
</mgrwt>
</event>
<event>
 6    1  0.1190675E-005  0.1325539E+03  0.7546771E-02  0.1235294E+00
          1   -1    0    0  501    0  0.00000000000E+00  0.00000000000E+00  0.91772191058E+03  0.91772191058E+03  0.00000000000E+00 0. -1.
         -1   -1    0    0    0  501 -0.00000000000E+00 -0.00000000000E+00 -0.19154390807E+02  0.19154390807E+02  0.00000000000E+00 0.  1.
          5    1    1    2  502    0  0.72221814251E+02 -0.50415222569E+02  0.46051247337E+03  0.46888326186E+03  0.47000000000E+01 0. -1.
         -5    1    1    2    0  502 -0.34804896576E+02  0.27047394647E+02  0.24074637860E+03  0.24479348683E+03  0.47000000000E+01 0. -1.
        -11    1    1    2    0    0 -0.30777497478E+02  0.36503358659E+02  0.20214483983E+03  0.20770721175E+03  0.00000000000E+00 0. -1.
         11    1    1    2    0    0 -0.66394201977E+01 -0.13135530736E+02 -0.48361720278E+01  0.15492340952E+02  0.00000000000E+00 0.  1.
<mgrwt>
<rscale>  0 0.12485601E+03</rscale>
<asrwt>0</asrwt>
<pdfrwt beam="1">  1        1 0.14118795E+00 0.13255385E+03</pdfrwt>
<pdfrwt beam="2">  1       -1 0.29468301E-02 0.13255385E+03</pdfrwt>
<totfact> 0.69330072E+03</totfact>
</mgrwt>
</event>
<event>
 6    1  0.1190675E-005  0.1414296E+03  0.7546771E-02  0.1222734E+00
          2   -1    0    0  501    0  0.00000000000E+00  0.00000000000E+00  0.25724440316E+03  0.25724440316E+03  0.00000000000E+00 0. -1.
         -2   -1    0    0    0  501 -0.00000000000E+00 -0.00000000000E+00 -0.74313935072E+02  0.74313935072E+02  0.00000000000E+00 0.  1.
          5    1    1    2  502    0  0.40571305734E+02  0.27021384659E+01  0.30083998900E+02  0.50798320751E+02  0.47000000000E+01 0. -1.
         -5    1    1    2    0  502 -0.79330026330E+02 -0.56316418560E+02  0.13722798991E+03  0.16828072763E+03  0.47000000000E+01 0. -1.
        -11    1    1    2    0    0  0.46197611823E+02  0.72871630161E+02 -0.50802795964E+00  0.86282975800E+02  0.00000000000E+00 0.  1.
         11    1    1    2    0    0 -0.74388912272E+01 -0.19257350067E+02  0.16126507243E+02  0.26196314056E+02  0.00000000000E+00 0. -1.
<mgrwt>
<rscale>  0 0.13323441E+03</rscale>
<asrwt>0</asrwt>
<pdfrwt beam="1">  1        2 0.39576061E-01 0.14142959E+03</pdfrwt>
<pdfrwt beam="2">  1       -2 0.11432913E-01 0.14142959E+03</pdfrwt>
<totfact> 0.66029254E+03</totfact>
</mgrwt>
</event>
<event>
 6    1  0.1190675E-005  0.1330084E+03  0.7546771E-02  0.1236172E+00
         -2   -1    0    0    0  501 -0.00000000000E+00  0.00000000000E+00  0.22201989429E+03  0.22201989429E+03  0.00000000000E+00 0.  1.
          2   -1    0    0  501    0  0.00000000000E+00 -0.00000000000E+00 -0.14955493815E+03  0.14955493815E+03  0.00000000000E+00 0. -1.
          5    1    1    2  502    0 -0.91892199859E+01  0.11099704792E+02  0.28213325026E+02  0.32026971749E+02  0.47000000000E+01 0. -1.
         -5    1    1    2    0  502  0.91771907362E+01  0.34405070649E+02 -0.13166707305E+03  0.13647797567E+03  0.47000000000E+01 0. -1.
        -11    1    1    2    0    0  0.34194452013E+02 -0.53919006950E+02  0.13322766161E+03  0.14773669036E+03  0.00000000000E+00 0.  1.
         11    1    1    2    0    0 -0.34182422764E+02  0.84142315086E+01  0.42691042551E+02  0.55333194666E+02  0.00000000000E+00 0. -1.
<mgrwt>
<rscale>  0 0.12429716E+03</rscale>
<asrwt>0</asrwt>
<pdfrwt beam="2">  1        2 0.23008452E-01 0.13300842E+03</pdfrwt>
<pdfrwt beam="1">  1       -2 0.34156907E-01 0.13300842E+03</pdfrwt>
<totfact> 0.18487105E+03</totfact>
</mgrwt>
</event>
<event>
 6    1  0.1190675E-005  0.1307036E+03  0.7546771E-02  0.1239877E+00
          1   -1    0    0  501    0  0.00000000000E+00  0.00000000000E+00  0.19368868228E+04  0.19368868228E+04  0.00000000000E+00 0. -1.
         -1   -1    0    0    0  501 -0.00000000000E+00 -0.00000000000E+00 -0.84339809754E+01  0.84339809754E+01  0.00000000000E+00 0.  1.
          5    1    1    2  502    0 -0.34676275037E+02  0.73093285736E+01  0.17302418502E+03  0.17667860351E+03  0.47000000000E+01 0.  1.
         -5    1    1    2    0  502  0.70880686841E+02 -0.19507309975E+02  0.13207868143E+04  0.13228395616E+04  0.47000000000E+01 0.  1.
        -11    1    1    2    0    0  0.24816501656E+02 -0.18161141037E+02  0.14926584362E+03  0.15240071479E+03  0.00000000000E+00 0.  1.
         11    1    1    2    0    0 -0.61020913460E+02  0.30359122439E+02  0.28537599893E+03  0.29340192392E+03  0.00000000000E+00 0. -1.
<mgrwt>
<rscale>  0 0.12197344E+03</rscale>
<asrwt>0</asrwt>
<pdfrwt beam="1">  1        1 0.29798223E+00 0.13070358E+03</pdfrwt>
<pdfrwt beam="2">  1       -1 0.12975371E-02 0.13070358E+03</pdfrwt>
<totfact> 0.47221112E+03</totfact>
</mgrwt>
</event>
<event>
 6    1  0.1190675E-005  0.1232213E+03  0.7546771E-02  0.1250710E+00
          2   -1    0    0  501    0  0.00000000000E+00  0.00000000000E+00  0.69489612827E+02  0.69489612827E+02  0.00000000000E+00 0. -1.
         -2   -1    0    0    0  501 -0.00000000000E+00 -0.00000000000E+00 -0.22035896175E+03  0.22035896175E+03  0.00000000000E+00 0.  1.
          5    1    1    2  502    0 -0.33191499709E+02 -0.56930524097E+02 -0.17059611900E+01  0.66089034873E+02  0.47000000000E+01 0. -1.
         -5    1    1    2    0  502  0.48094826765E+02  0.29230033960E+02 -0.13494134734E+02  0.58066245953E+02  0.47000000000E+01 0.  1.
        -11    1    1    2    0    0 -0.37425147456E+02  0.42312854987E+02 -0.12430843247E+03  0.13654158979E+03  0.00000000000E+00 0.  1.
         11    1    1    2    0    0  0.22521820400E+02 -0.14612364851E+02 -0.11360820528E+02  0.29151703959E+02  0.00000000000E+00 0. -1.
<mgrwt>
<rscale>  0 0.11550058E+03</rscale>
<asrwt>0</asrwt>
<pdfrwt beam="1">  1        2 0.10690710E-01 0.12322131E+03</pdfrwt>
<pdfrwt beam="2">  1       -2 0.33901379E-01 0.12322131E+03</pdfrwt>
<totfact> 0.45497569E+03</totfact>
</mgrwt>
</event>
<event>
 6    1  0.1190675E-005  0.1397027E+03  0.7546771E-02  0.1225066E+00
         -1   -1    0    0    0  501 -0.00000000000E+00  0.00000000000E+00  0.16329667061E+02  0.16329667061E+02  0.00000000000E+00 0.  1.
          1   -1    0    0  501    0  0.00000000000E+00 -0.00000000000E+00 -0.12681075263E+04  0.12681075263E+04  0.00000000000E+00 0. -1.
          5    1    1    2  502    0 -0.43984992460E+02 -0.28570063023E+02 -0.37982058054E+03  0.38345363665E+03  0.47000000000E+01 0. -1.
         -5    1    1    2    0  502  0.17621784918E+02  0.85108060112E+02 -0.61928403304E+03  0.62537086019E+03  0.47000000000E+01 0. -1.
        -11    1    1    2    0    0 -0.12838383084E+02 -0.26181935814E+02 -0.14940674371E+02  0.32764944588E+02  0.00000000000E+00 0.  1.
         11    1    1    2    0    0  0.39201590626E+02 -0.30356061275E+02 -0.23773257125E+03  0.24284775189E+03  0.00000000000E+00 0. -1.
<mgrwt>
<rscale>  0 0.13162399E+03</rscale>
<asrwt>0</asrwt>
<pdfrwt beam="2">  1        1 0.19509341E+00 0.13970267E+03</pdfrwt>
<pdfrwt beam="1">  1       -1 0.25122572E-02 0.13970267E+03</pdfrwt>
<totfact> 0.49407851E+03</totfact>
</mgrwt>
</event>
<event>
 6    1  0.1190675E-005  0.3181999E+03  0.7546771E-02  0.1076481E+00
         -2   -1    0    0    0  501 -0.00000000000E+00  0.00000000000E+00  0.12909024090E+03  0.12909024090E+03  0.00000000000E+00 0.  1.
          2   -1    0    0  501    0  0.00000000000E+00 -0.00000000000E+00 -0.19608599311E+03  0.19608599311E+03  0.00000000000E+00 0. -1.
          5    1    1    2  502    0  0.64512488635E+01 -0.11200167387E+03 -0.91023508635E+02  0.14454536550E+03  0.47000000000E+01 0. -1.
         -5    1    1    2    0  502  0.27276351115E+02  0.54551401833E+01  0.23008992941E+02  0.36404143181E+02  0.47000000000E+01 0. -1.
        -11    1    1    2    0    0  0.16447473705E+02  0.86837364699E+02 -0.10801278561E+02  0.89038839378E+02  0.00000000000E+00 0. -1.
         11    1    1    2    0    0 -0.50175073683E+02  0.19709168991E+02  0.11820042043E+02  0.55187885947E+02  0.00000000000E+00 0.  1.
<mgrwt>
<rscale>  0 0.31819986E+03</rscale>
<asrwt>0</asrwt>
<pdfrwt beam="2">  1        2 0.30167076E-01 0.31819986E+03</pdfrwt>
<pdfrwt beam="1">  1       -2 0.19860037E-01 0.31819986E+03</pdfrwt>
<totfact> 0.37097365E+03</totfact>
</mgrwt>
</event>
<event>
 6    1  0.1190675E-005  0.1403326E+03  0.7546771E-02  0.1223856E+00
          2   -1    0    0  501    0  0.00000000000E+00  0.00000000000E+00  0.24811650927E+03  0.24811650927E+03  0.00000000000E+00 0. -1.
         -2   -1    0    0    0  501 -0.00000000000E+00 -0.00000000000E+00 -0.76923941420E+02  0.76923941420E+02  0.00000000000E+00 0.  1.
          5    1    1    2  502    0  0.24852363095E+02  0.19085570791E+02  0.55449183068E+01  0.32167298345E+02  0.47000000000E+01 0. -1.
         -5    1    1    2    0  502 -0.56729054541E+02 -0.74321728472E+02  0.15487814897E+03  0.18097302556E+03  0.47000000000E+01 0. -1.
        -11    1    1    2    0    0  0.54991452785E+01  0.50390888718E+02  0.45434535548E+02  0.68071868529E+02  0.00000000000E+00 0. -1.
         11    1    1    2    0    0  0.26377546168E+02  0.48452689630E+01 -0.34665034966E+02  0.43828258263E+02  0.00000000000E+00 0.  1.
<mgrwt>
<rscale>  0 0.13245592E+03</rscale>
<asrwt>0</asrwt>
<pdfrwt beam="1">  1        2 0.38171770E-01 0.14033259E+03</pdfrwt>
<pdfrwt beam="2">  1       -2 0.11834453E-01 0.14033259E+03</pdfrwt>
<totfact> 0.64917950E+03</totfact>
</mgrwt>
</event>
<event>
 6    1  0.1190675E-005  0.3127893E+03  0.7546771E-02  0.1079017E+00
          2   -1    0    0  501    0  0.00000000000E+00  0.00000000000E+00  0.61081582802E+03  0.61081582802E+03  0.00000000000E+00 0.  1.
         -2   -1    0    0    0  501 -0.00000000000E+00 -0.00000000000E+00 -0.40043636895E+02  0.40043636895E+02  0.00000000000E+00 0. -1.
          5    1    1    2  502    0  0.15086897888E+02  0.95841594206E+02  0.15106286498E+03  0.17959761926E+03  0.47000000000E+01 0.  1.
         -5    1    1    2    0  502  0.28088041227E+02 -0.51999238672E+01  0.26025101943E+03  0.26185618263E+03  0.47000000000E+01 0.  1.
        -11    1    1    2    0    0 -0.11509758229E+02 -0.38732969525E+02  0.13976919764E+03  0.14549276983E+03  0.00000000000E+00 0.  1.
         11    1    1    2    0    0 -0.31665180886E+02 -0.51908700814E+02  0.19689109076E+02  0.63912893198E+02  0.00000000000E+00 0. -1.
<mgrwt>
<rscale>  0 0.31278930E+03</rscale>
<asrwt>0</asrwt>
<pdfrwt beam="1">  1        2 0.93971659E-01 0.31278930E+03</pdfrwt>
<pdfrwt beam="2">  1       -2 0.61605600E-02 0.31278930E+03</pdfrwt>
<totfact> 0.70262730E+03</totfact>
</mgrwt>
</event>
<event>
 6    1  0.1190675E-005  0.1352711E+03  0.7546771E-02  0.1228579E+00
          2   -1    0    0  501    0  0.00000000000E+00  0.00000000000E+00  0.30105437790E+04  0.30105437790E+04  0.00000000000E+00 0. -1.
         -2   -1    0    0    0  501 -0.00000000000E+00 -0.00000000000E+00 -0.99450422198E+01  0.99450422198E+01  0.00000000000E+00 0.  1.
          5    1    1    2  502    0  0.76328515443E+01  0.53331310216E+02  0.58575218173E+03  0.58824331486E+03  0.47000000000E+01 0. -1.
         -5    1    1    2    0  502 -0.54783029957E+02 -0.32182347674E+02  0.20356350287E+04  0.20366317645E+04  0.47000000000E+01 0. -1.
        -11    1    1    2    0    0 -0.15727863534E+02  0.11530693420E+02  0.15083211276E+02  0.24654124289E+02  0.00000000000E+00 0.  1.
         11    1    1    2    0    0  0.62878041947E+02 -0.32679655962E+02  0.36412831505E+03  0.37095961761E+03  0.00000000000E+00 0. -1.
<mgrwt>
<rscale>  0 0.12924599E+03</rscale>
<asrwt>0</asrwt>
<pdfrwt beam="1">  1        2 0.46315985E+00 0.13527112E+03</pdfrwt>
<pdfrwt beam="2">  1       -2 0.15300089E-02 0.13527112E+03</pdfrwt>
<totfact> 0.23996988E+03</totfact>
</mgrwt>
</event>
<event>
 6    1  0.1190675E-005  0.1289223E+03  0.7546771E-02  0.1243186E+00
         -2   -1    0    0    0  501 -0.00000000000E+00  0.00000000000E+00  0.24278812386E+02  0.24278812386E+02  0.00000000000E+00 0.  1.
          2   -1    0    0  501    0  0.00000000000E+00 -0.00000000000E+00 -0.54210003194E+03  0.54210003194E+03  0.00000000000E+00 0. -1.
          5    1    1    2  502    0 -0.40069719261E+02 -0.32923992835E+02 -0.16530398864E+03  0.17331206065E+03  0.47000000000E+01 0. -1.
         -5    1    1    2    0  502  0.39578031212E+02  0.64420369043E+02 -0.18111734558E+03  0.19632113328E+03  0.47000000000E+01 0. -1.
        -11    1    1    2    0    0 -0.28723414593E+02 -0.13148770872E+02 -0.15564736985E+03  0.15882074317E+03  0.00000000000E+00 0. -1.
         11    1    1    2    0    0  0.29215102642E+02 -0.18347605336E+02 -0.15752515486E+02  0.37924907226E+02  0.00000000000E+00 0.  1.
<mgrwt>
<rscale>  0 0.11994624E+03</rscale>
<asrwt>0</asrwt>
<pdfrwt beam="2">  1        2 0.83400000E-01 0.12892229E+03</pdfrwt>
<pdfrwt beam="1">  1       -2 0.37352021E-02 0.12892229E+03</pdfrwt>
<totfact> 0.16287363E+04</totfact>
</mgrwt>
</event>
<event>
 6    1  0.1190675E-005  0.2588601E+03  0.7546771E-02  0.1110398E+00
         -2   -1    0    0    0  501 -0.00000000000E+00  0.00000000000E+00  0.10743433281E+03  0.10743433281E+03  0.00000000000E+00 0.  1.
          2   -1    0    0  501    0  0.00000000000E+00 -0.00000000000E+00 -0.59471732824E+03  0.59471732824E+03  0.00000000000E+00 0. -1.
          5    1    1    2  502    0 -0.13968659822E+02 -0.23921778997E+03 -0.25861049406E+03  0.35259289859E+03  0.47000000000E+01 0.  1.
         -5    1    1    2    0  502 -0.62116656440E+01  0.13445996635E+02 -0.38206925190E+02  0.41246075548E+02  0.47000000000E+01 0.  1.
        -11    1    1    2    0    0 -0.13812610701E+02  0.19815332874E+03 -0.15725124836E+03  0.25334459736E+03  0.00000000000E+00 0. -1.
         11    1    1    2    0    0  0.33992936166E+02  0.27618464600E+02 -0.33214327825E+02  0.54968089551E+02  0.00000000000E+00 0.  1.
<mgrwt>
<rscale>  0 0.25465497E+03</rscale>
<asrwt>0</asrwt>
<pdfrwt beam="2">  1        2 0.91494971E-01 0.25886011E+03</pdfrwt>
<pdfrwt beam="1">  1       -2 0.16528359E-01 0.25886011E+03</pdfrwt>
<totfact> 0.14825268E+03</totfact>
</mgrwt>
</event>
<event>
 6    1  0.1190675E-005  0.1430651E+03  0.7546771E-02  0.1218244E+00
         -2   -1    0    0    0  501 -0.00000000000E+00  0.00000000000E+00  0.51459657324E+02  0.51459657324E+02  0.00000000000E+00 0.  1.
          2   -1    0    0  501    0  0.00000000000E+00 -0.00000000000E+00 -0.41017040066E+03  0.41017040066E+03  0.00000000000E+00 0. -1.
          5    1    1    2  502    0  0.42662240492E+02  0.12428122202E+02 -0.28834428561E+03  0.29178595242E+03  0.47000000000E+01 0. -1.
         -5    1    1    2    0  502  0.26285129918E+02 -0.21839556750E+02 -0.53605684303E+01  0.34909883812E+02  0.47000000000E+01 0. -1.
        -11    1    1    2    0    0 -0.36760902305E+02 -0.43027888955E+02 -0.34197053962E+02  0.66122625976E+02  0.00000000000E+00 0.  1.
         11    1    1    2    0    0 -0.32186468105E+02  0.52439323503E+02 -0.30808835330E+02  0.68811595773E+02  0.00000000000E+00 0. -1.
<mgrwt>
<rscale>  0 0.13640945E+03</rscale>
<asrwt>0</asrwt>
<pdfrwt beam="2">  1        2 0.63103139E-01 0.14306512E+03</pdfrwt>
<pdfrwt beam="1">  1       -2 0.79168703E-02 0.14306512E+03</pdfrwt>
<totfact> 0.71547450E+03</totfact>
</mgrwt>
</event>
<event>
 6    1  0.1190675E-005  0.2366128E+03  0.7546771E-02  0.1122070E+00
          1   -1    0    0  501    0  0.00000000000E+00  0.00000000000E+00  0.13880735168E+03  0.13880735168E+03  0.00000000000E+00 0. -1.
         -1   -1    0    0    0  501 -0.00000000000E+00 -0.00000000000E+00 -0.10083326755E+03  0.10083326755E+03  0.00000000000E+00 0.  1.
          5    1    1    2  502    0 -0.58241123224E+01 -0.26320085982E+01  0.84001997515E+02  0.84375786456E+02  0.47000000000E+01 0.  1.
         -5    1    1    2    0  502  0.35450713663E+02  0.28031449202E+02 -0.33001638321E+02  0.56157932436E+02  0.47000000000E+01 0.  1.
        -11    1    1    2    0    0 -0.62108421273E+01 -0.21138988366E+02  0.37365398814E+02  0.43377464398E+02  0.00000000000E+00 0. -1.
         11    1    1    2    0    0 -0.23415759213E+02 -0.42604522383E+01 -0.50391673883E+02  0.55729435934E+02  0.00000000000E+00 0.  1.
<mgrwt>
<rscale>  0 0.23661275E+03</rscale>
<asrwt>0</asrwt>
<pdfrwt beam="1">  1        1 0.21354977E-01 0.23661275E+03</pdfrwt>
<pdfrwt beam="2">  1       -1 0.15512810E-01 0.23661275E+03</pdfrwt>
<totfact> 0.70196510E+03</totfact>
</mgrwt>
</event>
<event>
 6    1  0.1190675E-005  0.1204465E+03  0.7546771E-02  0.1251430E+00
          3   -1    0    0  501    0  0.00000000000E+00  0.00000000000E+00  0.65008160897E+02  0.65008160897E+02  0.00000000000E+00 0. -1.
         -3   -1    0    0    0  501 -0.00000000000E+00 -0.00000000000E+00 -0.19344107432E+03  0.19344107432E+03  0.00000000000E+00 0.  1.
          5    1    1    2  502    0 -0.70726484722E+02 -0.20795177985E+02 -0.45573299460E+02  0.86796835727E+02  0.47000000000E+01 0. -1.
         -5    1    1    2    0  502  0.42184312595E+02 -0.37402131519E+01 -0.18515690361E+01  0.42650014436E+02  0.47000000000E+01 0.  1.
        -11    1    1    2    0    0  0.27912188399E+02 -0.25923058320E+02 -0.66259051978E+02  0.76428771958E+02  0.00000000000E+00 0.  1.
         11    1    1    2    0    0  0.62998372812E+00  0.50458449457E+02 -0.14748992949E+02  0.52573613097E+02  0.00000000000E+00 0. -1.
<mgrwt>
<rscale>  0 0.11508656E+03</rscale>
<asrwt>0</asrwt>
<pdfrwt beam="1">  1        3 0.10001255E-01 0.12044654E+03</pdfrwt>
<pdfrwt beam="2">  1       -3 0.29760166E-01 0.12044654E+03</pdfrwt>
<totfact> 0.18057635E+03</totfact>
</mgrwt>
</event>
<event>
 6    1  0.1190675E-005  0.2817711E+03  0.7546771E-02  0.1096549E+00
          2   -1    0    0  501    0  0.00000000000E+00  0.00000000000E+00  0.58599299678E+03  0.58599299678E+03  0.00000000000E+00 0.  1.
         -2   -1    0    0    0  501 -0.00000000000E+00 -0.00000000000E+00 -0.17335118796E+03  0.17335118796E+03  0.00000000000E+00 0. -1.
          5    1    1    2  502    0  0.16134227822E+03 -0.10808035125E+03  0.36771258592E+03  0.41586936520E+03  0.47000000000E+01 0.  1.
         -5    1    1    2    0  502  0.66353868308E+02 -0.11118773115E+01  0.33731874826E+02  0.74592234783E+02  0.47000000000E+01 0.  1.
        -11    1    1    2    0    0 -0.18929838584E+03  0.55053071389E+02  0.31122496679E+02  0.19958288842E+03  0.00000000000E+00 0.  1.
         11    1    1    2    0    0 -0.38397760695E+02  0.54139157169E+02 -0.19925148612E+02  0.69299696338E+02  0.00000000000E+00 0. -1.
<mgrwt>
<rscale>  0 0.27843173E+03</rscale>
<asrwt>0</asrwt>
<pdfrwt beam="1">  1        2 0.90152768E-01 0.28177105E+03</pdfrwt>
<pdfrwt beam="2">  1       -2 0.26669414E-01 0.28177105E+03</pdfrwt>
<totfact> 0.65935543E+02</totfact>
</mgrwt>
</event>
<event>
 6    1  0.1190675E-005  0.1281513E+03  0.7546771E-02  0.1245434E+00
         -2   -1    0    0    0  501 -0.00000000000E+00  0.00000000000E+00  0.30428183792E+02  0.30428183792E+02  0.00000000000E+00 0.  1.
          2   -1    0    0  501    0  0.00000000000E+00 -0.00000000000E+00 -0.48484053638E+03  0.48484053638E+03  0.00000000000E+00 0. -1.
          5    1    1    2  502    0  0.25999837986E+00  0.17488801006E+02  0.15966683744E+01  0.18181449603E+02  0.47000000000E+01 0. -1.
         -5    1    1    2    0  502 -0.23036328906E+02 -0.34150861428E+02 -0.36124394892E+03  0.36361550354E+03  0.47000000000E+01 0. -1.
        -11    1    1    2    0    0 -0.10540325451E+02 -0.23113307709E+02  0.33278329864E-01  0.25403239189E+02  0.00000000000E+00 0.  1.
         11    1    1    2    0    0  0.33316655978E+02  0.39775368131E+02 -0.94798350368E+02  0.10806852783E+03  0.00000000000E+00 0. -1.
<mgrwt>
<rscale>  0 0.11859426E+03</rscale>
<asrwt>0</asrwt>
<pdfrwt beam="2">  1        2 0.74590845E-01 0.12815127E+03</pdfrwt>
<pdfrwt beam="1">  1       -2 0.46812595E-02 0.12815127E+03</pdfrwt>
<totfact> 0.13158427E+04</totfact>
</mgrwt>
</event>
<event>
 6    1  0.1190675E-005  0.3451868E+03  0.7546771E-02  0.1064608E+00
         -1   -1    0    0    0  501 -0.00000000000E+00  0.00000000000E+00  0.22704726689E+03  0.22704726689E+03  0.00000000000E+00 0.  1.
          1   -1    0    0  501    0  0.00000000000E+00 -0.00000000000E+00 -0.13119946438E+03  0.13119946438E+03  0.00000000000E+00 0. -1.
          5    1    1    2  502    0 -0.68336714710E+02  0.11206604245E+03  0.59665453646E+02  0.14425935258E+03  0.47000000000E+01 0.  1.
         -5    1    1    2    0  502 -0.65674236925E+01 -0.36249154349E+01 -0.37683992742E+02  0.38709745218E+02  0.47000000000E+01 0.  1.
        -11    1    1    2    0    0  0.60222106855E+02 -0.28221629465E+02  0.65419759164E+02  0.93289374597E+02  0.00000000000E+00 0.  1.
         11    1    1    2    0    0  0.14682031548E+02 -0.80219497554E+02  0.84465824398E+01  0.81988258874E+02  0.00000000000E+00 0. -1.
<mgrwt>
<rscale>  0 0.34518679E+03</rscale>
<asrwt>0</asrwt>
<pdfrwt beam="2">  1        1 0.20184533E-01 0.34518679E+03</pdfrwt>
<pdfrwt beam="1">  1       -1 0.34930349E-01 0.34518679E+03</pdfrwt>
<totfact> 0.19867987E+03</totfact>
</mgrwt>
</event>
<event>
 6    1  0.1190675E-005  0.1918770E+03  0.7546771E-02  0.1161571E+00
          1   -1    0    0  501    0  0.00000000000E+00  0.00000000000E+00  0.97327860604E+03  0.97327860604E+03  0.00000000000E+00 0. -1.
         -1   -1    0    0    0  501 -0.00000000000E+00 -0.00000000000E+00 -0.42014530075E+02  0.42014530075E+02  0.00000000000E+00 0.  1.
          5    1    1    2  502    0 -0.11831739248E+03  0.86948872370E+01  0.37830370838E+03  0.39649765725E+03  0.47000000000E+01 0. -1.
         -5    1    1    2    0  502 -0.14532438877E+02 -0.68235654316E+02  0.33065320489E+03  0.33796586840E+03  0.47000000000E+01 0. -1.
        -11    1    1    2    0    0  0.38361940638E+02 -0.16090323091E+02  0.10209731188E+03  0.11024698672E+03  0.00000000000E+00 0. -1.
         11    1    1    2    0    0  0.94487890720E+02  0.75631090170E+02  0.12020985081E+03  0.17058262375E+03  0.00000000000E+00 0.  1.
<mgrwt>
<rscale>  0 0.18659207E+03</rscale>
<asrwt>0</asrwt>
<pdfrwt beam="1">  1        1 0.14973515E+00 0.19187695E+03</pdfrwt>
<pdfrwt beam="2">  1       -1 0.64637746E-02 0.19187695E+03</pdfrwt>
<totfact> 0.19918332E+03</totfact>
</mgrwt>
</event>
<event>
 6    1  0.1190675E-005  0.1237342E+03  0.7546771E-02  0.1247446E+00
         -1   -1    0    0    0  501 -0.00000000000E+00  0.00000000000E+00  0.13081073681E+03  0.13081073681E+03  0.00000000000E+00 0.  1.
          1   -1    0    0  501    0  0.00000000000E+00 -0.00000000000E+00 -0.29251458649E+03  0.29251458649E+03  0.00000000000E+00 0. -1.
          5    1    1    2  502    0  0.36770768100E+02 -0.33645133290E+02 -0.17745371184E+03  0.18438002665E+03  0.47000000000E+01 0. -1.
         -5    1    1    2    0  502 -0.28547460423E+00  0.61793482573E+02 -0.79389138410E+02  0.10071365986E+03  0.47000000000E+01 0.  1.
        -11    1    1    2    0    0  0.12482307444E+01 -0.53182196348E+02  0.64262515696E+02  0.83424067343E+02  0.00000000000E+00 0. -1.
         11    1    1    2    0    0 -0.37733524241E+02  0.25033847065E+02  0.30876484873E+02  0.54807569446E+02  0.00000000000E+00 0.  1.
<mgrwt>
<rscale>  0 0.11740148E+03</rscale>
<asrwt>0</asrwt>
<pdfrwt beam="2">  1        1 0.45002244E-01 0.12373423E+03</pdfrwt>
<pdfrwt beam="1">  1       -1 0.20124729E-01 0.12373423E+03</pdfrwt>
<totfact> 0.17656528E+03</totfact>
</mgrwt>
</event>
<event>
 6    1  0.1190675E-005  0.1627543E+03  0.7546771E-02  0.1193063E+00
         -3   -1    0    0    0  501 -0.00000000000E+00  0.00000000000E+00  0.19805398440E+03  0.19805398440E+03  0.00000000000E+00 0.  1.
          3   -1    0    0  501    0  0.00000000000E+00 -0.00000000000E+00 -0.11426332147E+03  0.11426332147E+03  0.00000000000E+00 0. -1.
          5    1    1    2  502    0  0.76703272354E+02  0.43977743086E+02  0.13309668823E+02  0.89535865221E+02  0.47000000000E+01 0.  1.
         -5    1    1    2    0  502  0.24552468188E+02 -0.68682254633E+02  0.28955858855E+02  0.78616840165E+02  0.47000000000E+01 0.  1.
        -11    1    1    2    0    0 -0.79253368447E+02  0.53323276511E+02  0.48913478601E+02  0.10731727082E+03  0.00000000000E+00 0.  1.
         11    1    1    2    0    0 -0.22002372094E+02 -0.28618764964E+02 -0.73883433527E+01  0.36847329663E+02  0.00000000000E+00 0. -1.
<mgrwt>
<rscale>  0 0.15619320E+03</rscale>
<asrwt>0</asrwt>
<pdfrwt beam="2">  1        3 0.17578973E-01 0.16275429E+03</pdfrwt>
<pdfrwt beam="1">  1       -3 0.30469844E-01 0.16275429E+03</pdfrwt>
<totfact> 0.69782338E+02</totfact>
</mgrwt>
</event>
<event>
 6    1  0.1190675E-005  0.2655164E+03  0.7546771E-02  0.1105973E+00
         -2   -1    0    0    0  501 -0.00000000000E+00  0.00000000000E+00  0.93097534383E+03  0.93097534383E+03  0.00000000000E+00 0.  1.
          2   -1    0    0  501    0  0.00000000000E+00 -0.00000000000E+00 -0.72072722434E+02  0.72072722434E+02  0.00000000000E+00 0. -1.
          5    1    1    2  502    0  0.58137561038E+02  0.95697588139E+02  0.26217374039E+03  0.28512306910E+03  0.47000000000E+01 0. -1.
         -5    1    1    2    0  502  0.13435006704E+03  0.37804038964E+02  0.14794563574E+03  0.20344308052E+03  0.47000000000E+01 0. -1.
        -11    1    1    2    0    0 -0.92126541109E+02 -0.11731560437E+03  0.28603588730E+03  0.32259383043E+03  0.00000000000E+00 0.  1.
         11    1    1    2    0    0 -0.10036108697E+03 -0.16186022736E+02  0.16274735797E+03  0.19188808623E+03  0.00000000000E+00 0. -1.
<mgrwt>
<rscale>  0 0.26195782E+03</rscale>
<asrwt>0</asrwt>
<pdfrwt beam="2">  1        2 0.11088112E-01 0.26551644E+03</pdfrwt>
<pdfrwt beam="1">  1       -2 0.14322697E+00 0.26551644E+03</pdfrwt>
<totfact> 0.20144559E+02</totfact>
</mgrwt>
</event>
<event>
 6    1  0.1190675E-005  0.1304946E+03  0.7546771E-02  0.1241697E+00
          1   -1    0    0  501    0  0.00000000000E+00  0.00000000000E+00  0.20980586688E+03  0.20980586688E+03  0.00000000000E+00 0. -1.
         -1   -1    0    0    0  501 -0.00000000000E+00 -0.00000000000E+00 -0.80236559894E+02  0.80236559894E+02  0.00000000000E+00 0.  1.
          5    1    1    2  502    0 -0.26921358683E+02 -0.36376425765E+02  0.34518584929E+02  0.57110652336E+02  0.47000000000E+01 0.  1.
         -5    1    1    2    0  502  0.48686318846E+02  0.66894459647E+02  0.10793216127E+03  0.13607596338E+03  0.47000000000E+01 0.  1.
        -11    1    1    2    0    0  0.39246609563E+01 -0.45049505301E+02 -0.37245517862E+02  0.58584037863E+02  0.00000000000E+00 0.  1.
         11    1    1    2    0    0 -0.25689621119E+02  0.14531471419E+02  0.24364078649E+02  0.38271773192E+02  0.00000000000E+00 0. -1.
<mgrwt>
<rscale>  0 0.12085292E+03</rscale>
<asrwt>0</asrwt>
<pdfrwt beam="1">  1        1 0.32277825E-01 0.13049465E+03</pdfrwt>
<pdfrwt beam="2">  1       -1 0.12344086E-01 0.13049465E+03</pdfrwt>
<totfact> 0.57515838E+03</totfact>
</mgrwt>
</event>
<event>
 6    1  0.1190675E-005  0.1346000E+03  0.7546771E-02  0.1233373E+00
          1   -1    0    0  501    0  0.00000000000E+00  0.00000000000E+00  0.22724879699E+03  0.22724879699E+03  0.00000000000E+00 0. -1.
         -1   -1    0    0    0  501 -0.00000000000E+00 -0.00000000000E+00 -0.62451620712E+02  0.62451620712E+02  0.00000000000E+00 0.  1.
          5    1    1    2  502    0 -0.86357076195E+02 -0.15166037191E+02  0.88311462473E+02  0.12453335978E+03  0.47000000000E+01 0. -1.
         -5    1    1    2    0  502  0.36549225402E+02  0.11816785276E+02  0.44911832765E+01  0.38958221456E+02  0.47000000000E+01 0. -1.
        -11    1    1    2    0    0  0.74665211052E+02  0.15915798355E+00  0.37449632013E+02  0.83530796779E+02  0.00000000000E+00 0.  1.
         11    1    1    2    0    0 -0.24857360259E+02  0.31900939316E+01  0.34544898515E+02  0.42678039690E+02  0.00000000000E+00 0. -1.
<mgrwt>
<rscale>  0 0.12609184E+03</rscale>
<asrwt>0</asrwt>
<pdfrwt beam="1">  1        1 0.34961353E-01 0.13460002E+03</pdfrwt>
<pdfrwt beam="2">  1       -1 0.96079417E-02 0.13460002E+03</pdfrwt>
<totfact> 0.76659416E+03</totfact>
</mgrwt>
</event>
<event>
 6    1  0.1190675E-005  0.1623927E+03  0.7546771E-02  0.1193406E+00
          1   -1    0    0  501    0  0.00000000000E+00  0.00000000000E+00  0.16712376517E+04  0.16712376517E+04  0.00000000000E+00 0. -1.
         -1   -1    0    0    0  501 -0.00000000000E+00 -0.00000000000E+00 -0.19610083871E+02  0.19610083871E+02  0.00000000000E+00 0.  1.
          5    1    1    2  502    0  0.93869680719E+02  0.68912566878E+02  0.10740189956E+04  0.10803237255E+04  0.47000000000E+01 0.  1.
         -5    1    1    2    0  502  0.64164736997E+01 -0.42665547586E+02  0.26918959352E+03  0.27266581624E+03  0.47000000000E+01 0.  1.
        -11    1    1    2    0    0 -0.75741773251E+02 -0.57858277965E+02  0.18494526140E+03  0.20806043896E+03  0.00000000000E+00 0.  1.
         11    1    1    2    0    0 -0.24544381167E+02  0.31611258672E+02  0.12347371733E+03  0.12979775497E+03  0.00000000000E+00 0. -1.
<mgrwt>
<rscale>  0 0.15589888E+03</rscale>
<asrwt>0</asrwt>
<pdfrwt beam="1">  1        1 0.25711337E+00 0.16239269E+03</pdfrwt>
<pdfrwt beam="2">  1       -1 0.30169373E-02 0.16239269E+03</pdfrwt>
<totfact> 0.20659947E+03</totfact>
</mgrwt>
</event>
<event>
 6    1  0.1190675E-005  0.1967818E+03  0.7546771E-02  0.1161417E+00
         -1   -1    0    0    0  501 -0.00000000000E+00  0.00000000000E+00  0.18543025391E+03  0.18543025391E+03  0.00000000000E+00 0.  1.
          1   -1    0    0  501    0  0.00000000000E+00 -0.00000000000E+00 -0.17128641894E+03  0.17128641894E+03  0.00000000000E+00 0. -1.
          5    1    1    2  502    0  0.41078471773E+02 -0.32644556171E+02 -0.10810303283E+01  0.52691237577E+02  0.47000000000E+01 0. -1.
         -5    1    1    2    0  502  0.36822562460E+02  0.13910726763E+03  0.87139455654E+01  0.14423853805E+03  0.47000000000E+01 0.  1.
        -11    1    1    2    0    0 -0.44954290675E+01  0.12583365635E+02  0.14477990294E+02  0.19701831797E+02  0.00000000000E+00 0.  1.
         11    1    1    2    0    0 -0.73405605165E+02 -0.11904607709E+03 -0.79670705576E+01  0.14008506542E+03  0.00000000000E+00 0. -1.
<mgrwt>
<rscale>  0 0.18675996E+03</rscale>
<asrwt>0</asrwt>
<pdfrwt beam="2">  1        1 0.26351757E-01 0.19678180E+03</pdfrwt>
<pdfrwt beam="1">  1       -1 0.28527731E-01 0.19678180E+03</pdfrwt>
<totfact> 0.19680125E+03</totfact>
</mgrwt>
</event>
<event>
 6    1  0.1190675E-005  0.3721585E+03  0.7546771E-02  0.1053871E+00
          1   -1    0    0  501    0  0.00000000000E+00  0.00000000000E+00  0.75252239792E+02  0.75252239792E+02  0.00000000000E+00 0. -1.
         -1   -1    0    0    0  501 -0.00000000000E+00 -0.00000000000E+00 -0.46012569100E+03  0.46012569100E+03  0.00000000000E+00 0.  1.
          5    1    1    2  502    0 -0.10318774521E+01  0.25606633433E+02  0.41876986754E+02  0.49320750871E+02  0.47000000000E+01 0. -1.
         -5    1    1    2    0  502 -0.46327013778E+02 -0.60902178181E+02 -0.45143262363E+02  0.88967812436E+02  0.47000000000E+01 0. -1.
        -11    1    1    2    0    0 -0.15240411571E+02  0.40028151069E+02 -0.10404215952E+03  0.11251352799E+03  0.00000000000E+00 0. -1.
         11    1    1    2    0    0  0.62599302801E+02 -0.47326063203E+01 -0.27756501608E+03  0.28457583950E+03  0.00000000000E+00 0.  1.
<mgrwt>
<rscale>  0 0.37215851E+03</rscale>
<asrwt>0</asrwt>
<pdfrwt beam="1">  1        1 0.11577268E-01 0.37215851E+03</pdfrwt>
<pdfrwt beam="2">  1       -1 0.70788568E-01 0.37215851E+03</pdfrwt>
<totfact> 0.11076431E+03</totfact>
</mgrwt>
</event>
<event>
 6    1  0.1190675E-005  0.3108959E+03  0.7546771E-02  0.1079917E+00
         -2   -1    0    0    0  501 -0.00000000000E+00  0.00000000000E+00  0.11913310209E+02  0.11913310209E+02  0.00000000000E+00 0. -1.
          2   -1    0    0  501    0  0.00000000000E+00 -0.00000000000E+00 -0.20283255828E+04  0.20283255828E+04  0.00000000000E+00 0.  1.
          5    1    1    2  502    0 -0.10017851388E+02  0.19041254181E+01 -0.16644055068E+04  0.16644433796E+04  0.47000000000E+01 0. -1.
         -5    1    1    2    0  502  0.34116597116E+02 -0.57033027275E+01 -0.13421489308E+03  0.13868019825E+03  0.47000000000E+01 0. -1.
        -11    1    1    2    0    0 -0.16664660290E+02  0.34144184902E+02 -0.19442167141E+03  0.19809927456E+03  0.00000000000E+00 0.  1.
         11    1    1    2    0    0 -0.74340854388E+01 -0.30345007592E+02 -0.23370201336E+02  0.39016040580E+02  0.00000000000E+00 0. -1.
<mgrwt>
<rscale>  0 0.31089594E+03</rscale>
<asrwt>0</asrwt>
<pdfrwt beam="2">  1        2 0.31205024E+00 0.31089594E+03</pdfrwt>
<pdfrwt beam="1">  1       -2 0.18328161E-02 0.31089594E+03</pdfrwt>
<totfact> 0.63135387E+03</totfact>
</mgrwt>
</event>
<event>
 6    1  0.1190675E-005  0.3252869E+03  0.7546771E-02  0.1073241E+00
          2   -1    0    0  501    0  0.00000000000E+00  0.00000000000E+00  0.13241148606E+03  0.13241148606E+03  0.00000000000E+00 0. -1.
         -2   -1    0    0    0  501 -0.00000000000E+00 -0.00000000000E+00 -0.19977797205E+03  0.19977797205E+03  0.00000000000E+00 0.  1.
          5    1    1    2  502    0 -0.23045076109E+01  0.13611302589E+02 -0.58500630062E+02  0.60290895093E+02  0.47000000000E+01 0. -1.
         -5    1    1    2    0  502  0.99197244295E+02  0.59105925462E+02  0.21826303838E+02  0.11760986880E+03  0.47000000000E+01 0. -1.
        -11    1    1    2    0    0 -0.75635546385E+02 -0.93952591436E+02 -0.29740261768E+02  0.12422684285E+03  0.00000000000E+00 0.  1.
         11    1    1    2    0    0 -0.21257190299E+02  0.21235363385E+02 -0.95189800458E+00  0.30061851362E+02  0.00000000000E+00 0. -1.
<mgrwt>
<rscale>  0 0.32528694E+03</rscale>
<asrwt>0</asrwt>
<pdfrwt beam="1">  1        2 0.20370998E-01 0.32528694E+03</pdfrwt>
<pdfrwt beam="2">  1       -2 0.30735073E-01 0.32528694E+03</pdfrwt>
<totfact> 0.26649239E+03</totfact>
</mgrwt>
</event>
<event>
 6    1  0.1190675E-005  0.2523452E+03  0.7546771E-02  0.1111832E+00
          1   -1    0    0  501    0  0.00000000000E+00  0.00000000000E+00  0.45474574418E+03  0.45474574418E+03  0.00000000000E+00 0.  1.
         -1   -1    0    0    0  501 -0.00000000000E+00 -0.00000000000E+00 -0.35007543217E+02  0.35007543217E+02  0.00000000000E+00 0. -1.
          5    1    1    2  502    0  0.73838722594E+02  0.54679395979E+02  0.28108696476E+03  0.29575997880E+03  0.47000000000E+01 0. -1.
         -5    1    1    2    0  502 -0.30083187090E+02 -0.14143948623E+02  0.31073933155E+02  0.45746352312E+02  0.47000000000E+01 0. -1.
        -11    1    1    2    0    0 -0.39275197358E+02  0.79056341880E+01  0.86307317407E+02  0.95152473523E+02  0.00000000000E+00 0.  1.
         11    1    1    2    0    0 -0.44803381454E+01 -0.48441081544E+02  0.21269985639E+02  0.53094482765E+02  0.00000000000E+00 0. -1.
<mgrwt>
<rscale>  0 0.25234525E+03</rscale>
<asrwt>0</asrwt>
<pdfrwt beam="1">  1        1 0.69960880E-01 0.25234525E+03</pdfrwt>
<pdfrwt beam="2">  1       -1 0.53857762E-02 0.25234525E+03</pdfrwt>
<totfact> 0.79811276E+03</totfact>
</mgrwt>
</event>
<event>
 6    1  0.1190675E-005  0.1345343E+03  0.7546771E-02  0.1233482E+00
         -2   -1    0    0    0  501 -0.00000000000E+00  0.00000000000E+00  0.22538881849E+02  0.22538881849E+02  0.00000000000E+00 0.  1.
          2   -1    0    0  501    0  0.00000000000E+00 -0.00000000000E+00 -0.63398424261E+03  0.63398424261E+03  0.00000000000E+00 0. -1.
          5    1    1    2  502    0  0.26817889562E+01  0.34882539801E+02 -0.17250239140E+02  0.39289239308E+02  0.47000000000E+01 0. -1.
         -5    1    1    2    0  502  0.31314448929E+02  0.14251247175E+01 -0.35705679601E+03  0.35846097593E+03  0.47000000000E+01 0. -1.
        -11    1    1    2    0    0  0.22462739988E+01 -0.30588377878E+02 -0.15965462902E+02  0.34577313571E+02  0.00000000000E+00 0.  1.
         11    1    1    2    0    0 -0.36242511883E+02 -0.57192866408E+01 -0.22117286271E+03  0.22419559565E+03  0.00000000000E+00 0. -1.
<mgrwt>
<rscale>  0 0.12602126E+03</rscale>
<asrwt>0</asrwt>
<pdfrwt beam="2">  1        2 0.97536038E-01 0.13453430E+03</pdfrwt>
<pdfrwt beam="1">  1       -2 0.34675203E-02 0.13453430E+03</pdfrwt>
<totfact> 0.15281384E+04</totfact>
</mgrwt>
</event>
<event>
 6    1  0.1190675E-005  0.1313842E+03  0.7546771E-02  0.1236280E+00
         -2   -1    0    0    0  501 -0.00000000000E+00  0.00000000000E+00  0.28468634252E+02  0.28468634252E+02  0.00000000000E+00 0.  1.
          2   -1    0    0  501    0  0.00000000000E+00 -0.00000000000E+00 -0.49433140519E+03  0.49433140519E+03  0.00000000000E+00 0. -1.
          5    1    1    2  502    0  0.13755355918E+02  0.44261379957E+02 -0.10397005746E+03  0.11393042798E+03  0.47000000000E+01 0. -1.
         -5    1    1    2    0  502 -0.47731640516E+02 -0.69861953315E+02 -0.17685167643E+03  0.19610611282E+03  0.47000000000E+01 0. -1.
        -11    1    1    2    0    0  0.26685952963E+02  0.39011727910E+02 -0.19071022770E+03  0.19648014136E+03  0.00000000000E+00 0. -1.
         11    1    1    2    0    0  0.72903316355E+01 -0.13411154552E+02  0.56691906502E+01  0.16283357283E+02  0.00000000000E+00 0.  1.
<mgrwt>
<rscale>  0 0.12422816E+03</rscale>
<asrwt>0</asrwt>
<pdfrwt beam="2">  1        2 0.76050988E-01 0.13138421E+03</pdfrwt>
<pdfrwt beam="1">  1       -2 0.43797897E-02 0.13138421E+03</pdfrwt>
<totfact> 0.14256678E+04</totfact>
</mgrwt>
</event>
<event>
 6    1  0.1190675E-005  0.1310489E+03  0.7546771E-02  0.1239296E+00
         -2   -1    0    0    0  501 -0.00000000000E+00  0.00000000000E+00  0.67870121178E+02  0.67870121178E+02  0.00000000000E+00 0.  1.
          2   -1    0    0  501    0  0.00000000000E+00 -0.00000000000E+00 -0.23684204857E+03  0.23684204857E+03  0.00000000000E+00 0. -1.
          5    1    1    2  502    0 -0.19079158881E+02 -0.39998715577E+02 -0.88484422514E+02  0.99073177899E+02  0.47000000000E+01 0. -1.
         -5    1    1    2    0  502  0.53111214920E+02  0.59815082876E+02 -0.68474585923E+02  0.10540163285E+03  0.47000000000E+01 0. -1.
        -11    1    1    2    0    0 -0.34261927522E+02 -0.86433911054E+01 -0.49670291913E+02  0.60956753408E+02  0.00000000000E+00 0. -1.
         11    1    1    2    0    0  0.22987148303E+00 -0.11172976193E+02  0.37657372956E+02  0.39280605594E+02  0.00000000000E+00 0.  1.
<mgrwt>
<rscale>  0 0.12233398E+03</rscale>
<asrwt>0</asrwt>
<pdfrwt beam="2">  1        2 0.36437238E-01 0.13104891E+03</pdfrwt>
<pdfrwt beam="1">  1       -2 0.10441557E-01 0.13104891E+03</pdfrwt>
<totfact> 0.82819117E+03</totfact>
</mgrwt>
</event>
<event>
 6    1  0.1190675E-005  0.1370177E+03  0.7546771E-02  0.1229746E+00
          2   -1    0    0  501    0  0.00000000000E+00  0.00000000000E+00  0.22863124351E+03  0.22863124351E+03  0.00000000000E+00 0. -1.
         -2   -1    0    0    0  501 -0.00000000000E+00 -0.00000000000E+00 -0.65829776261E+02  0.65829776261E+02  0.00000000000E+00 0.  1.
          5    1    1    2  502    0 -0.17975904242E+02 -0.48656991405E+02  0.89767890335E+02  0.10378342874E+03  0.47000000000E+01 0.  1.
         -5    1    1    2    0  502  0.66544202908E+02  0.20559485869E+02  0.22463536284E+02  0.73331602070E+02  0.47000000000E+01 0.  1.
        -11    1    1    2    0    0 -0.48860951574E+02  0.38475145631E+02 -0.34988518342E+01  0.62289416310E+02  0.00000000000E+00 0.  1.
         11    1    1    2    0    0  0.29265290875E+00 -0.10377640095E+02  0.54068892469E+02  0.55056572654E+02  0.00000000000E+00 0. -1.
<mgrwt>
<rscale>  0 0.12846844E+03</rscale>
<asrwt>0</asrwt>
<pdfrwt beam="1">  1        2 0.35174037E-01 0.13701767E+03</pdfrwt>
<pdfrwt beam="2">  1       -2 0.10127658E-01 0.13701767E+03</pdfrwt>
<totfact> 0.90530074E+03</totfact>
</mgrwt>
</event>
<event>
 6    1  0.1190675E-005  0.1562484E+03  0.7546771E-02  0.1200810E+00
          2   -1    0    0  501    0  0.00000000000E+00  0.00000000000E+00  0.66653728359E+03  0.66653728359E+03  0.00000000000E+00 0.  1.
         -2   -1    0    0    0  501 -0.00000000000E+00 -0.00000000000E+00 -0.31122761613E+02  0.31122761613E+02  0.00000000000E+00 0. -1.
          5    1    1    2  502    0  0.14247494150E+02 -0.86127575409E+01 -0.35038950357E+01  0.17650438024E+02  0.47000000000E+01 0.  1.
         -5    1    1    2    0  502 -0.51166031056E+02 -0.77550463889E+02  0.35542434409E+03  0.36739704892E+03  0.47000000000E+01 0.  1.
        -11    1    1    2    0    0  0.28134178525E+02  0.10153653195E+03  0.18818606573E+03  0.21567381542E+03  0.00000000000E+00 0.  1.
         11    1    1    2    0    0  0.87843583808E+01 -0.15373310521E+02  0.95308007191E+02  0.96938742840E+02  0.00000000000E+00 0. -1.
<mgrwt>
<rscale>  0 0.14972637E+03</rscale>
<asrwt>0</asrwt>
<pdfrwt beam="1">  1        2 0.10254419E+00 0.15624841E+03</pdfrwt>
<pdfrwt beam="2">  1       -2 0.47881177E-02 0.15624841E+03</pdfrwt>
<totfact> 0.90028168E+03</totfact>
</mgrwt>
</event>
<event>
 6    1  0.1190675E-005  0.3522177E+03  0.7546771E-02  0.1061708E+00
          1   -1    0    0  501    0  0.00000000000E+00  0.00000000000E+00  0.30119730080E+03  0.30119730080E+03  0.00000000000E+00 0. -1.
         -1   -1    0    0    0  501 -0.00000000000E+00 -0.00000000000E+00 -0.10297014491E+03  0.10297014491E+03  0.00000000000E+00 0.  1.
          5    1    1    2  502    0 -0.62078811106E+02 -0.87111991342E+02  0.23527264092E+03  0.25849097351E+03  0.47000000000E+01 0. -1.
         -5    1    1    2    0  502  0.86486213580E+01  0.88446841999E+01 -0.77965549668E+01  0.15359145788E+02  0.47000000000E+01 0.  1.
        -11    1    1    2    0    0  0.62504710061E+02  0.48590351810E+02 -0.49397823943E+02  0.93316697751E+02  0.00000000000E+00 0.  1.
         11    1    1    2    0    0 -0.90745203124E+01  0.29676955331E+02  0.20148893880E+02  0.37000628660E+02  0.00000000000E+00 0. -1.
<mgrwt>
<rscale>  0 0.35221772E+03</rscale>
<asrwt>0</asrwt>
<pdfrwt beam="1">  1        1 0.46338046E-01 0.35221772E+03</pdfrwt>
<pdfrwt beam="2">  1       -1 0.15841561E-01 0.35221772E+03</pdfrwt>
<totfact> 0.25748896E+03</totfact>
</mgrwt>
</event>
<event>
 6    1  0.1190675E-005  0.1250843E+03  0.7546771E-02  0.1250835E+00
         -1   -1    0    0    0  501 -0.00000000000E+00  0.00000000000E+00  0.47898960782E+02  0.47898960782E+02  0.00000000000E+00 0.  1.
          1   -1    0    0  501    0  0.00000000000E+00 -0.00000000000E+00 -0.29717589267E+03  0.29717589267E+03  0.00000000000E+00 0. -1.
          5    1    1    2  502    0  0.50080712412E+02  0.27000073321E+01 -0.16655402331E+03  0.17400488636E+03  0.47000000000E+01 0. -1.
         -5    1    1    2    0  502 -0.56317404319E+02  0.19292948124E+01 -0.47194279545E+02  0.73652985204E+02  0.47000000000E+01 0. -1.
        -11    1    1    2    0    0  0.46971104922E+02 -0.28998558402E+01 -0.31094783632E+02  0.56405491139E+02  0.00000000000E+00 0. -1.
         11    1    1    2    0    0 -0.40734413016E+02 -0.17294463043E+01 -0.44338453946E+01  0.41011490746E+02  0.00000000000E+00 0.  1.
<mgrwt>
<rscale>  0 0.11542835E+03</rscale>
<asrwt>0</asrwt>
<pdfrwt beam="2">  1        1 0.45719368E-01 0.12508431E+03</pdfrwt>
<pdfrwt beam="1">  1       -1 0.73690708E-02 0.12508431E+03</pdfrwt>
<totfact> 0.81744859E+03</totfact>
</mgrwt>
</event>
<event>
 6    1  0.1190675E-005  0.1279730E+03  0.7546771E-02  0.1243698E+00
          2   -1    0    0  501    0  0.00000000000E+00  0.00000000000E+00  0.64086219514E+03  0.64086219514E+03  0.00000000000E+00 0. -1.
         -2   -1    0    0    0  501 -0.00000000000E+00 -0.00000000000E+00 -0.20362427584E+02  0.20362427584E+02  0.00000000000E+00 0.  1.
          5    1    1    2  502    0  0.19902036884E+02  0.39604087687E+02  0.37357054467E+03  0.37622017048E+03  0.47000000000E+01 0. -1.
         -5    1    1    2    0  502  0.70381024601E+01 -0.34493641060E+02  0.27933575969E+02  0.45185405014E+02  0.47000000000E+01 0. -1.
        -11    1    1    2    0    0 -0.61124188564E+02 -0.72291306500E+01  0.16232778310E+03  0.17360511491E+03  0.00000000000E+00 0. -1.
         11    1    1    2    0    0  0.34184049219E+02  0.21186840233E+01  0.56667863814E+02  0.66213932313E+02  0.00000000000E+00 0.  1.
<mgrwt>
<rscale>  0 0.11963617E+03</rscale>
<asrwt>0</asrwt>
<pdfrwt beam="1">  1        2 0.98594168E-01 0.12797304E+03</pdfrwt>
<pdfrwt beam="2">  1       -2 0.31326817E-02 0.12797304E+03</pdfrwt>
<totfact> 0.17459284E+04</totfact>
</mgrwt>
</event>
<event>
 6    1  0.1190675E-005  0.1666097E+03  0.7546771E-02  0.1188511E+00
          2   -1    0    0  501    0  0.00000000000E+00  0.00000000000E+00  0.11247936459E+03  0.11247936459E+03  0.00000000000E+00 0.  1.
         -2   -1    0    0    0  501 -0.00000000000E+00 -0.00000000000E+00 -0.29196206757E+03  0.29196206757E+03  0.00000000000E+00 0. -1.
          5    1    1    2  502    0  0.37936064444E+02  0.64646810978E+02  0.64511273656E+02  0.99005805809E+02  0.47000000000E+01 0.  1.
         -5    1    1    2    0  502  0.38445370581E+02  0.14727055394E+02 -0.53846794765E+02  0.67944830460E+02  0.47000000000E+01 0.  1.
        -11    1    1    2    0    0  0.19999575377E+02 -0.86271670641E+01 -0.40117536065E+02  0.45648961946E+02  0.00000000000E+00 0.  1.
         11    1    1    2    0    0 -0.96381010403E+02 -0.70746699308E+02 -0.15002964581E+03  0.19184183394E+03  0.00000000000E+00 0. -1.
<mgrwt>
<rscale>  0 0.16016491E+03</rscale>
<asrwt>0</asrwt>
<pdfrwt beam="1">  1        2 0.17304518E-01 0.16660968E+03</pdfrwt>
<pdfrwt beam="2">  1       -2 0.44917241E-01 0.16660968E+03</pdfrwt>
<totfact> 0.15358649E+03</totfact>
</mgrwt>
</event>
<event>
 6    1  0.1190675E-005  0.1379086E+03  0.7546771E-02  0.1227708E+00
          2   -1    0    0  501    0  0.00000000000E+00  0.00000000000E+00  0.46214391606E+03  0.46214391606E+03  0.00000000000E+00 0. -1.
         -2   -1    0    0    0  501 -0.00000000000E+00 -0.00000000000E+00 -0.87308908751E+02  0.87308908751E+02  0.00000000000E+00 0.  1.
          5    1    1    2  502    0  0.52468227874E+02  0.13037936903E+02  0.13243128489E+03  0.14311896433E+03  0.47000000000E+01 0. -1.
         -5    1    1    2    0  502 -0.41907420447E+02 -0.70321524910E+02  0.27993092024E+03  0.29169291877E+03  0.47000000000E+01 0. -1.
        -11    1    1    2    0    0 -0.88205775962E+01  0.81614186231E+02 -0.37497389977E+02  0.90248170277E+02  0.00000000000E+00 0.  1.
         11    1    1    2    0    0 -0.17402298299E+01 -0.24330598224E+02 -0.29807836878E-01  0.24392771436E+02  0.00000000000E+00 0. -1.
<mgrwt>
<rscale>  0 0.12983013E+03</rscale>
<asrwt>0</asrwt>
<pdfrwt beam="1">  1        2 0.71099063E-01 0.13790861E+03</pdfrwt>
<pdfrwt beam="2">  1       -2 0.13432140E-01 0.13790861E+03</pdfrwt>
<totfact> 0.27268619E+03</totfact>
</mgrwt>
</event>
<event>
 6    1  0.1190675E-005  0.1360370E+03  0.7546771E-02  0.1230938E+00
         -2   -1    0    0    0  501 -0.00000000000E+00  0.00000000000E+00  0.16704246395E+02  0.16704246395E+02  0.00000000000E+00 0.  1.
          2   -1    0    0  501    0  0.00000000000E+00 -0.00000000000E+00 -0.93180621606E+03  0.93180621606E+03  0.00000000000E+00 0. -1.
          5    1    1    2  502    0  0.77914776731E+02  0.25265839644E+02 -0.57809080392E+03  0.58388367220E+03  0.47000000000E+01 0.  1.
         -5    1    1    2    0  502 -0.24666966435E+02 -0.18463994835E+02 -0.51181567024E+02  0.59925129465E+02  0.47000000000E+01 0.  1.
        -11    1    1    2    0    0 -0.51505034779E+02  0.29377377602E+02 -0.23449113364E+03  0.24187164092E+03  0.00000000000E+00 0.  1.
         11    1    1    2    0    0 -0.17427755166E+01 -0.36179222411E+02 -0.51338465080E+02  0.62830019875E+02  0.00000000000E+00 0. -1.
<mgrwt>
<rscale>  0 0.12768077E+03</rscale>
<asrwt>0</asrwt>
<pdfrwt beam="2">  1        2 0.14335478E+00 0.13603697E+03</pdfrwt>
<pdfrwt beam="1">  1       -2 0.25698844E-02 0.13603697E+03</pdfrwt>
<totfact> 0.14788851E+04</totfact>
</mgrwt>
</event>
<event>
 6    1  0.1190675E-005  0.1503293E+03  0.7546771E-02  0.1208362E+00
          3   -1    0    0  501    0  0.00000000000E+00  0.00000000000E+00  0.23219451324E+03  0.23219451324E+03  0.00000000000E+00 0. -1.
         -3   -1    0    0    0  501 -0.00000000000E+00 -0.00000000000E+00 -0.98873888826E+02  0.98873888826E+02  0.00000000000E+00 0.  1.
          5    1    1    2  502    0  0.43006591145E+02 -0.40232207790E+02  0.15570258762E+03  0.16653403021E+03  0.47000000000E+01 0.  1.
         -5    1    1    2    0  502 -0.55639071115E+01 -0.34418305901E+02 -0.16035709716E+02  0.38662783520E+02  0.47000000000E+01 0.  1.
        -11    1    1    2    0    0  0.61715453444E+01  0.80558884507E+02  0.31092531604E+01  0.80854741977E+02  0.00000000000E+00 0. -1.
         11    1    1    2    0    0 -0.43614229378E+02 -0.59083708164E+01 -0.94555066549E+01  0.45016846358E+02  0.00000000000E+00 0.  1.
<mgrwt>
<rscale>  0 0.14375616E+03</rscale>
<asrwt>0</asrwt>
<pdfrwt beam="1">  1        3 0.35722233E-01 0.15032929E+03</pdfrwt>
<pdfrwt beam="2">  1       -3 0.15211368E-01 0.15032929E+03</pdfrwt>
<totfact> 0.65737554E+02</totfact>
</mgrwt>
</event>
<event>
 6    1  0.1190675E-005  0.1960141E+03  0.7546771E-02  0.1180808E+00
         -1   -1    0    0    0  501 -0.00000000000E+00  0.00000000000E+00  0.56011873825E+02  0.56011873825E+02  0.00000000000E+00 0.  1.
          1   -1    0    0  501    0  0.00000000000E+00 -0.00000000000E+00 -0.42402896040E+03  0.42402896040E+03  0.00000000000E+00 0. -1.
          5    1    1    2  502    0  0.13414403686E+02  0.69125930056E+02 -0.13579704338E+02  0.71866812940E+02  0.47000000000E+01 0. -1.
         -5    1    1    2    0  502 -0.26373327685E+02 -0.13070654888E+02 -0.27727379032E+03  0.27887136682E+03  0.47000000000E+01 0.  1.
        -11    1    1    2    0    0  0.29616742842E+01 -0.47718939860E+02 -0.95509511963E+02  0.10680793796E+03  0.00000000000E+00 0. -1.
         11    1    1    2    0    0  0.99972497148E+01 -0.83363353075E+01  0.18345920048E+02  0.22494716505E+02  0.00000000000E+00 0.  1.
<mgrwt>
<rscale>  0 0.16719257E+03</rscale>
<asrwt>0</asrwt>
<pdfrwt beam="2">  1        1 0.65235224E-01 0.19601407E+03</pdfrwt>
<pdfrwt beam="1">  1       -1 0.86172114E-02 0.19601407E+03</pdfrwt>
<totfact> 0.42349933E+03</totfact>
</mgrwt>
</event>
<event>
 6    1  0.1190675E-005  0.1420156E+03  0.7546771E-02  0.1221534E+00
          1   -1    0    0  501    0  0.00000000000E+00  0.00000000000E+00  0.71448174839E+03  0.71448174839E+03  0.00000000000E+00 0. -1.
         -1   -1    0    0    0  501 -0.00000000000E+00 -0.00000000000E+00 -0.23250546335E+02  0.23250546335E+02  0.00000000000E+00 0.  1.
          5    1    1    2  502    0 -0.44727699747E+02 -0.18316057709E+02  0.51194771228E+02  0.70562310731E+02  0.47000000000E+01 0.  1.
         -5    1    1    2    0  502 -0.17167538598E+02  0.45007504003E+02  0.38837762994E+03  0.39138174873E+03  0.47000000000E+01 0.  1.
        -11    1    1    2    0    0  0.46125310855E+02  0.20642039014E+02  0.18929142778E+03  0.19592060307E+03  0.00000000000E+00 0. -1.
         11    1    1    2    0    0  0.15769927491E+02 -0.47333485309E+02  0.62367373105E+02  0.79867632195E+02  0.00000000000E+00 0.  1.
<mgrwt>
<rscale>  0 0.13407342E+03</rscale>
<asrwt>0</asrwt>
<pdfrwt beam="1">  1        1 0.10992025E+00 0.14201556E+03</pdfrwt>
<pdfrwt beam="2">  1       -1 0.35770077E-02 0.14201556E+03</pdfrwt>
<totfact> 0.76687035E+03</totfact>
</mgrwt>
</event>
<event>
 6    1  0.1190675E-005  0.2640727E+03  0.7546771E-02  0.1104721E+00
         -2   -1    0    0    0  501 -0.00000000000E+00  0.00000000000E+00  0.19339204016E+02  0.19339204016E+02  0.00000000000E+00 0.  1.
          2   -1    0    0  501    0  0.00000000000E+00 -0.00000000000E+00 -0.90146422605E+03  0.90146422605E+03  0.00000000000E+00 0. -1.
          5    1    1    2  502    0  0.40667631031E+02  0.82772011620E+02 -0.54014213364E+03  0.54797871917E+03  0.47000000000E+01 0. -1.
         -5    1    1    2    0  502 -0.19478110056E+01 -0.20832445213E+02 -0.16156763377E+02  0.26849874191E+02  0.47000000000E+01 0. -1.
        -11    1    1    2    0    0 -0.62492449628E+02 -0.25771033767E+02 -0.14412652152E+03  0.15919141512E+03  0.00000000000E+00 0.  1.
         11    1    1    2    0    0  0.23772629603E+02 -0.36168532641E+02 -0.18169960349E+03  0.18678342159E+03  0.00000000000E+00 0. -1.
<mgrwt>
<rscale>  0 0.26407272E+03</rscale>
<asrwt>0</asrwt>
<pdfrwt beam="2">  1        2 0.13868678E+00 0.26407272E+03</pdfrwt>
<pdfrwt beam="1">  1       -2 0.29752626E-02 0.26407272E+03</pdfrwt>
<totfact> 0.12935021E+04</totfact>
</mgrwt>
</event>
<event>
 6    1  0.1190675E-005  0.1532950E+03  0.7546771E-02  0.1205156E+00
         -1   -1    0    0    0  501 -0.00000000000E+00  0.00000000000E+00  0.39735826834E+02  0.39735826834E+02  0.00000000000E+00 0.  1.
          1   -1    0    0  501    0  0.00000000000E+00 -0.00000000000E+00 -0.49438184083E+03  0.49438184083E+03  0.00000000000E+00 0. -1.
          5    1    1    2  502    0 -0.85760592632E+02  0.15272568914E+02 -0.14481119387E+03  0.16905768980E+03  0.47000000000E+01 0. -1.
         -5    1    1    2    0  502  0.10987866886E+02 -0.64871462946E+02 -0.10066227655E+03  0.12034959013E+03  0.47000000000E+01 0. -1.
        -11    1    1    2    0    0  0.68218062592E+02  0.73402120968E+02 -0.14789751175E+03  0.17864839604E+03  0.00000000000E+00 0.  1.
         11    1    1    2    0    0  0.65546631532E+01 -0.23803226936E+02 -0.61275031821E+02  0.66061991692E+02  0.00000000000E+00 0. -1.
<mgrwt>
<rscale>  0 0.14625149E+03</rscale>
<asrwt>0</asrwt>
<pdfrwt beam="2">  1        1 0.76058745E-01 0.15329497E+03</pdfrwt>
<pdfrwt beam="1">  1       -1 0.61132041E-02 0.15329497E+03</pdfrwt>
<totfact> 0.57639695E+03</totfact>
</mgrwt>
</event>
<event>
 6    1  0.1190675E-005  0.1454868E+03  0.7546771E-02  0.1221822E+00
          1   -1    0    0  501    0  0.00000000000E+00  0.00000000000E+00  0.81714270041E+03  0.81714270041E+03  0.00000000000E+00 0. -1.
         -1   -1    0    0    0  501 -0.00000000000E+00 -0.00000000000E+00 -0.19697234612E+02  0.19697234612E+02  0.00000000000E+00 0.  1.
          5    1    1    2  502    0 -0.13608320248E+02 -0.39365478215E+02  0.21693919682E+03  0.22095142537E+03  0.47000000000E+01 0. -1.
         -5    1    1    2    0  502  0.45816543724E+02  0.77902311084E+02  0.17293111184E+03  0.19517987907E+03  0.47000000000E+01 0.  1.
        -11    1    1    2    0    0 -0.61074018782E+02 -0.35593427943E+02  0.33822831184E+03  0.34553627713E+03  0.00000000000E+00 0.  1.
         11    1    1    2    0    0  0.28865795306E+02 -0.29434049261E+01  0.69346845301E+02  0.75172353458E+02  0.00000000000E+00 0. -1.
<mgrwt>
<rscale>  0 0.13387131E+03</rscale>
<asrwt>0</asrwt>
<pdfrwt beam="1">  1        1 0.12571424E+00 0.14548679E+03</pdfrwt>
<pdfrwt beam="2">  1       -1 0.30303444E-02 0.14548679E+03</pdfrwt>
<totfact> 0.80207935E+03</totfact>
</mgrwt>
</event>
<event>
 6    1  0.1190675E-005  0.1336531E+03  0.7546771E-02  0.1234822E+00
         -2   -1    0    0    0  501 -0.00000000000E+00  0.00000000000E+00  0.17610369835E+02  0.17610369835E+02  0.00000000000E+00 0.  1.
          2   -1    0    0  501    0  0.00000000000E+00 -0.00000000000E+00 -0.84320896151E+03  0.84320896151E+03  0.00000000000E+00 0. -1.
          5    1    1    2  502    0  0.26594231612E+02  0.27970148053E+02 -0.44428456406E+02  0.59038632062E+02  0.47000000000E+01 0.  1.
         -5    1    1    2    0  502  0.20460968213E+02 -0.22978730608E+02 -0.52269693550E+03  0.52362281240E+03  0.47000000000E+01 0.  1.
        -11    1    1    2    0    0  0.25126421987E+02  0.24539654558E+01 -0.34692382502E+02  0.42905948679E+02  0.00000000000E+00 0.  1.
         11    1    1    2    0    0 -0.72181621813E+02 -0.74453829008E+01 -0.22378081727E+03  0.23525193821E+03  0.00000000000E+00 0. -1.
<mgrwt>
<rscale>  0 0.12515834E+03</rscale>
<asrwt>0</asrwt>
<pdfrwt beam="2">  1        2 0.12972444E+00 0.13365309E+03</pdfrwt>
<pdfrwt beam="1">  1       -2 0.27092880E-02 0.13365309E+03</pdfrwt>
<totfact> 0.15565215E+04</totfact>
</mgrwt>
</event>
<event>
 6    1  0.1190675E-005  0.1310233E+03  0.7546771E-02  0.1239554E+00
          1   -1    0    0  501    0  0.00000000000E+00  0.00000000000E+00  0.25519637112E+03  0.25519637112E+03  0.00000000000E+00 0. -1.
         -1   -1    0    0    0  501 -0.00000000000E+00 -0.00000000000E+00 -0.52203055449E+02  0.52203055449E+02  0.00000000000E+00 0.  1.
          5    1    1    2  502    0 -0.13595829749E+02 -0.46354748587E+02 -0.27174012368E+01  0.48611558014E+02  0.47000000000E+01 0.  1.
         -5    1    1    2    0  502 -0.19385334495E+02  0.25054068600E+02  0.13062530890E+03  0.13449371313E+03  0.47000000000E+01 0.  1.
        -11    1    1    2    0    0  0.32562649584E+02  0.47522901103E+02  0.16216031020E+02  0.59847405452E+02  0.00000000000E+00 0.  1.
         11    1    1    2    0    0  0.41851465943E+00 -0.26222221117E+02  0.58869376992E+02  0.64446749974E+02  0.00000000000E+00 0. -1.
<mgrwt>
<rscale>  0 0.12217344E+03</rscale>
<asrwt>0</asrwt>
<pdfrwt beam="1">  1        1 0.39260979E-01 0.13102331E+03</pdfrwt>
<pdfrwt beam="2">  1       -1 0.80312395E-02 0.13102331E+03</pdfrwt>
<totfact> 0.86967636E+03</totfact>
</mgrwt>
</event>
<event>
 6    1  0.1190675E-005  0.2032316E+03  0.7546771E-02  0.1151158E+00
         -1   -1    0    0    0  501 -0.00000000000E+00  0.00000000000E+00  0.39199745973E+02  0.39199745973E+02  0.00000000000E+00 0.  1.
          1   -1    0    0  501    0  0.00000000000E+00 -0.00000000000E+00 -0.96218515982E+03  0.96218515982E+03  0.00000000000E+00 0. -1.
          5    1    1    2  502    0  0.54304061970E+02  0.77816483132E+02 -0.30741767319E+03  0.32176396937E+03  0.47000000000E+01 0. -1.
         -5    1    1    2    0  502  0.94408974610E+02 -0.18136655434E+02 -0.14292596882E+03  0.17231342177E+03  0.47000000000E+01 0. -1.
        -11    1    1    2    0    0 -0.91886405020E+02  0.84643892379E+01 -0.28860824345E+03  0.30300078465E+03  0.00000000000E+00 0. -1.
         11    1    1    2    0    0 -0.56826631560E+02 -0.68144216936E+02 -0.18403352839E+03  0.20430673001E+03  0.00000000000E+00 0.  1.
<mgrwt>
<rscale>  0 0.19832680E+03</rscale>
<asrwt>0</asrwt>
<pdfrwt beam="2">  1        1 0.14802848E+00 0.20323157E+03</pdfrwt>
<pdfrwt beam="1">  1       -1 0.60307305E-02 0.20323157E+03</pdfrwt>
<totfact> 0.22556318E+03</totfact>
</mgrwt>
</event>
<event>
 6    1  0.1190675E-005  0.2908876E+03  0.7546771E-02  0.1089887E+00
          2   -1    0    0  501    0  0.00000000000E+00  0.00000000000E+00  0.59201147676E+03  0.59201147676E+03  0.00000000000E+00 0. -1.
         -2   -1    0    0    0  501 -0.00000000000E+00 -0.00000000000E+00 -0.35732236008E+02  0.35732236008E+02  0.00000000000E+00 0.  1.
          5    1    1    2  502    0 -0.60755874302E+01  0.11719009944E+02  0.34941261663E+03  0.34969345807E+03  0.47000000000E+01 0. -1.
         -5    1    1    2    0  502  0.26079213988E+02  0.60640868706E+02  0.94233343269E+02  0.11514969971E+03  0.47000000000E+01 0.  1.
        -11    1    1    2    0    0 -0.37368946505E+02  0.32493976938E+01  0.53574656369E+02  0.65400615848E+02  0.00000000000E+00 0. -1.
         11    1    1    2    0    0  0.17365319947E+02 -0.75609276344E+02  0.59058624477E+02  0.97499939134E+02  0.00000000000E+00 0.  1.
<mgrwt>
<rscale>  0 0.29088756E+03</rscale>
<asrwt>0</asrwt>
<pdfrwt beam="1">  1        2 0.91078682E-01 0.29088756E+03</pdfrwt>
<pdfrwt beam="2">  1       -2 0.54972675E-02 0.29088756E+03</pdfrwt>
<totfact> 0.86613995E+03</totfact>
</mgrwt>
</event>
<event>
 6    1  0.1190675E-005  0.2184609E+03  0.7546771E-02  0.1138381E+00
         -2   -1    0    0    0  501 -0.00000000000E+00  0.00000000000E+00  0.40923985366E+02  0.40923985366E+02  0.00000000000E+00 0.  1.
          2   -1    0    0  501    0  0.00000000000E+00 -0.00000000000E+00 -0.16351557254E+04  0.16351557254E+04  0.00000000000E+00 0. -1.
          5    1    1    2  502    0  0.59138920633E+01 -0.18180057002E+02 -0.25287570790E+02  0.32047462121E+02  0.47000000000E+01 0.  1.
         -5    1    1    2    0  502 -0.13030988793E+03 -0.11076102416E+03 -0.12824632671E+04  0.12938248694E+04  0.47000000000E+01 0.  1.
        -11    1    1    2    0    0 -0.59986555146E+01  0.89213263617E+01  0.26613346010E+01  0.11075045548E+02  0.00000000000E+00 0.  1.
         11    1    1    2    0    0  0.13039465138E+03  0.12001975480E+03 -0.28914223675E+03  0.33913233364E+03  0.00000000000E+00 0. -1.
<mgrwt>
<rscale>  0 0.21407266E+03</rscale>
<asrwt>0</asrwt>
<pdfrwt beam="2">  1        2 0.25156241E+00 0.21846095E+03</pdfrwt>
<pdfrwt beam="1">  1       -2 0.62959980E-02 0.21846095E+03</pdfrwt>
<totfact> 0.15934284E+03</totfact>
</mgrwt>
</event>
<event>
 6    1  0.1190675E-005  0.1328616E+03  0.7546771E-02  0.1236238E+00
          1   -1    0    0  501    0  0.00000000000E+00  0.00000000000E+00  0.94015877298E+03  0.94015877298E+03  0.00000000000E+00 0. -1.
         -1   -1    0    0    0  501 -0.00000000000E+00 -0.00000000000E+00 -0.16006729574E+02  0.16006729574E+02  0.00000000000E+00 0.  1.
          5    1    1    2  502    0  0.19980988502E+02 -0.28535514479E+02  0.43610600719E+03  0.43752034809E+03  0.47000000000E+01 0. -1.
         -5    1    1    2    0  502 -0.64601492734E+02  0.34740520674E+02  0.22161345072E+03  0.23348419257E+03  0.47000000000E+01 0. -1.
        -11    1    1    2    0    0 -0.12792748066E+02  0.30122083863E+02  0.69048663816E+02  0.76411467163E+02  0.00000000000E+00 0.  1.
         11    1    1    2    0    0  0.57413252298E+02 -0.36327090057E+02  0.19738392168E+03  0.20874949473E+03  0.00000000000E+00 0. -1.
<mgrwt>
<rscale>  0 0.12425519E+03</rscale>
<asrwt>0</asrwt>
<pdfrwt beam="1">  1        1 0.14463977E+00 0.13286161E+03</pdfrwt>
<pdfrwt beam="2">  1       -1 0.24625745E-02 0.13286161E+03</pdfrwt>
<totfact> 0.86528490E+03</totfact>
</mgrwt>
</event>
<event>
 6    1  0.1190675E-005  0.1468465E+03  0.7546771E-02  0.1215257E+00
          2   -1    0    0  501    0  0.00000000000E+00  0.00000000000E+00  0.82037944895E+02  0.82037944895E+02  0.00000000000E+00 0.  1.
         -2   -1    0    0    0  501 -0.00000000000E+00 -0.00000000000E+00 -0.26642736579E+03  0.26642736579E+03  0.00000000000E+00 0. -1.
          5    1    1    2  502    0 -0.37624219769E+02  0.30991279061E+02  0.22538764225E+02  0.53908507527E+02  0.47000000000E+01 0.  1.
         -5    1    1    2    0  502 -0.21355983861E+02 -0.80600289324E+02 -0.44317330621E+02  0.94544172106E+02  0.47000000000E+01 0.  1.
        -11    1    1    2    0    0  0.30904578716E+02 -0.22262780497E+02 -0.40765076059E+02  0.55789925678E+02  0.00000000000E+00 0. -1.
         11    1    1    2    0    0  0.28075624915E+02  0.71871790761E+02 -0.12184577844E+03  0.14422270537E+03  0.00000000000E+00 0.  1.
<mgrwt>
<rscale>  0 0.13857701E+03</rscale>
<asrwt>0</asrwt>
<pdfrwt beam="1">  1        2 0.12621222E-01 0.14684649E+03</pdfrwt>
<pdfrwt beam="2">  1       -2 0.40988826E-01 0.14684649E+03</pdfrwt>
<totfact> 0.26407821E+03</totfact>
</mgrwt>
</event>
<event>
 6    1  0.1190675E-005  0.1374231E+03  0.7546771E-02  0.1228418E+00
         -2   -1    0    0    0  501 -0.00000000000E+00  0.00000000000E+00  0.31011060729E+03  0.31011060729E+03  0.00000000000E+00 0.  1.
          2   -1    0    0  501    0  0.00000000000E+00 -0.00000000000E+00 -0.25764625607E+03  0.25764625607E+03  0.00000000000E+00 0. -1.
          5    1    1    2  502    0  0.16753225690E+02  0.34913490679E+02 -0.13500268285E+03  0.14052557340E+03  0.47000000000E+01 0.  1.
         -5    1    1    2    0  502 -0.73414013563E+02 -0.41881948238E+02 -0.93582649050E+02  0.12618841935E+03  0.47000000000E+01 0.  1.
        -11    1    1    2    0    0  0.49144546246E+02 -0.14989237890E+02  0.27087024615E+03  0.27570011593E+03  0.00000000000E+00 0.  1.
         11    1    1    2    0    0  0.75162416270E+01  0.21957695449E+02  0.10179436971E+02  0.25342754678E+02  0.00000000000E+00 0. -1.
<mgrwt>
<rscale>  0 0.12935374E+03</rscale>
<asrwt>0</asrwt>
<pdfrwt beam="2">  1        2 0.39637886E-01 0.13742307E+03</pdfrwt>
<pdfrwt beam="1">  1       -2 0.47709324E-01 0.13742307E+03</pdfrwt>
<totfact> 0.54423632E+02</totfact>
</mgrwt>
</event>
<event>
 6    1  0.1190675E-005  0.1472614E+03  0.7546771E-02  0.1228439E+00
         -3   -1    0    0    0  501 -0.00000000000E+00  0.00000000000E+00  0.11531477495E+03  0.11531477495E+03  0.00000000000E+00 0. -1.
          3   -1    0    0  501    0  0.00000000000E+00 -0.00000000000E+00 -0.11973919296E+03  0.11973919296E+03  0.00000000000E+00 0.  1.
          5    1    1    2  502    0 -0.19412826003E+02 -0.18460586904E+02  0.34859644740E+02  0.44214657227E+02  0.47000000000E+01 0.  1.
         -5    1    1    2    0  502  0.14108942627E+02  0.96131278208E+02 -0.34011069349E+02  0.10304915211E+03  0.47000000000E+01 0.  1.
        -11    1    1    2    0    0 -0.39530169920E+01 -0.42628961665E+02 -0.21700127649E+02  0.47997398429E+02  0.00000000000E+00 0.  1.
         11    1    1    2    0    0  0.92569003685E+01 -0.35041729639E+02  0.16427134248E+02  0.39792760147E+02  0.00000000000E+00 0. -1.
<mgrwt>
<rscale>  0 0.12933971E+03</rscale>
<asrwt>0</asrwt>
<pdfrwt beam="2">  1        3 0.18421414E-01 0.14726136E+03</pdfrwt>
<pdfrwt beam="1">  1       -3 0.17740735E-01 0.14726136E+03</pdfrwt>
<totfact> 0.16746291E+03</totfact>
</mgrwt>
</event>
<event>
 6    1  0.1190675E-005  0.1375383E+03  0.7546771E-02  0.1223354E+00
         -2   -1    0    0    0  501 -0.00000000000E+00  0.00000000000E+00  0.29206401728E+03  0.29206401728E+03  0.00000000000E+00 0.  1.
          2   -1    0    0  501    0  0.00000000000E+00 -0.00000000000E+00 -0.83817462988E+02  0.83817462988E+02  0.00000000000E+00 0. -1.
          5    1    1    2  502    0  0.79640448950E+01 -0.28524345421E+02 -0.55558895732E+02  0.63134342380E+02  0.47000000000E+01 0. -1.
         -5    1    1    2    0  502 -0.12022030500E+02 -0.45275895074E+02  0.57634647623E+02  0.74419610982E+02  0.47000000000E+01 0.  1.
        -11    1    1    2    0    0  0.21698456934E+02 -0.14361756920E+02  0.74285088620E+02  0.78710593228E+02  0.00000000000E+00 0. -1.
         11    1    1    2    0    0 -0.17640471329E+02  0.88161997414E+02  0.13188571378E+03  0.15961693368E+03  0.00000000000E+00 0.  1.
<mgrwt>
<rscale>  0 0.13280379E+03</rscale>
<asrwt>0</asrwt>
<pdfrwt beam="2">  1        2 0.12894994E-01 0.13753829E+03</pdfrwt>
<pdfrwt beam="1">  1       -2 0.44932925E-01 0.13753829E+03</pdfrwt>
<totfact> 0.21504827E+03</totfact>
</mgrwt>
</event>
<event>
 6    1  0.1190675E-005  0.2115674E+03  0.7546771E-02  0.1149484E+00
         -1   -1    0    0    0  501 -0.00000000000E+00  0.00000000000E+00  0.37254931111E+02  0.37254931111E+02  0.00000000000E+00 0.  1.
          1   -1    0    0  501    0  0.00000000000E+00 -0.00000000000E+00 -0.16968780388E+04  0.16968780388E+04  0.00000000000E+00 0. -1.
          5    1    1    2  502    0 -0.63227234874E+02 -0.24326933445E+02 -0.80642386986E+03  0.80927809238E+03  0.47000000000E+01 0. -1.
         -5    1    1    2    0  502 -0.47208889001E+02  0.11804374557E+03 -0.63831035957E+03  0.65086497079E+03  0.47000000000E+01 0.  1.
        -11    1    1    2    0    0  0.96765190799E+02 -0.10769050016E+03 -0.20766051842E+03  0.25314746076E+03  0.00000000000E+00 0.  1.
         11    1    1    2    0    0  0.13670933076E+02  0.13973688036E+02 -0.72283598243E+01  0.20842445975E+02  0.00000000000E+00 0. -1.
<mgrwt>
<rscale>  0 0.20030238E+03</rscale>
<asrwt>0</asrwt>
<pdfrwt beam="2">  1        1 0.26105811E+00 0.21156742E+03</pdfrwt>
<pdfrwt beam="1">  1       -1 0.57315289E-02 0.21156742E+03</pdfrwt>
<totfact> 0.76581723E+02</totfact>
</mgrwt>
</event>
<event>
 6    1  0.1190675E-005  0.1387745E+03  0.7546771E-02  0.1221082E+00
          2   -1    0    0  501    0  0.00000000000E+00  0.00000000000E+00  0.97544357570E+02  0.97544357570E+02  0.00000000000E+00 0. -1.
         -2   -1    0    0    0  501 -0.00000000000E+00 -0.00000000000E+00 -0.35536244517E+03  0.35536244517E+03  0.00000000000E+00 0.  1.
          5    1    1    2  502    0 -0.17269634555E+02  0.18635480620E+02 -0.43447104459E+02  0.50549602387E+02  0.47000000000E+01 0.  1.
         -5    1    1    2    0  502 -0.39271528592E+02 -0.39540972075E+02  0.71936411623E+02  0.91119036144E+02  0.47000000000E+01 0.  1.
        -11    1    1    2    0    0  0.48290802830E+02  0.52297041591E+02 -0.25966885991E+03  0.26924876787E+03  0.00000000000E+00 0.  1.
         11    1    1    2    0    0  0.82503603161E+01 -0.31391550135E+02 -0.26638534860E+02  0.41989396337E+02  0.00000000000E+00 0. -1.
<mgrwt>
<rscale>  0 0.13439113E+03</rscale>
<asrwt>0</asrwt>
<pdfrwt beam="1">  1        2 0.15006824E-01 0.13877450E+03</pdfrwt>
<pdfrwt beam="2">  1       -2 0.54671145E-01 0.13877450E+03</pdfrwt>
<totfact> 0.12206852E+03</totfact>
</mgrwt>
</event>
<event>
 6    1  0.1190675E-005  0.1665739E+03  0.7546771E-02  0.1184042E+00
         -1   -1    0    0    0  501 -0.00000000000E+00  0.00000000000E+00  0.37041870701E+02  0.37041870701E+02  0.00000000000E+00 0.  1.
          1   -1    0    0  501    0  0.00000000000E+00 -0.00000000000E+00 -0.79799261497E+03  0.79799261497E+03  0.00000000000E+00 0. -1.
          5    1    1    2  502    0  0.65196801525E+02 -0.35924154029E+02 -0.49452038105E+03  0.50011365213E+03  0.47000000000E+01 0. -1.
         -5    1    1    2    0  502  0.41585916781E+02  0.91120959559E+01 -0.36026384044E+02  0.55967929339E+02  0.47000000000E+01 0. -1.
        -11    1    1    2    0    0 -0.34731185430E+02  0.12850817412E+02  0.11522466646E+00  0.37032580604E+02  0.00000000000E+00 0.  1.
         11    1    1    2    0    0 -0.72051532877E+02  0.13961240661E+02 -0.23051920384E+03  0.24192032360E+03  0.00000000000E+00 0. -1.
<mgrwt>
<rscale>  0 0.16419328E+03</rscale>
<asrwt>0</asrwt>
<pdfrwt beam="2">  1        1 0.12276809E+00 0.16657387E+03</pdfrwt>
<pdfrwt beam="1">  1       -1 0.56987494E-02 0.16657387E+03</pdfrwt>
<totfact> 0.32930188E+03</totfact>
</mgrwt>
</event>
<event>
 6    1  0.1190675E-005  0.3179063E+03  0.7546771E-02  0.1076617E+00
          2   -1    0    0  501    0  0.00000000000E+00  0.00000000000E+00  0.18181464116E+04  0.18181464116E+04  0.00000000000E+00 0. -1.
         -2   -1    0    0    0  501 -0.00000000000E+00 -0.00000000000E+00 -0.13896626486E+02  0.13896626486E+02  0.00000000000E+00 0.  1.
          5    1    1    2  502    0  0.22973081557E+02  0.34828580547E+02  0.43994271790E+03  0.44194171282E+03  0.47000000000E+01 0.  1.
         -5    1    1    2    0  502 -0.72093573793E+02 -0.61276841738E+02  0.10950695235E+04  0.10991595362E+04  0.47000000000E+01 0.  1.
        -11    1    1    2    0    0 -0.22632176854E+01  0.52571733021E+02  0.12784788606E+03  0.13825335886E+03  0.00000000000E+00 0. -1.
         11    1    1    2    0    0  0.51383709921E+02 -0.26123471830E+02  0.14138965765E+03  0.15268843019E+03  0.00000000000E+00 0.  1.
<mgrwt>
<rscale>  0 0.31790629E+03</rscale>
<asrwt>0</asrwt>
<pdfrwt beam="1">  1        2 0.27971465E+00 0.31790629E+03</pdfrwt>
<pdfrwt beam="2">  1       -2 0.21379440E-02 0.31790629E+03</pdfrwt>
<totfact> 0.64937317E+03</totfact>
</mgrwt>
</event>
<event>
 6    1  0.1190675E-005  0.1828164E+03  0.7546771E-02  0.1170866E+00
         -1   -1    0    0    0  501 -0.00000000000E+00  0.00000000000E+00  0.57824332575E+02  0.57824332575E+02  0.00000000000E+00 0.  1.
          1   -1    0    0  501    0  0.00000000000E+00 -0.00000000000E+00 -0.50925409431E+03  0.50925409431E+03  0.00000000000E+00 0. -1.
          5    1    1    2  502    0 -0.25007222379E+02 -0.10100160511E+02 -0.38824962712E+02  0.47506232676E+02  0.47000000000E+01 0.  1.
         -5    1    1    2    0  502  0.90111910923E+02  0.12655282731E+03 -0.21186593245E+03  0.26276422497E+03  0.47000000000E+01 0.  1.
        -11    1    1    2    0    0 -0.82807894739E+02 -0.81673257376E+02 -0.11991074425E+03  0.16705165365E+03  0.00000000000E+00 0. -1.
         11    1    1    2    0    0  0.17703206195E+02 -0.34779409425E+02 -0.80828122328E+02  0.89756315592E+02  0.00000000000E+00 0.  1.
<mgrwt>
<rscale>  0 0.17687084E+03</rscale>
<asrwt>0</asrwt>
<pdfrwt beam="2">  1        1 0.78346786E-01 0.18281639E+03</pdfrwt>
<pdfrwt beam="1">  1       -1 0.88960509E-02 0.18281639E+03</pdfrwt>
<totfact> 0.31691835E+03</totfact>
</mgrwt>
</event>
<event>
 6    1  0.1190675E-005  0.1285867E+03  0.7546771E-02  0.1243898E+00
          3   -1    0    0  501    0  0.00000000000E+00  0.00000000000E+00  0.22024230344E+03  0.22024230344E+03  0.00000000000E+00 0. -1.
         -3   -1    0    0    0  501 -0.00000000000E+00 -0.00000000000E+00 -0.68919769588E+02  0.68919769588E+02  0.00000000000E+00 0.  1.
          5    1    1    2  502    0 -0.49058716977E+02 -0.14115681235E+02  0.94335931092E+02  0.10736558137E+03  0.47000000000E+01 0. -1.
         -5    1    1    2    0  502  0.69103768838E+02 -0.85406288521E+01  0.49456604794E+02  0.85535483669E+02  0.47000000000E+01 0. -1.
        -11    1    1    2    0    0 -0.10752676628E+02  0.45972206234E+02 -0.26371916335E+02  0.54079032645E+02  0.00000000000E+00 0.  1.
         11    1    1    2    0    0 -0.92923752329E+01 -0.23315896146E+02  0.33901914306E+02  0.42181975347E+02  0.00000000000E+00 0. -1.
<mgrwt>
<rscale>  0 0.11951607E+03</rscale>
<asrwt>0</asrwt>
<pdfrwt beam="1">  1        3 0.33883431E-01 0.12858665E+03</pdfrwt>
<pdfrwt beam="2">  1       -3 0.10603042E-01 0.12858665E+03</pdfrwt>
<totfact> 0.13029953E+03</totfact>
</mgrwt>
</event>
<event>
 6    1  0.1190675E-005  0.2715440E+03  0.7546771E-02  0.1100399E+00
         -3   -1    0    0    0  501 -0.00000000000E+00  0.00000000000E+00  0.44053203980E+03  0.44053203980E+03  0.00000000000E+00 0.  1.
          3   -1    0    0  501    0  0.00000000000E+00 -0.00000000000E+00 -0.41844941231E+02  0.41844941231E+02  0.00000000000E+00 0. -1.
          5    1    1    2  502    0  0.18815228383E+02  0.18707375636E+02  0.60164498320E+01  0.27609172224E+02  0.47000000000E+01 0.  1.
         -5    1    1    2    0  502 -0.35472028479E+02 -0.99358885514E+02  0.21199459273E+03  0.23684224768E+03  0.47000000000E+01 0.  1.
        -11    1    1    2    0    0  0.24634009509E+02  0.25909136018E+02  0.15094690318E+03  0.15512280727E+03  0.00000000000E+00 0.  1.
         11    1    1    2    0    0 -0.79772094127E+01  0.54742373860E+02  0.29729152820E+02  0.62802753867E+02  0.00000000000E+00 0. -1.
<mgrwt>
<rscale>  0 0.27154401E+03</rscale>
<asrwt>0</asrwt>
<pdfrwt beam="2">  1        3 0.64376836E-02 0.27154401E+03</pdfrwt>
<pdfrwt beam="1">  1       -3 0.67774157E-01 0.27154401E+03</pdfrwt>
<totfact> 0.82185606E+02</totfact>
</mgrwt>
</event>
<event>
 6    1  0.1190675E-005  0.1972741E+03  0.7546771E-02  0.1159305E+00
         -1   -1    0    0    0  501 -0.00000000000E+00  0.00000000000E+00  0.21250302056E+02  0.21250302056E+02  0.00000000000E+00 0.  1.
          1   -1    0    0  501    0  0.00000000000E+00 -0.00000000000E+00 -0.15805580586E+04  0.15805580586E+04  0.00000000000E+00 0. -1.
          5    1    1    2  502    0 -0.11089213278E+03 -0.55524998639E+02 -0.91058437948E+03  0.91900277080E+03  0.47000000000E+01 0.  1.
         -5    1    1    2    0  502 -0.30043098596E+02 -0.30333225026E+01 -0.32973222606E+02  0.44956781776E+02  0.47000000000E+01 0.  1.
        -11    1    1    2    0    0  0.94935298743E+02  0.37581226069E+02 -0.51614816622E+03  0.52615015822E+03  0.00000000000E+00 0. -1.
         11    1    1    2    0    0  0.45999932632E+02  0.20977095073E+02 -0.99601988236E+02  0.11169864986E+03  0.00000000000E+00 0.  1.
<mgrwt>
<rscale>  0 0.18906803E+03</rscale>
<asrwt>0</asrwt>
<pdfrwt beam="2">  1        1 0.24316285E+00 0.19727410E+03</pdfrwt>
<pdfrwt beam="1">  1       -1 0.32692762E-02 0.19727410E+03</pdfrwt>
<totfact> 0.21025241E+03</totfact>
</mgrwt>
</event>
<event>
 6    1  0.1190675E-005  0.1469566E+03  0.7546771E-02  0.1224540E+00
         -1   -1    0    0    0  501 -0.00000000000E+00  0.00000000000E+00  0.70669440716E+03  0.70669440716E+03  0.00000000000E+00 0.  1.
          1   -1    0    0  501    0  0.00000000000E+00 -0.00000000000E+00 -0.21143918023E+02  0.21143918023E+02  0.00000000000E+00 0. -1.
          5    1    1    2  502    0 -0.51105763417E+02  0.39546697629E+02  0.20173572071E+03  0.21188471243E+03  0.47000000000E+01 0. -1.
         -5    1    1    2    0  502  0.65323345703E+02 -0.45592692167E+02  0.16813412149E+03  0.18611019823E+03  0.47000000000E+01 0.  1.
        -11    1    1    2    0    0 -0.46142892047E+01  0.49046991239E+02  0.13038284406E+03  0.13937928483E+03  0.00000000000E+00 0.  1.
         11    1    1    2    0    0 -0.96032930811E+01 -0.43000996701E+02  0.18529780287E+03  0.19046412970E+03  0.00000000000E+00 0. -1.
<mgrwt>
<rscale>  0 0.13198496E+03</rscale>
<asrwt>0</asrwt>
<pdfrwt beam="2">  1        1 0.32529110E-02 0.14695662E+03</pdfrwt>
<pdfrwt beam="1">  1       -1 0.10872220E+00 0.14695662E+03</pdfrwt>
<totfact> 0.24608656E+03</totfact>
</mgrwt>
</event>
<event>
 6    1  0.1190675E-005  0.1299989E+03  0.7546771E-02  0.1243771E+00
          3   -1    0    0  501    0  0.00000000000E+00  0.00000000000E+00  0.11886784050E+03  0.11886784050E+03  0.00000000000E+00 0.  1.
         -3   -1    0    0    0  501 -0.00000000000E+00 -0.00000000000E+00 -0.13608132127E+03  0.13608132127E+03  0.00000000000E+00 0. -1.
          5    1    1    2  502    0 -0.63798398705E+01 -0.29939357600E+02 -0.34698588176E+02  0.46509671162E+02  0.47000000000E+01 0. -1.
         -5    1    1    2    0  502  0.35229834598E+02  0.89214473265E+01  0.85573914226E+02  0.93089839747E+02  0.47000000000E+01 0. -1.
        -11    1    1    2    0    0 -0.53137223873E+02  0.21771197023E+02 -0.18845592305E+02  0.60437620156E+02  0.00000000000E+00 0.  1.
         11    1    1    2    0    0  0.24287229146E+02 -0.75328674962E+00 -0.49243214512E+02  0.54912030703E+02  0.00000000000E+00 0. -1.
<mgrwt>
<rscale>  0 0.11959247E+03</rscale>
<asrwt>0</asrwt>
<pdfrwt beam="1">  1        3 0.18287360E-01 0.12999894E+03</pdfrwt>
<pdfrwt beam="2">  1       -3 0.20935588E-01 0.12999894E+03</pdfrwt>
<totfact> 0.12428161E+03</totfact>
</mgrwt>
</event>
<event>
 6    1  0.1190675E-005  0.1521951E+03  0.7546771E-02  0.1205253E+00
          2   -1    0    0  501    0  0.00000000000E+00  0.00000000000E+00  0.65913981737E+03  0.65913981737E+03  0.00000000000E+00 0. -1.
         -2   -1    0    0    0  501 -0.00000000000E+00 -0.00000000000E+00 -0.32373723381E+02  0.32373723381E+02  0.00000000000E+00 0.  1.
          5    1    1    2  502    0 -0.34078557377E+02  0.83542136872E+02  0.25794749968E+03  0.27331234750E+03  0.47000000000E+01 0.  1.
         -5    1    1    2    0  502 -0.43210490597E+02 -0.43968807416E+02  0.17029104763E+03  0.18116714224E+03  0.47000000000E+01 0.  1.
        -11    1    1    2    0    0  0.41840513366E+02 -0.35920574117E+02  0.26184868763E+02  0.61045585883E+02  0.00000000000E+00 0.  1.
         11    1    1    2    0    0  0.35448534608E+02 -0.36527553390E+01  0.17234267791E+03  0.17598846513E+03  0.00000000000E+00 0. -1.
<mgrwt>
<rscale>  0 0.14617513E+03</rscale>
<asrwt>0</asrwt>
<pdfrwt beam="1">  1        2 0.10140612E+00 0.15219512E+03</pdfrwt>
<pdfrwt beam="2">  1       -2 0.49805733E-02 0.15219512E+03</pdfrwt>
<totfact> 0.85831993E+03</totfact>
</mgrwt>
</event>
<event>
 6    1  0.1190675E-005  0.1598460E+03  0.7546771E-02  0.1196582E+00
          2   -1    0    0  501    0  0.00000000000E+00  0.00000000000E+00  0.12490788668E+04  0.12490788668E+04  0.00000000000E+00 0. -1.
         -2   -1    0    0    0  501 -0.00000000000E+00 -0.00000000000E+00 -0.23352721663E+02  0.23352721663E+02  0.00000000000E+00 0.  1.
          5    1    1    2  502    0 -0.25274792546E+02 -0.34886212213E+02  0.69626941243E+03  0.69761669104E+03  0.47000000000E+01 0.  1.
         -5    1    1    2    0  502 -0.74325128470E+02  0.32391608694E+02  0.27583849514E+03  0.28754548586E+03  0.47000000000E+01 0.  1.
        -11    1    1    2    0    0 -0.15222902129E+00  0.29855495861E+02  0.77083197828E+02  0.82663130803E+02  0.00000000000E+00 0.  1.
         11    1    1    2    0    0  0.99752150038E+02 -0.27360892341E+02  0.17653503970E+03  0.20460628072E+03  0.00000000000E+00 0. -1.
<mgrwt>
<rscale>  0 0.15321090E+03</rscale>
<asrwt>0</asrwt>
<pdfrwt beam="1">  1        2 0.19216593E+00 0.15984596E+03</pdfrwt>
<pdfrwt beam="2">  1       -2 0.35927274E-02 0.15984596E+03</pdfrwt>
<totfact> 0.59594475E+03</totfact>
</mgrwt>
</event>
<event>
 6    1  0.1190675E-005  0.1668501E+03  0.7546771E-02  0.1188138E+00
         -4   -1    0    0    0  501 -0.00000000000E+00  0.00000000000E+00  0.28354728640E+02  0.28354728640E+02  0.00000000000E+00 0.  1.
          4   -1    0    0  501    0  0.00000000000E+00 -0.00000000000E+00 -0.96337319328E+03  0.96337319328E+03  0.00000000000E+00 0. -1.
          5    1    1    2  502    0 -0.62847961228E+02  0.11196741137E+02 -0.17750250816E+03  0.18869145091E+03  0.47000000000E+01 0.  1.
         -5    1    1    2    0  502 -0.87510705759E+01 -0.95380657709E+02 -0.49468992112E+03  0.50389905651E+03  0.47000000000E+01 0.  1.
        -11    1    1    2    0    0 -0.12332725631E+02  0.46727960234E+02 -0.11915685838E+03  0.12858442864E+03  0.00000000000E+00 0.  1.
         11    1    1    2    0    0  0.83931757435E+02  0.37455956338E+02 -0.14366917699E+03  0.17055298587E+03  0.00000000000E+00 0. -1.
<mgrwt>
<rscale>  0 0.16049580E+03</rscale>
<asrwt>0</asrwt>
<pdfrwt beam="2">  1        4 0.14821126E+00 0.16685008E+03</pdfrwt>
<pdfrwt beam="1">  1       -4 0.43622659E-02 0.16685008E+03</pdfrwt>
<totfact> 0.16905408E+02</totfact>
</mgrwt>
</event>
<event>
 6    1  0.1190675E-005  0.1764798E+03  0.7546771E-02  0.1176447E+00
         -1   -1    0    0    0  501 -0.00000000000E+00  0.00000000000E+00  0.57352533550E+03  0.57352533550E+03  0.00000000000E+00 0.  1.
          1   -1    0    0  501    0  0.00000000000E+00 -0.00000000000E+00 -0.65981113533E+02  0.65981113533E+02  0.00000000000E+00 0. -1.
          5    1    1    2  502    0  0.84978794313E+02  0.91814003388E+02  0.57163127563E+02  0.13762601445E+03  0.47000000000E+01 0.  1.
         -5    1    1    2    0  502 -0.42002421129E+02  0.25120205304E+02  0.42878312177E+02  0.65237012121E+02  0.47000000000E+01 0.  1.
        -11    1    1    2    0    0 -0.57779922300E+02 -0.63678585727E+02  0.33271346451E+03  0.34364477469E+03  0.00000000000E+00 0.  1.
         11    1    1    2    0    0  0.14803549116E+02 -0.53255622965E+02  0.74789317715E+02  0.92998647775E+02  0.00000000000E+00 0. -1.
<mgrwt>
<rscale>  0 0.17135068E+03</rscale>
<asrwt>0</asrwt>
<pdfrwt beam="2">  1        1 0.10150941E-01 0.17647979E+03</pdfrwt>
<pdfrwt beam="1">  1       -1 0.88234664E-01 0.17647979E+03</pdfrwt>
<totfact> 0.82853239E+02</totfact>
</mgrwt>
</event>
<event>
 6    1  0.1190675E-005  0.1701123E+03  0.7546771E-02  0.1181286E+00
         -2   -1    0    0    0  501 -0.00000000000E+00  0.00000000000E+00  0.72121498911E+02  0.72121498911E+02  0.00000000000E+00 0.  1.
          2   -1    0    0  501    0  0.00000000000E+00 -0.00000000000E+00 -0.37326084141E+03  0.37326084141E+03  0.00000000000E+00 0. -1.
          5    1    1    2  502    0 -0.18097563840E+02 -0.12975693163E+03 -0.92501320008E+02  0.16044615086E+03  0.47000000000E+01 0. -1.
         -5    1    1    2    0  502 -0.13258322795E+02  0.60307082143E+01 -0.81387334197E+02  0.82813892147E+02  0.47000000000E+01 0.  1.
        -11    1    1    2    0    0 -0.17056055499E+01  0.16612017865E+02  0.14001817345E+02  0.21792639051E+02  0.00000000000E+00 0. -1.
         11    1    1    2    0    0  0.33061492185E+02  0.10711420556E+03 -0.14125250564E+03  0.18032965825E+03  0.00000000000E+00 0.  1.
<mgrwt>
<rscale>  0 0.16674483E+03</rscale>
<asrwt>0</asrwt>
<pdfrwt beam="2">  1        2 0.57424745E-01 0.17011227E+03</pdfrwt>
<pdfrwt beam="1">  1       -2 0.11095615E-01 0.17011227E+03</pdfrwt>
<totfact> 0.47066655E+03</totfact>
</mgrwt>
</event>
<event>
 6    1  0.1190675E-005  0.1535720E+03  0.7546771E-02  0.1204576E+00
          1   -1    0    0  501    0  0.00000000000E+00  0.00000000000E+00  0.93852211993E+03  0.93852211993E+03  0.00000000000E+00 0. -1.
         -1   -1    0    0    0  501 -0.00000000000E+00 -0.00000000000E+00 -0.28803937270E+02  0.28803937270E+02  0.00000000000E+00 0.  1.
          5    1    1    2  502    0  0.67376263208E+02 -0.15540203848E+02  0.17105711974E+03  0.18456350396E+03  0.47000000000E+01 0.  1.
         -5    1    1    2    0  502  0.15230345951E+02  0.49284622993E+02  0.56348335749E+03  0.56585910054E+03  0.47000000000E+01 0.  1.
        -11    1    1    2    0    0 -0.49743809715E+01 -0.13417754433E+02 -0.83708800112E+01  0.16578667988E+02  0.00000000000E+00 0.  1.
         11    1    1    2    0    0 -0.77632228187E+02 -0.20326664711E+02  0.18354858544E+03  0.20032478471E+03  0.00000000000E+00 0. -1.
<mgrwt>
<rscale>  0 0.14670896E+03</rscale>
<asrwt>0</asrwt>
<pdfrwt beam="1">  1        1 0.14438799E+00 0.15357204E+03</pdfrwt>
<pdfrwt beam="2">  1       -1 0.44313757E-02 0.15357204E+03</pdfrwt>
<totfact> 0.36984274E+03</totfact>
</mgrwt>
</event>
<event>
 6    1  0.1190675E-005  0.1314056E+03  0.7546771E-02  0.1239351E+00
          2   -1    0    0  501    0  0.00000000000E+00  0.00000000000E+00  0.34676912362E+03  0.34676912362E+03  0.00000000000E+00 0. -1.
         -2   -1    0    0    0  501 -0.00000000000E+00 -0.00000000000E+00 -0.38963331859E+02  0.38963331859E+02  0.00000000000E+00 0.  1.
          5    1    1    2  502    0 -0.69647299342E+01  0.41245893729E+02  0.17951517895E+03  0.18438416603E+03  0.47000000000E+01 0.  1.
         -5    1    1    2    0  502  0.44846308585E+02 -0.26884747896E+02  0.23663857676E+02  0.57585147592E+02  0.47000000000E+01 0.  1.
        -11    1    1    2    0    0 -0.54974164162E+02 -0.16139618845E+02  0.11141712079E+03  0.12528535759E+03  0.00000000000E+00 0. -1.
         11    1    1    2    0    0  0.17092585511E+02  0.17784730125E+01 -0.67903656463E+01  0.18477784265E+02  0.00000000000E+00 0.  1.
<mgrwt>
<rscale>  0 0.12229951E+03</rscale>
<asrwt>0</asrwt>
<pdfrwt beam="1">  1        2 0.53349094E-01 0.13140559E+03</pdfrwt>
<pdfrwt beam="2">  1       -2 0.59943590E-02 0.13140559E+03</pdfrwt>
<totfact> 0.13017324E+04</totfact>
</mgrwt>
</event>
<event>
 6    1  0.1190675E-005  0.1328749E+03  0.7546771E-02  0.1237264E+00
          2   -1    0    0  501    0  0.00000000000E+00  0.00000000000E+00  0.80492759105E+03  0.80492759105E+03  0.00000000000E+00 0.  1.
         -2   -1    0    0    0  501 -0.00000000000E+00 -0.00000000000E+00 -0.21806744782E+02  0.21806744782E+02  0.00000000000E+00 0. -1.
          5    1    1    2  502    0  0.47629439861E+02  0.39728541268E+01  0.27873319812E+03  0.28284029566E+03  0.47000000000E+01 0.  1.
         -5    1    1    2    0  502 -0.71922827687E+02 -0.41942918291E+02  0.35312879165E+03  0.36284174929E+03  0.47000000000E+01 0.  1.
        -11    1    1    2    0    0  0.54626931451E+02  0.17755633115E+02  0.11997580070E+03  0.13301713010E+03  0.00000000000E+00 0. -1.
         11    1    1    2    0    0 -0.30333543625E+02  0.20214431049E+02  0.31283055801E+02  0.48035160786E+02  0.00000000000E+00 0.  1.
<mgrwt>
<rscale>  0 0.12360621E+03</rscale>
<asrwt>0</asrwt>
<pdfrwt beam="1">  1        2 0.12383499E+00 0.13287486E+03</pdfrwt>
<pdfrwt beam="2">  1       -2 0.33548844E-02 0.13287486E+03</pdfrwt>
<totfact> 0.12049406E+04</totfact>
</mgrwt>
</event>
<event>
 6    1  0.1190675E-005  0.1984314E+03  0.7546771E-02  0.1173966E+00
          1   -1    0    0  501    0  0.00000000000E+00  0.00000000000E+00  0.18213071625E+03  0.18213071625E+03  0.00000000000E+00 0. -1.
         -1   -1    0    0    0  501 -0.00000000000E+00 -0.00000000000E+00 -0.22144559334E+03  0.22144559334E+03  0.00000000000E+00 0.  1.
          5    1    1    2  502    0 -0.10372831822E+03 -0.44860652170E+02  0.90625328459E+02  0.14493820156E+03  0.47000000000E+01 0. -1.
         -5    1    1    2    0  502  0.34609872146E+02  0.68166323059E+02  0.90671146362E+01  0.77128421591E+02  0.47000000000E+01 0.  1.
        -11    1    1    2    0    0  0.29884432745E+02 -0.50077695634E+02 -0.11347801732E+03  0.12758571760E+03  0.00000000000E+00 0.  1.
         11    1    1    2    0    0  0.39234013329E+02  0.26772024745E+02 -0.25529302854E+02  0.53923968836E+02  0.00000000000E+00 0. -1.
<mgrwt>
<rscale>  0 0.17377638E+03</rscale>
<asrwt>0</asrwt>
<pdfrwt beam="1">  1        1 0.28020110E-01 0.19843135E+03</pdfrwt>
<pdfrwt beam="2">  1       -1 0.34068553E-01 0.19843135E+03</pdfrwt>
<totfact> 0.13460684E+03</totfact>
</mgrwt>
</event>
<event>
 6    1  0.1190675E-005  0.1601020E+03  0.7546771E-02  0.1196871E+00
          1   -1    0    0  501    0  0.00000000000E+00  0.00000000000E+00  0.13532610926E+03  0.13532610926E+03  0.00000000000E+00 0. -1.
         -1   -1    0    0    0  501 -0.00000000000E+00 -0.00000000000E+00 -0.16041324067E+03  0.16041324067E+03  0.00000000000E+00 0.  1.
          5    1    1    2  502    0 -0.12431614844E+03 -0.29608096482E-01 -0.28429514245E+01  0.12443744618E+03  0.47000000000E+01 0. -1.
         -5    1    1    2    0  502  0.28545905219E+02  0.20747385612E+02  0.21571667976E+01  0.35666035427E+02  0.47000000000E+01 0.  1.
        -11    1    1    2    0    0  0.79362513689E+02 -0.46522188567E+02  0.64226366201E+01  0.92216987964E+02  0.00000000000E+00 0. -1.
         11    1    1    2    0    0  0.16407729534E+02  0.25804411052E+02 -0.30823983407E+02  0.43418880354E+02  0.00000000000E+00 0.  1.
<mgrwt>
<rscale>  0 0.15296961E+03</rscale>
<asrwt>0</asrwt>
<pdfrwt beam="1">  1        1 0.20819402E-01 0.16010201E+03</pdfrwt>
<pdfrwt beam="2">  1       -1 0.24678960E-01 0.16010201E+03</pdfrwt>
<totfact> 0.33513956E+03</totfact>
</mgrwt>
</event>
<event>
 6    1  0.1190675E-005  0.1264145E+03  0.7546771E-02  0.1247896E+00
          1   -1    0    0  501    0  0.00000000000E+00  0.00000000000E+00  0.11513702418E+04  0.11513702418E+04  0.00000000000E+00 0. -1.
         -1   -1    0    0    0  501 -0.00000000000E+00 -0.00000000000E+00 -0.10476987026E+02  0.10476987026E+02  0.00000000000E+00 0.  1.
          5    1    1    2  502    0  0.50457518432E+02 -0.24106161110E+01  0.44114256485E+03  0.44405025027E+03  0.47000000000E+01 0.  1.
         -5    1    1    2    0  502 -0.63216386962E+02 -0.11605678801E+02  0.22819387363E+03  0.23711924706E+03  0.47000000000E+01 0.  1.
        -11    1    1    2    0    0  0.11565178385E+01  0.52738558520E+02  0.27193798781E+03  0.27700715207E+03  0.00000000000E+00 0. -1.
         11    1    1    2    0    0  0.11602350691E+02 -0.38722263607E+02  0.19961882847E+03  0.20367057942E+03  0.00000000000E+00 0.  1.
<mgrwt>
<rscale>  0 0.11713734E+03</rscale>
<asrwt>0</asrwt>
<pdfrwt beam="1">  1        1 0.17713378E+00 0.12641446E+03</pdfrwt>
<pdfrwt beam="2">  1       -1 0.16118451E-02 0.12641446E+03</pdfrwt>
<totfact> 0.11203056E+04</totfact>
</mgrwt>
</event>
<event>
 6    1  0.1190675E-005  0.1435746E+03  0.7546771E-02  0.1219706E+00
          1   -1    0    0  501    0  0.00000000000E+00  0.00000000000E+00  0.35550158724E+03  0.35550158724E+03  0.00000000000E+00 0. -1.
         -1   -1    0    0    0  501 -0.00000000000E+00 -0.00000000000E+00 -0.55737390530E+02  0.55737390530E+02  0.00000000000E+00 0.  1.
          5    1    1    2  502    0  0.56141409903E+01 -0.80617224609E+02  0.12745315455E+03  0.15098692688E+03  0.47000000000E+01 0.  1.
         -5    1    1    2    0  502  0.49754288665E+02  0.36765877555E+02  0.12050033241E+03  0.13553464171E+03  0.47000000000E+01 0.  1.
        -11    1    1    2    0    0 -0.36282577266E+02  0.45916271045E+02  0.74667629946E+02  0.94868247172E+02  0.00000000000E+00 0. -1.
         11    1    1    2    0    0 -0.19085852389E+02 -0.20649239918E+01 -0.22856920190E+02  0.29849162016E+02  0.00000000000E+00 0.  1.
<mgrwt>
<rscale>  0 0.13536487E+03</rscale>
<asrwt>0</asrwt>
<pdfrwt beam="1">  1        1 0.54692551E-01 0.14357464E+03</pdfrwt>
<pdfrwt beam="2">  1       -1 0.85749834E-02 0.14357464E+03</pdfrwt>
<totfact> 0.52531274E+03</totfact>
</mgrwt>
</event>
<event>
 6    1  0.1190675E-005  0.1771297E+03  0.7546771E-02  0.1199501E+00
          1   -1    0    0  501    0  0.00000000000E+00  0.00000000000E+00  0.24842397834E+03  0.24842397834E+03  0.00000000000E+00 0. -1.
         -1   -1    0    0    0  501 -0.00000000000E+00 -0.00000000000E+00 -0.75206124925E+02  0.75206124925E+02  0.00000000000E+00 0.  1.
          5    1    1    2  502    0 -0.27890003095E+02  0.70218785118E+02  0.28616586543E+02  0.80929160884E+02  0.47000000000E+01 0. -1.
         -5    1    1    2    0  502  0.56050495269E+02 -0.74574016022E+02  0.10782613207E+03  0.14265870686E+03  0.47000000000E+01 0.  1.
        -11    1    1    2    0    0  0.88348048558E+01 -0.15149078842E+02 -0.21857013311E+02  0.28022801385E+02  0.00000000000E+00 0.  1.
         11    1    1    2    0    0 -0.36995297031E+02  0.19504309746E+02  0.58632148109E+02  0.72019434134E+02  0.00000000000E+00 0. -1.
<mgrwt>
<rscale>  0 0.15079376E+03</rscale>
<asrwt>0</asrwt>
<pdfrwt beam="1">  1        1 0.38219073E-01 0.17712967E+03</pdfrwt>
<pdfrwt beam="2">  1       -1 0.11570173E-01 0.17712967E+03</pdfrwt>
<totfact> 0.52472509E+03</totfact>
</mgrwt>
</event>
<event>
 6    1  0.1190675E-005  0.1435056E+03  0.7546771E-02  0.1218899E+00
          2   -1    0    0  501    0  0.00000000000E+00  0.00000000000E+00  0.20502999506E+03  0.20502999506E+03  0.00000000000E+00 0. -1.
         -2   -1    0    0    0  501 -0.00000000000E+00 -0.00000000000E+00 -0.10275150496E+03  0.10275150496E+03  0.00000000000E+00 0.  1.
          5    1    1    2  502    0  0.45474762949E+02 -0.60887111580E+02  0.11190442271E+03  0.13535096691E+03  0.47000000000E+01 0.  1.
         -5    1    1    2    0  502 -0.52199917098E+02 -0.92851240418E+01  0.12745768409E+02  0.54731978640E+02  0.47000000000E+01 0.  1.
        -11    1    1    2    0    0  0.22976698781E+02  0.13747624167E+02  0.29150143870E+02  0.39581014953E+02  0.00000000000E+00 0. -1.
         11    1    1    2    0    0 -0.16251544632E+02  0.56424611455E+02 -0.51521844881E+02  0.78117539520E+02  0.00000000000E+00 0.  1.
<mgrwt>
<rscale>  0 0.13593985E+03</rscale>
<asrwt>0</asrwt>
<pdfrwt beam="1">  1        2 0.31543076E-01 0.14350560E+03</pdfrwt>
<pdfrwt beam="2">  1       -2 0.15807924E-01 0.14350560E+03</pdfrwt>
<totfact> 0.49913080E+03</totfact>
</mgrwt>
</event>
<event>
 6    1  0.1190675E-005  0.4795214E+03  0.7546771E-02  0.1067360E+00
          1   -1    0    0  501    0  0.00000000000E+00  0.00000000000E+00  0.13545620022E+04  0.13545620022E+04  0.00000000000E+00 0. -1.
         -1   -1    0    0    0  501 -0.00000000000E+00 -0.00000000000E+00 -0.11584800685E+03  0.11584800685E+03  0.00000000000E+00 0.  1.
          5    1    1    2  502    0 -0.10963262333E+03  0.14806911694E+03  0.25371015230E+03  0.31358365211E+03  0.47000000000E+01 0. -1.
         -5    1    1    2    0  502  0.18514418732E+03 -0.15283670751E+03  0.10072240801E+04  0.10354515280E+04  0.47000000000E+01 0.  1.
        -11    1    1    2    0    0 -0.91050235762E+01 -0.65117906578E+01 -0.47973248463E+02  0.49261926881E+02  0.00000000000E+00 0.  1.
         11    1    1    2    0    0 -0.66406540417E+02  0.11279381230E+02  0.25753011415E+02  0.72112902091E+02  0.00000000000E+00 0. -1.
<mgrwt>
<rscale>  0 0.33867843E+03</rscale>
<asrwt>0</asrwt>
<pdfrwt beam="1">  1        1 0.20839414E+00 0.47952141E+03</pdfrwt>
<pdfrwt beam="2">  1       -1 0.17822771E-01 0.47952141E+03</pdfrwt>
<totfact> 0.21325659E+02</totfact>
</mgrwt>
</event>
<event>
 6    1  0.1190675E-005  0.1304478E+03  0.7546771E-02  0.1247261E+00
          2   -1    0    0  501    0  0.00000000000E+00  0.00000000000E+00  0.26614569658E+03  0.26614569658E+03  0.00000000000E+00 0. -1.
         -2   -1    0    0    0  501 -0.00000000000E+00 -0.00000000000E+00 -0.48932828717E+02  0.48932828717E+02  0.00000000000E+00 0.  1.
          5    1    1    2  502    0  0.32072167195E+01  0.96480490820E+01 -0.18699273359E+02  0.21797337322E+02  0.47000000000E+01 0.  1.
         -5    1    1    2    0  502 -0.11509000937E+02  0.26754655866E+02  0.19661948160E+03  0.19882046992E+03  0.47000000000E+01 0.  1.
        -11    1    1    2    0    0  0.29236040702E+02  0.29688141596E+01 -0.69751722470E+01  0.30202863463E+02  0.00000000000E+00 0.  1.
         11    1    1    2    0    0 -0.20934256485E+02 -0.39371519107E+02  0.46267831871E+02  0.64257854597E+02  0.00000000000E+00 0. -1.
<mgrwt>
<rscale>  0 0.11751046E+03</rscale>
<asrwt>0</asrwt>
<pdfrwt beam="1">  1        2 0.40945491E-01 0.13044775E+03</pdfrwt>
<pdfrwt beam="2">  1       -2 0.75281276E-02 0.13044775E+03</pdfrwt>
<totfact> 0.12162428E+04</totfact>
</mgrwt>
</event>
<event>
 6    1  0.1190675E-005  0.1764056E+03  0.7546771E-02  0.1177115E+00
          1   -1    0    0  501    0  0.00000000000E+00  0.00000000000E+00  0.14325759180E+04  0.14325759180E+04  0.00000000000E+00 0. -1.
         -1   -1    0    0    0  501 -0.00000000000E+00 -0.00000000000E+00 -0.21415315860E+02  0.21415315860E+02  0.00000000000E+00 0.  1.
          5    1    1    2  502    0 -0.47536181417E+02  0.21556431940E+02  0.60414915461E+03  0.60641789166E+03  0.47000000000E+01 0.  1.
         -5    1    1    2    0  502  0.19826802950E+02  0.99793634397E+02  0.37983054815E+03  0.39324954785E+03  0.47000000000E+01 0.  1.
        -11    1    1    2    0    0  0.54809650170E+02 -0.10496151869E+03  0.28426607504E+03  0.30794190942E+03  0.00000000000E+00 0.  1.
         11    1    1    2    0    0 -0.27100271702E+02 -0.16388547648E+02  0.14291482435E+03  0.14638188494E+03  0.00000000000E+00 0. -1.
<mgrwt>
<rscale>  0 0.17070426E+03</rscale>
<asrwt>0</asrwt>
<pdfrwt beam="1">  1        1 0.22039622E+00 0.17640560E+03</pdfrwt>
<pdfrwt beam="2">  1       -1 0.32946651E-02 0.17640560E+03</pdfrwt>
<totfact> 0.25972903E+03</totfact>
</mgrwt>
</event>
<event>
 6    1  0.1190675E-005  0.1485474E+03  0.7546771E-02  0.1211866E+00
         -1   -1    0    0    0  501 -0.00000000000E+00  0.00000000000E+00  0.64315627192E+02  0.64315627192E+02  0.00000000000E+00 0.  1.
          1   -1    0    0  501    0  0.00000000000E+00 -0.00000000000E+00 -0.29461825602E+03  0.29461825602E+03  0.00000000000E+00 0. -1.
          5    1    1    2  502    0 -0.42121323677E+01 -0.10693426410E+03 -0.13160993145E+03  0.16969367388E+03  0.47000000000E+01 0.  1.
         -5    1    1    2    0  502 -0.23881202401E+02  0.31756170656E+02 -0.31506216089E+02  0.50926396447E+02  0.47000000000E+01 0.  1.
        -11    1    1    2    0    0  0.42098925039E+02 -0.87150289893E-01 -0.36906513241E+02  0.55985871470E+02  0.00000000000E+00 0. -1.
         11    1    1    2    0    0 -0.14005590271E+02  0.75265243732E+02 -0.30279968045E+02  0.82327941415E+02  0.00000000000E+00 0.  1.
<mgrwt>
<rscale>  0 0.14109284E+03</rscale>
<asrwt>0</asrwt>
<pdfrwt beam="2">  1        1 0.45325886E-01 0.14854743E+03</pdfrwt>
<pdfrwt beam="1">  1       -1 0.98947118E-02 0.14854743E+03</pdfrwt>
<totfact> 0.53479459E+03</totfact>
</mgrwt>
</event>
<event>
 6    1  0.1190675E-005  0.1451247E+03  0.7546771E-02  0.1216635E+00
         -1   -1    0    0    0  501 -0.00000000000E+00  0.00000000000E+00  0.14909726245E+02  0.14909726245E+02  0.00000000000E+00 0.  1.
          1   -1    0    0  501    0  0.00000000000E+00 -0.00000000000E+00 -0.13086001317E+04  0.13086001317E+04  0.00000000000E+00 0. -1.
          5    1    1    2  502    0 -0.41405401873E+02 -0.38168579693E+02 -0.46679519854E+03  0.47020324878E+03  0.47000000000E+01 0. -1.
         -5    1    1    2    0  502 -0.16336226814E+02  0.84024596233E+02 -0.46729717332E+03  0.47509550963E+03  0.47000000000E+01 0. -1.
        -11    1    1    2    0    0  0.55207992343E+02  0.11738496587E+02 -0.22116659709E+03  0.22825507309E+03  0.00000000000E+00 0. -1.
         11    1    1    2    0    0  0.25336363436E+01 -0.57594513126E+02 -0.13843143646E+03  0.14995602641E+03  0.00000000000E+00 0.  1.
<mgrwt>
<rscale>  0 0.13757081E+03</rscale>
<asrwt>0</asrwt>
<pdfrwt beam="2">  1        1 0.20132313E+00 0.14512472E+03</pdfrwt>
<pdfrwt beam="1">  1       -1 0.22938037E-02 0.14512472E+03</pdfrwt>
<totfact> 0.53022082E+03</totfact>
</mgrwt>
</event>
<event>
 6    1  0.1190675E-005  0.1256266E+03  0.7546771E-02  0.1248551E+00
         -2   -1    0    0    0  501 -0.00000000000E+00  0.00000000000E+00  0.33899555240E+02  0.33899555240E+02  0.00000000000E+00 0.  1.
          2   -1    0    0  501    0  0.00000000000E+00 -0.00000000000E+00 -0.35624426510E+03  0.35624426510E+03  0.00000000000E+00 0. -1.
          5    1    1    2  502    0  0.20660256077E+02 -0.61400148172E+02 -0.96381812109E+02  0.11622550530E+03  0.47000000000E+01 0.  1.
         -5    1    1    2    0  502 -0.29541001336E+02  0.52630559375E+02 -0.10034077064E+03  0.11718791232E+03  0.47000000000E+01 0.  1.
        -11    1    1    2    0    0 -0.26731367281E+02  0.31545992902E+02 -0.26874251344E+02  0.49314714337E+02  0.00000000000E+00 0.  1.
         11    1    1    2    0    0  0.35612112540E+02 -0.22776404105E+02 -0.98747875768E+02  0.10741568839E+03  0.00000000000E+00 0. -1.
<mgrwt>
<rscale>  0 0.11675345E+03</rscale>
<asrwt>0</asrwt>
<pdfrwt beam="2">  1        2 0.54806810E-01 0.12562663E+03</pdfrwt>
<pdfrwt beam="1">  1       -2 0.52153162E-02 0.12562663E+03</pdfrwt>
<totfact> 0.15546537E+04</totfact>
</mgrwt>
</event>
<event>
 6    1  0.1190675E-005  0.2613936E+03  0.7546771E-02  0.1106309E+00
         -2   -1    0    0    0  501 -0.00000000000E+00  0.00000000000E+00  0.45820385057E+02  0.45820385057E+02  0.00000000000E+00 0.  1.
          2   -1    0    0  501    0  0.00000000000E+00 -0.00000000000E+00 -0.37279595833E+03  0.37279595833E+03  0.00000000000E+00 0. -1.
          5    1    1    2  502    0 -0.27894090922E+02  0.12567585123E+02 -0.11735802831E+02  0.33103528094E+02  0.47000000000E+01 0.  1.
         -5    1    1    2    0  502  0.95297217500E+02  0.10097021575E+00 -0.20792579543E+03  0.22877236779E+03  0.47000000000E+01 0.  1.
        -11    1    1    2    0    0 -0.18469176716E+02  0.38319413456E+02 -0.30368447681E+02  0.52265959770E+02  0.00000000000E+00 0.  1.
         11    1    1    2    0    0 -0.48933949863E+02 -0.50987968795E+02 -0.76945527328E+02  0.10447448773E+03  0.00000000000E+00 0. -1.
<mgrwt>
<rscale>  0 0.26139361E+03</rscale>
<asrwt>0</asrwt>
<pdfrwt beam="2">  1        2 0.57353223E-01 0.26139361E+03</pdfrwt>
<pdfrwt beam="1">  1       -2 0.70492902E-02 0.26139361E+03</pdfrwt>
<totfact> 0.98416053E+03</totfact>
</mgrwt>
</event>
<event>
 6    1  0.1190675E-005  0.1389276E+03  0.7546771E-02  0.1224410E+00
          2   -1    0    0  501    0  0.00000000000E+00  0.00000000000E+00  0.56501154444E+02  0.56501154444E+02  0.00000000000E+00 0. -1.
         -2   -1    0    0    0  501 -0.00000000000E+00 -0.00000000000E+00 -0.29945571981E+03  0.29945571981E+03  0.00000000000E+00 0.  1.
          5    1    1    2  502    0  0.55550767116E+01  0.25760217445E+02  0.19268545810E+02  0.32982033559E+02  0.47000000000E+01 0. -1.
         -5    1    1    2    0  502  0.44246745494E+02 -0.60350388790E+02 -0.10937438246E+03  0.13260765232E+03  0.47000000000E+01 0. -1.
        -11    1    1    2    0    0 -0.67685334688E+02  0.33975657970E+02 -0.15483371183E+03  0.17236336092E+03  0.00000000000E+00 0.  1.
         11    1    1    2    0    0  0.17883512482E+02  0.61451337551E+00  0.19849831173E+01  0.18003827464E+02  0.00000000000E+00 0. -1.
<mgrwt>
<rscale>  0 0.13207420E+03</rscale>
<asrwt>0</asrwt>
<pdfrwt beam="1">  1        2 0.86924855E-02 0.13892762E+03</pdfrwt>
<pdfrwt beam="2">  1       -2 0.46070110E-01 0.13892762E+03</pdfrwt>
<totfact> 0.33158966E+03</totfact>
</mgrwt>
</event>
<event>
 6    1  0.1190675E-005  0.1284511E+03  0.7546771E-02  0.1244211E+00
         -2   -1    0    0    0  501 -0.00000000000E+00  0.00000000000E+00  0.18229910294E+03  0.18229910294E+03  0.00000000000E+00 0.  1.
          2   -1    0    0  501    0  0.00000000000E+00 -0.00000000000E+00 -0.68903796714E+02  0.68903796714E+02  0.00000000000E+00 0. -1.
          5    1    1    2  502    0 -0.75508198244E+02 -0.14316630066E+02  0.24061280884E+02  0.80669009764E+02  0.47000000000E+01 0. -1.
         -5    1    1    2    0  502  0.48565389876E+02  0.20960301124E+01  0.38606337408E+02  0.62253752691E+02  0.47000000000E+01 0. -1.
        -11    1    1    2    0    0  0.60744355215E+02  0.10474933376E+02  0.29588755423E+02  0.68374669046E+02  0.00000000000E+00 0.  1.
         11    1    1    2    0    0 -0.33801546846E+02  0.17456665774E+01  0.21138932516E+02  0.39905468158E+02  0.00000000000E+00 0. -1.
<mgrwt>
<rscale>  0 0.11932698E+03</rscale>
<asrwt>0</asrwt>
<pdfrwt beam="2">  1        2 0.10600584E-01 0.12845110E+03</pdfrwt>
<pdfrwt beam="1">  1       -2 0.28046016E-01 0.12845110E+03</pdfrwt>
<totfact> 0.64913281E+03</totfact>
</mgrwt>
</event>
<event>
 6    1  0.1190675E-005  0.2627952E+03  0.7546771E-02  0.1105475E+00
         -2   -1    0    0    0  501 -0.00000000000E+00  0.00000000000E+00  0.19867116487E+02  0.19867116487E+02  0.00000000000E+00 0.  1.
          2   -1    0    0  501    0  0.00000000000E+00 -0.00000000000E+00 -0.86904043113E+03  0.86904043113E+03  0.00000000000E+00 0. -1.
          5    1    1    2  502    0 -0.68690043574E+02  0.58451438624E+02 -0.35524759468E+03  0.36654854561E+03  0.47000000000E+01 0.  1.
         -5    1    1    2    0  502  0.21071252967E+02 -0.35100641919E+02 -0.28288329997E+03  0.28586903325E+03  0.47000000000E+01 0.  1.
        -11    1    1    2    0    0  0.27216057329E+01 -0.52445686330E+02 -0.11808451542E+03  0.12923586938E+03  0.00000000000E+00 0. -1.
         11    1    1    2    0    0  0.44897184874E+02  0.29094889625E+02 -0.92957904566E+02  0.10725409938E+03  0.00000000000E+00 0.  1.
<mgrwt>
<rscale>  0 0.26279519E+03</rscale>
<asrwt>0</asrwt>
<pdfrwt beam="2">  1        2 0.13369852E+00 0.26279519E+03</pdfrwt>
<pdfrwt beam="1">  1       -2 0.30564796E-02 0.26279519E+03</pdfrwt>
<totfact> 0.13043597E+04</totfact>
</mgrwt>
</event>
<event>
 6    1  0.1190675E-005  0.2136705E+03  0.7546771E-02  0.1142753E+00
          1   -1    0    0  501    0  0.00000000000E+00  0.00000000000E+00  0.80067149514E+02  0.80067149514E+02  0.00000000000E+00 0. -1.
         -1   -1    0    0    0  501 -0.00000000000E+00 -0.00000000000E+00 -0.63013140424E+03  0.63013140424E+03  0.00000000000E+00 0.  1.
          5    1    1    2  502    0  0.43695143786E+02 -0.98158707821E+02 -0.11624006276E+03  0.15836110540E+03  0.47000000000E+01 0.  1.
         -5    1    1    2    0  502 -0.55219571018E+02 -0.74753711754E+02 -0.20406140023E+02  0.95267092928E+02  0.47000000000E+01 0.  1.
        -11    1    1    2    0    0  0.21196953364E+02  0.61714279939E+01 -0.88817280803E+02  0.91519979921E+02  0.00000000000E+00 0.  1.
         11    1    1    2    0    0 -0.96725261317E+01  0.16674099158E+03 -0.32460077113E+03  0.36505037550E+03  0.00000000000E+00 0. -1.
<mgrwt>
<rscale>  0 0.20850818E+03</rscale>
<asrwt>0</asrwt>
<pdfrwt beam="1">  1        1 0.12318022E-01 0.21367049E+03</pdfrwt>
<pdfrwt beam="2">  1       -1 0.96943299E-01 0.21367049E+03</pdfrwt>
<totfact> 0.52365799E+02</totfact>
</mgrwt>
</event>
<event>
 6    1  0.1190675E-005  0.2789634E+03  0.7546771E-02  0.1097971E+00
          2   -1    0    0  501    0  0.00000000000E+00  0.00000000000E+00  0.16542390780E+04  0.16542390780E+04  0.00000000000E+00 0. -1.
         -2   -1    0    0    0  501 -0.00000000000E+00 -0.00000000000E+00 -0.45037123894E+02  0.45037123894E+02  0.00000000000E+00 0.  1.
          5    1    1    2  502    0  0.75529367214E+02  0.20029172134E+03  0.68608028411E+03  0.71871392444E+03  0.47000000000E+01 0.  1.
         -5    1    1    2    0  502 -0.37434213284E+02  0.46172441654E+02  0.11481812716E+03  0.12937738217E+03  0.47000000000E+01 0.  1.
        -11    1    1    2    0    0 -0.58150567541E+01 -0.64348725266E+02  0.36774138750E+03  0.37337421096E+03  0.00000000000E+00 0.  1.
         11    1    1    2    0    0 -0.32280097176E+02 -0.18211543773E+03  0.44056215534E+03  0.47781068432E+03  0.00000000000E+00 0. -1.
<mgrwt>
<rscale>  0 0.27586131E+03</rscale>
<asrwt>0</asrwt>
<pdfrwt beam="1">  1        2 0.25449827E+00 0.27896344E+03</pdfrwt>
<pdfrwt beam="2">  1       -2 0.69287896E-02 0.27896344E+03</pdfrwt>
<totfact> 0.13373262E+03</totfact>
</mgrwt>
</event>
<event>
 6    1  0.1190675E-005  0.1715096E+03  0.7546771E-02  0.1197731E+00
         -2   -1    0    0    0  501 -0.00000000000E+00  0.00000000000E+00  0.41605007610E+02  0.41605007610E+02  0.00000000000E+00 0.  1.
          2   -1    0    0  501    0  0.00000000000E+00 -0.00000000000E+00 -0.10169101457E+04  0.10169101457E+04  0.00000000000E+00 0. -1.
          5    1    1    2  502    0 -0.18311118003E+02 -0.10799870924E+03 -0.50444142366E+03  0.51621919583E+03  0.47000000000E+01 0. -1.
         -5    1    1    2    0  502 -0.11313008448E+01  0.57858029759E+02 -0.42047749707E+03  0.42446701520E+03  0.47000000000E+01 0.  1.
        -11    1    1    2    0    0  0.51005937723E+02  0.54504428213E+02 -0.35139471487E+02  0.82505277615E+02  0.00000000000E+00 0.  1.
         11    1    1    2    0    0 -0.31563518876E+02 -0.43637487297E+01 -0.15246745901E+02  0.35323664693E+02  0.00000000000E+00 0. -1.
<mgrwt>
<rscale>  0 0.15225316E+03</rscale>
<asrwt>0</asrwt>
<pdfrwt beam="2">  1        2 0.15644771E+00 0.17150958E+03</pdfrwt>
<pdfrwt beam="1">  1       -2 0.64007706E-02 0.17150958E+03</pdfrwt>
<totfact> 0.33957538E+03</totfact>
</mgrwt>
</event>
<event>
 6    1  0.1190675E-005  0.2340985E+03  0.7546771E-02  0.1126553E+00
         -2   -1    0    0    0  501 -0.00000000000E+00  0.00000000000E+00  0.17469651345E+03  0.17469651345E+03  0.00000000000E+00 0.  1.
          2   -1    0    0  501    0  0.00000000000E+00 -0.00000000000E+00 -0.29403129576E+03  0.29403129576E+03  0.00000000000E+00 0. -1.
          5    1    1    2  502    0 -0.69022366148E+02 -0.15891753432E+03 -0.96730296997E+02  0.19848856416E+03  0.47000000000E+01 0. -1.
         -5    1    1    2    0  502  0.22764987387E+02 -0.33531021126E+02  0.23138514267E+02  0.46904742521E+02  0.47000000000E+01 0. -1.
        -11    1    1    2    0    0  0.55005473800E+02  0.14519789985E+03  0.24373266190E+01  0.15528674389E+03  0.00000000000E+00 0.  1.
         11    1    1    2    0    0 -0.87480950384E+01  0.47250655604E+02 -0.48180326202E+02  0.68047758632E+02  0.00000000000E+00 0. -1.
<mgrwt>
<rscale>  0 0.23012376E+03</rscale>
<asrwt>0</asrwt>
<pdfrwt beam="2">  1        2 0.45235583E-01 0.23409854E+03</pdfrwt>
<pdfrwt beam="1">  1       -2 0.26876387E-01 0.23409854E+03</pdfrwt>
<totfact> 0.13909571E+03</totfact>
</mgrwt>
</event>
<event>
 6    1  0.1190675E-005  0.1694931E+03  0.7546771E-02  0.1185044E+00
          2   -1    0    0  501    0  0.00000000000E+00  0.00000000000E+00  0.81773433697E+03  0.81773433697E+03  0.00000000000E+00 0.  1.
         -2   -1    0    0    0  501 -0.00000000000E+00 -0.00000000000E+00 -0.30435039793E+02  0.30435039793E+02  0.00000000000E+00 0. -1.
          5    1    1    2  502    0  0.29074071219E+02  0.12533884821E+02  0.17055468611E+03  0.17353210320E+03  0.47000000000E+01 0.  1.
         -5    1    1    2    0  502 -0.81713338695E+01 -0.12507743048E+03  0.24452508699E+03  0.27481947253E+03  0.47000000000E+01 0.  1.
        -11    1    1    2    0    0  0.17339283137E+02  0.10079726674E+03  0.22312855451E+03  0.24545282960E+03  0.00000000000E+00 0. -1.
         11    1    1    2    0    0 -0.38242020487E+02  0.11746278916E+02  0.14909096956E+03  0.15436497143E+03  0.00000000000E+00 0.  1.
<mgrwt>
<rscale>  0 0.16327853E+03</rscale>
<asrwt>0</asrwt>
<pdfrwt beam="1">  1        2 0.12580527E+00 0.16949312E+03</pdfrwt>
<pdfrwt beam="2">  1       -2 0.46823144E-02 0.16949312E+03</pdfrwt>
<totfact> 0.72885470E+03</totfact>
</mgrwt>
</event>
<event>
 6    1  0.1190675E-005  0.1561747E+03  0.7546771E-02  0.1208420E+00
         -1   -1    0    0    0  501 -0.00000000000E+00  0.00000000000E+00  0.75053753504E+03  0.75053753504E+03  0.00000000000E+00 0.  1.
          1   -1    0    0  501    0  0.00000000000E+00 -0.00000000000E+00 -0.36139682086E+02  0.36139682086E+02  0.00000000000E+00 0. -1.
          5    1    1    2  502    0  0.10019241860E+02 -0.23297178459E+02 -0.21278969806E+02  0.33436929997E+02  0.47000000000E+01 0. -1.
         -5    1    1    2    0  502  0.21331400313E+02  0.43807785053E+02  0.19113752146E+03  0.19730634247E+03  0.47000000000E+01 0.  1.
        -11    1    1    2    0    0 -0.69757680549E+02 -0.36055456541E+01  0.32531204111E+03  0.33272670173E+03  0.00000000000E+00 0.  1.
         11    1    1    2    0    0  0.38407038376E+02 -0.16905060940E+02  0.21922726019E+03  0.22320724292E+03  0.00000000000E+00 0. -1.
<mgrwt>
<rscale>  0 0.14371199E+03</rscale>
<asrwt>0</asrwt>
<pdfrwt beam="2">  1        1 0.55599517E-02 0.15617468E+03</pdfrwt>
<pdfrwt beam="1">  1       -1 0.11546730E+00 0.15617468E+03</pdfrwt>
<totfact> 0.10268689E+03</totfact>
</mgrwt>
</event>
<event>
 6    1  0.1190675E-005  0.1324594E+03  0.7546771E-02  0.1242258E+00
          2   -1    0    0  501    0  0.00000000000E+00  0.00000000000E+00  0.68217542929E+03  0.68217542929E+03  0.00000000000E+00 0. -1.
         -2   -1    0    0    0  501 -0.00000000000E+00 -0.00000000000E+00 -0.32298408061E+02  0.32298408061E+02  0.00000000000E+00 0.  1.
          5    1    1    2  502    0  0.14712764655E+02  0.54188395414E+02  0.39368590824E+03  0.39769778977E+03  0.47000000000E+01 0. -1.
         -5    1    1    2    0  502 -0.61751642251E+02 -0.22298747862E+02  0.19877296867E+03  0.20938787585E+03  0.47000000000E+01 0.  1.
        -11    1    1    2    0    0  0.22203084553E+02  0.21925677586E+02  0.15886276913E+02  0.35015512212E+02  0.00000000000E+00 0. -1.
         11    1    1    2    0    0  0.24835793043E+02 -0.53815325138E+02  0.41531867396E+02  0.72372659515E+02  0.00000000000E+00 0.  1.
<mgrwt>
<rscale>  0 0.12050982E+03</rscale>
<asrwt>0</asrwt>
<pdfrwt beam="1">  1        2 0.10495006E+00 0.13245937E+03</pdfrwt>
<pdfrwt beam="2">  1       -2 0.49689864E-02 0.13245937E+03</pdfrwt>
<totfact> 0.82062275E+03</totfact>
</mgrwt>
</event>
<event>
 6    1  0.1190675E-005  0.1395704E+03  0.7546771E-02  0.1225466E+00
          2   -1    0    0  501    0  0.00000000000E+00  0.00000000000E+00  0.12104653511E+03  0.12104653511E+03  0.00000000000E+00 0. -1.
         -2   -1    0    0    0  501 -0.00000000000E+00 -0.00000000000E+00 -0.15008483300E+03  0.15008483300E+03  0.00000000000E+00 0.  1.
          5    1    1    2  502    0  0.51903842067E+02  0.59543579143E+02  0.43076001524E+02  0.90094830850E+02  0.47000000000E+01 0. -1.
         -5    1    1    2    0  502  0.97567914688E+01 -0.52289769272E+02 -0.75379987605E+01  0.53928901116E+02  0.47000000000E+01 0. -1.
        -11    1    1    2    0    0 -0.36728819284E+02  0.38873700307E+02 -0.48676524095E+02  0.72315798686E+02  0.00000000000E+00 0.  1.
         11    1    1    2    0    0 -0.24931814252E+02 -0.46127510179E+02 -0.15899776564E+02  0.54791837458E+02  0.00000000000E+00 0. -1.
<mgrwt>
<rscale>  0 0.13135008E+03</rscale>
<asrwt>0</asrwt>
<pdfrwt beam="1">  1        2 0.18622544E-01 0.13957036E+03</pdfrwt>
<pdfrwt beam="2">  1       -2 0.23089974E-01 0.13957036E+03</pdfrwt>
<totfact> 0.47214454E+03</totfact>
</mgrwt>
</event>
<event>
 6    1  0.1190675E-005  0.1522143E+03  0.7546771E-02  0.1219128E+00
          1   -1    0    0  501    0  0.00000000000E+00  0.00000000000E+00  0.18600908166E+02  0.18600908166E+02  0.00000000000E+00 0. -1.
         -1   -1    0    0    0  501 -0.00000000000E+00 -0.00000000000E+00 -0.84674620958E+03  0.84674620958E+03  0.00000000000E+00 0.  1.
          5    1    1    2  502    0 -0.24506285920E+02  0.75807722406E+02 -0.15490111805E+03  0.17425215981E+03  0.47000000000E+01 0. -1.
         -5    1    1    2    0  502  0.35231144179E+02 -0.46830408546E+02 -0.29200608721E+03  0.29786568391E+03  0.47000000000E+01 0.  1.
        -11    1    1    2    0    0  0.44426674258E+01 -0.59408256682E+02 -0.28503989102E+03  0.29119893154E+03  0.00000000000E+00 0.  1.
         11    1    1    2    0    0 -0.15167525685E+02  0.30430942821E+02 -0.96198205128E+02  0.10203034248E+03  0.00000000000E+00 0. -1.
<mgrwt>
<rscale>  0 0.13577657E+03</rscale>
<asrwt>0</asrwt>
<pdfrwt beam="1">  1        1 0.28616786E-02 0.15221435E+03</pdfrwt>
<pdfrwt beam="2">  1       -1 0.13026863E+00 0.15221435E+03</pdfrwt>
<totfact> 0.19259934E+03</totfact>
</mgrwt>
</event>
<event>
 6    1  0.1190675E-005  0.1145928E+03  0.7546771E-02  0.1264405E+00
          2   -1    0    0  501    0  0.00000000000E+00  0.00000000000E+00  0.67388729305E+03  0.67388729305E+03  0.00000000000E+00 0. -1.
         -2   -1    0    0    0  501 -0.00000000000E+00 -0.00000000000E+00 -0.33865347372E+02  0.33865347372E+02  0.00000000000E+00 0.  1.
          5    1    1    2  502    0 -0.27559682159E+00  0.12142857585E+02  0.59393306558E+03  0.59407583804E+03  0.47000000000E+01 0. -1.
         -5    1    1    2    0  502 -0.88143102882E+01 -0.87618134644E+01  0.28240368025E+01  0.13584057748E+02  0.47000000000E+01 0.  1.
        -11    1    1    2    0    0  0.44593450803E+02  0.17628216559E+02  0.15614587886E+02  0.50429606665E+02  0.00000000000E+00 0.  1.
         11    1    1    2    0    0 -0.35503543693E+02 -0.21009260680E+02  0.27650255401E+02  0.49663137968E+02  0.00000000000E+00 0. -1.
<mgrwt>
<rscale>  0 0.10795451E+03</rscale>
<asrwt>0</asrwt>
<pdfrwt beam="1">  1        2 0.10367496E+00 0.11459280E+03</pdfrwt>
<pdfrwt beam="2">  1       -2 0.52100539E-02 0.11459280E+03</pdfrwt>
<totfact> 0.76860626E+03</totfact>
</mgrwt>
</event>
<event>
 6    1  0.1190675E-005  0.2353242E+03  0.7546771E-02  0.1125931E+00
          1   -1    0    0  501    0  0.00000000000E+00  0.00000000000E+00  0.10572327998E+04  0.10572327998E+04  0.00000000000E+00 0. -1.
         -1   -1    0    0    0  501 -0.00000000000E+00 -0.00000000000E+00 -0.96071153433E+02  0.96071153433E+02  0.00000000000E+00 0.  1.
          5    1    1    2  502    0 -0.15811396935E+03 -0.10246884413E+02  0.82048040584E+03  0.83565256675E+03  0.47000000000E+01 0.  1.
         -5    1    1    2    0  502 -0.36325764814E+02 -0.33868249345E+02  0.73856251221E+02  0.89126064355E+02  0.47000000000E+01 0.  1.
        -11    1    1    2    0    0  0.11283422977E+03  0.37459760351E+02 -0.58692823083E+01  0.11903464004E+03  0.00000000000E+00 0.  1.
         11    1    1    2    0    0  0.81605504387E+02  0.66553734074E+01  0.72694271636E+02  0.10949068212E+03  0.00000000000E+00 0. -1.
<mgrwt>
<rscale>  0 0.23101008E+03</rscale>
<asrwt>0</asrwt>
<pdfrwt beam="1">  1        1 0.16265119E+00 0.23532416E+03</pdfrwt>
<pdfrwt beam="2">  1       -1 0.14780178E-01 0.23532416E+03</pdfrwt>
<totfact> 0.48111501E+02</totfact>
</mgrwt>
</event>
<event>
 6    1  0.1190675E-005  0.3024023E+03  0.7546771E-02  0.1084046E+00
          1   -1    0    0  501    0  0.00000000000E+00  0.00000000000E+00  0.70974693326E+03  0.70974693326E+03  0.00000000000E+00 0. -1.
         -1   -1    0    0    0  501 -0.00000000000E+00 -0.00000000000E+00 -0.32211179830E+02  0.32211179830E+02  0.00000000000E+00 0.  1.
          5    1    1    2  502    0 -0.54200888567E+02  0.82622378780E+02  0.49268476416E+03  0.50251821921E+03  0.47000000000E+01 0. -1.
         -5    1    1    2    0  502  0.30424690964E+02 -0.10195172891E+02  0.50223741472E+02  0.59783924076E+02  0.47000000000E+01 0. -1.
        -11    1    1    2    0    0 -0.69421649471E+01 -0.40665467439E+02  0.36368714445E+01  0.41413774642E+02  0.00000000000E+00 0.  1.
         11    1    1    2    0    0  0.30718362550E+02 -0.31761738449E+02  0.13099037635E+03  0.13824219516E+03  0.00000000000E+00 0. -1.
<mgrwt>
<rscale>  0 0.30240229E+03</rscale>
<asrwt>0</asrwt>
<pdfrwt beam="1">  1        1 0.10919182E+00 0.30240229E+03</pdfrwt>
<pdfrwt beam="2">  1       -1 0.49555667E-02 0.30240229E+03</pdfrwt>
<totfact> 0.49288089E+03</totfact>
</mgrwt>
</event>
<event>
 6    1  0.1190675E-005  0.1301635E+03  0.7546771E-02  0.1240177E+00
         -1   -1    0    0    0  501 -0.00000000000E+00  0.00000000000E+00  0.39611497062E+02  0.39611497062E+02  0.00000000000E+00 0.  1.
          1   -1    0    0  501    0  0.00000000000E+00 -0.00000000000E+00 -0.34336411770E+03  0.34336411770E+03  0.00000000000E+00 0. -1.
          5    1    1    2  502    0  0.19255698699E+02  0.72828460468E+02 -0.84903528375E+02  0.11360222584E+03  0.47000000000E+01 0.  1.
         -5    1    1    2    0  502  0.66434652320E+01 -0.47402791627E+02 -0.11844336064E+03  0.12783614498E+03  0.47000000000E+01 0.  1.
        -11    1    1    2    0    0 -0.19212239350E+02  0.16975629607E+02  0.64035152356E+01  0.26425123439E+02  0.00000000000E+00 0. -1.
         11    1    1    2    0    0 -0.66869245812E+01 -0.42401298447E+02 -0.10680924686E+03  0.11511212050E+03  0.00000000000E+00 0.  1.
<mgrwt>
<rscale>  0 0.12178753E+03</rscale>
<asrwt>0</asrwt>
<pdfrwt beam="2">  1        1 0.52825249E-01 0.13016347E+03</pdfrwt>
<pdfrwt beam="1">  1       -1 0.60940764E-02 0.13016347E+03</pdfrwt>
<totfact> 0.91053516E+03</totfact>
</mgrwt>
</event>
<event>
 6    1  0.1190675E-005  0.1794042E+03  0.7546771E-02  0.1174228E+00
          3   -1    0    0  501    0  0.00000000000E+00  0.00000000000E+00  0.46735889202E+03  0.46735889202E+03  0.00000000000E+00 0. -1.
         -3   -1    0    0    0  501 -0.00000000000E+00 -0.00000000000E+00 -0.67015125756E+02  0.67015125756E+02  0.00000000000E+00 0.  1.
          5    1    1    2  502    0  0.51971587379E+02 -0.10414145832E+01  0.30760803578E+02  0.60584218043E+02  0.47000000000E+01 0.  1.
         -5    1    1    2    0  502  0.27690235464E+02  0.10211921248E+03  0.26438312164E+03  0.28480801904E+03  0.47000000000E+01 0.  1.
        -11    1    1    2    0    0 -0.38237675936E+02 -0.93796976554E+02  0.35040309496E+02  0.10718122952E+03  0.00000000000E+00 0.  1.
         11    1    1    2    0    0 -0.41424146908E+02 -0.72808213381E+01  0.70159531551E+02  0.81800551184E+02  0.00000000000E+00 0. -1.
<mgrwt>
<rscale>  0 0.17351825E+03</rscale>
<asrwt>0</asrwt>
<pdfrwt beam="1">  1        3 0.71901366E-01 0.17940418E+03</pdfrwt>
<pdfrwt beam="2">  1       -3 0.10310020E-01 0.17940418E+03</pdfrwt>
<totfact> 0.31803030E+02</totfact>
</mgrwt>
</event>
<event>
 6    1  0.1190675E-005  0.1358056E+03  0.7546771E-02  0.1231452E+00
         -2   -1    0    0    0  501 -0.00000000000E+00  0.00000000000E+00  0.11815621995E+03  0.11815621995E+03  0.00000000000E+00 0.  1.
          2   -1    0    0  501    0  0.00000000000E+00 -0.00000000000E+00 -0.19634051333E+03  0.19634051333E+03  0.00000000000E+00 0. -1.
          5    1    1    2  502    0  0.26727180004E+02 -0.45279899734E+02 -0.14340865107E+02  0.54702485162E+02  0.47000000000E+01 0. -1.
         -5    1    1    2    0  502  0.24820262863E+02  0.58011515997E+02 -0.12369816360E+03  0.13894138014E+03  0.47000000000E+01 0. -1.
        -11    1    1    2    0    0 -0.80663684244E+01  0.28847332215E+02  0.52230496229E+02  0.60210128814E+02  0.00000000000E+00 0. -1.
         11    1    1    2    0    0 -0.43481074442E+02 -0.41578948478E+02  0.76242390955E+01  0.60642739161E+02  0.00000000000E+00 0.  1.
<mgrwt>
<rscale>  0 0.12734297E+03</rscale>
<asrwt>0</asrwt>
<pdfrwt beam="2">  1        2 0.30206232E-01 0.13580564E+03</pdfrwt>
<pdfrwt beam="1">  1       -2 0.18177880E-01 0.13580564E+03</pdfrwt>
<totfact> 0.41361555E+03</totfact>
</mgrwt>
</event>
<event>
 6    1  0.1190675E-005  0.2008328E+03  0.7546771E-02  0.1165889E+00
          1   -1    0    0  501    0  0.00000000000E+00  0.00000000000E+00  0.10453124711E+04  0.10453124711E+04  0.00000000000E+00 0. -1.
         -1   -1    0    0    0  501 -0.00000000000E+00 -0.00000000000E+00 -0.52558441446E+02  0.52558441446E+02  0.00000000000E+00 0.  1.
          5    1    1    2  502    0 -0.31725143934E+02 -0.21552616599E+01  0.59053063203E+03  0.59140480829E+03  0.47000000000E+01 0. -1.
         -5    1    1    2    0  502  0.78341078146E+02  0.89969214095E+02  0.33426324769E+03  0.35494477425E+03  0.47000000000E+01 0.  1.
        -11    1    1    2    0    0 -0.38683054928E+02 -0.98135076998E+02  0.27487293426E+02  0.10900652905E+03  0.00000000000E+00 0. -1.
         11    1    1    2    0    0 -0.79328792833E+01  0.10321124563E+02  0.40472856537E+02  0.42514800978E+02  0.00000000000E+00 0.  1.
<mgrwt>
<rscale>  0 0.18199157E+03</rscale>
<asrwt>0</asrwt>
<pdfrwt beam="1">  1        1 0.16081729E+00 0.20083280E+03</pdfrwt>
<pdfrwt beam="2">  1       -1 0.80859149E-02 0.20083280E+03</pdfrwt>
<totfact> 0.12552081E+03</totfact>
</mgrwt>
</event>
<event>
 6    1  0.1190675E-005  0.1300245E+03  0.7546771E-02  0.1241444E+00
         -2   -1    0    0    0  501 -0.00000000000E+00  0.00000000000E+00  0.19576040082E+03  0.19576040082E+03  0.00000000000E+00 0. -1.
          2   -1    0    0  501    0  0.00000000000E+00 -0.00000000000E+00 -0.69983512656E+02  0.69983512656E+02  0.00000000000E+00 0.  1.
          5    1    1    2  502    0 -0.62132967429E+02 -0.15587763745E+02  0.24447723628E+02  0.68726015530E+02  0.47000000000E+01 0.  1.
         -5    1    1    2    0  502  0.38419503843E+02  0.42395998480E+02  0.77790821471E+02  0.96679785207E+02  0.47000000000E+01 0.  1.
        -11    1    1    2    0    0  0.50714449105E+02 -0.14816316013E+02 -0.11942387377E+02  0.54167325802E+02  0.00000000000E+00 0.  1.
         11    1    1    2    0    0 -0.27000985519E+02 -0.11991918722E+02  0.35480730440E+02  0.46170786935E+02  0.00000000000E+00 0. -1.
<mgrwt>
<rscale>  0 0.12100752E+03</rscale>
<asrwt>0</asrwt>
<pdfrwt beam="2">  1        2 0.10766694E-01 0.13002445E+03</pdfrwt>
<pdfrwt beam="1">  1       -2 0.30116984E-01 0.13002445E+03</pdfrwt>
<totfact> 0.56135314E+03</totfact>
</mgrwt>
</event>
<event>
 6    1  0.1190675E-005  0.2437087E+03  0.7546771E-02  0.1117347E+00
         -1   -1    0    0    0  501 -0.00000000000E+00  0.00000000000E+00  0.14907172206E+03  0.14907172206E+03  0.00000000000E+00 0.  1.
          1   -1    0    0  501    0  0.00000000000E+00 -0.00000000000E+00 -0.99606284082E+02  0.99606284082E+02  0.00000000000E+00 0. -1.
          5    1    1    2  502    0 -0.26391336900E+02  0.56614127270E+02 -0.20710348639E+02  0.65974772532E+02  0.47000000000E+01 0. -1.
         -5    1    1    2    0  502  0.14995036038E+02 -0.98628900688E+01  0.77191870020E+02  0.79390191481E+02  0.47000000000E+01 0. -1.
        -11    1    1    2    0    0  0.34674087855E+02 -0.64563764200E+01  0.28034360291E+02  0.45054439537E+02  0.00000000000E+00 0.  1.
         11    1    1    2    0    0 -0.23277786993E+02 -0.40294860781E+02 -0.35050443694E+02  0.58258602591E+02  0.00000000000E+00 0. -1.
<mgrwt>
<rscale>  0 0.24370868E+03</rscale>
<asrwt>0</asrwt>
<pdfrwt beam="2">  1        1 0.15324044E-01 0.24370868E+03</pdfrwt>
<pdfrwt beam="1">  1       -1 0.22934111E-01 0.24370868E+03</pdfrwt>
<totfact> 0.57447961E+03</totfact>
</mgrwt>
</event>
<event>
 6    1  0.1190675E-005  0.1433058E+03  0.7546771E-02  0.1221223E+00
         -1   -1    0    0    0  501 -0.00000000000E+00  0.00000000000E+00  0.64192765551E+03  0.64192765551E+03  0.00000000000E+00 0.  1.
          1   -1    0    0  501    0  0.00000000000E+00 -0.00000000000E+00 -0.25198074534E+02  0.25198074534E+02  0.00000000000E+00 0. -1.
          5    1    1    2  502    0  0.37293308951E+02 -0.10105695525E+02  0.18464554557E+03  0.18870342730E+03  0.47000000000E+01 0.  1.
         -5    1    1    2    0  502 -0.40094404407E+02  0.80137249771E+02  0.14171572748E+03  0.16773484278E+03  0.47000000000E+01 0.  1.
        -11    1    1    2    0    0 -0.37739517920E+02 -0.43412245786E+02  0.20024353850E+03  0.20834195211E+03  0.00000000000E+00 0.  1.
         11    1    1    2    0    0  0.40540613376E+02 -0.26619308459E+02  0.90124769414E+02  0.10234550785E+03  0.00000000000E+00 0. -1.
<mgrwt>
<rscale>  0 0.13429209E+03</rscale>
<asrwt>0</asrwt>
<pdfrwt beam="2">  1        1 0.38766273E-02 0.14330583E+03</pdfrwt>
<pdfrwt beam="1">  1       -1 0.98758089E-01 0.14330583E+03</pdfrwt>
<totfact> 0.23897010E+03</totfact>
</mgrwt>
</event>
<event>
 6    1  0.1190675E-005  0.3290911E+03  0.7546771E-02  0.1071540E+00
         -2   -1    0    0    0  501 -0.00000000000E+00  0.00000000000E+00  0.16674309135E+02  0.16674309135E+02  0.00000000000E+00 0.  1.
          2   -1    0    0  501    0  0.00000000000E+00 -0.00000000000E+00 -0.16237699483E+04  0.16237699483E+04  0.00000000000E+00 0. -1.
          5    1    1    2  502    0 -0.19790040593E+02 -0.89951391826E+01 -0.52229107775E+02  0.56767313963E+02  0.47000000000E+01 0. -1.
         -5    1    1    2    0  502  0.13817604144E+03  0.87023758823E+01 -0.97409223075E+03  0.98389334472E+03  0.47000000000E+01 0. -1.
        -11    1    1    2    0    0 -0.27441217460E+02  0.41189243165E+02 -0.21857450733E+03  0.22410798608E+03  0.00000000000E+00 0.  1.
         11    1    1    2    0    0 -0.90944783383E+02 -0.40896479864E+02 -0.36219979335E+03  0.37567561272E+03  0.00000000000E+00 0. -1.
<mgrwt>
<rscale>  0 0.32909112E+03</rscale>
<asrwt>0</asrwt>
<pdfrwt beam="2">  1        2 0.24981088E+00 0.32909112E+03</pdfrwt>
<pdfrwt beam="1">  1       -2 0.25652771E-02 0.32909112E+03</pdfrwt>
<totfact> 0.62816198E+03</totfact>
</mgrwt>
</event>
<event>
 6    1  0.1190675E-005  0.1254606E+03  0.7546771E-02  0.1247976E+00
         -2   -1    0    0    0  501 -0.00000000000E+00  0.00000000000E+00  0.74419001982E+02  0.74419001982E+02  0.00000000000E+00 0.  1.
          2   -1    0    0  501    0  0.00000000000E+00 -0.00000000000E+00 -0.19889128489E+03  0.19889128489E+03  0.00000000000E+00 0. -1.
          5    1    1    2  502    0  0.14869583018E+02  0.12908030245E+02 -0.13934570149E+03  0.14080850922E+03  0.47000000000E+01 0. -1.
         -5    1    1    2    0  502  0.70884641903E+00 -0.34662944364E+02  0.12926302235E+02  0.37298813181E+02  0.47000000000E+01 0.  1.
        -11    1    1    2    0    0 -0.34891204120E+02  0.46438974490E+02 -0.14414562828E+02  0.59847757670E+02  0.00000000000E+00 0.  1.
         11    1    1    2    0    0  0.19312774683E+02 -0.24684060371E+02  0.16361679179E+02  0.35355206801E+02  0.00000000000E+00 0. -1.
<mgrwt>
<rscale>  0 0.11709014E+03</rscale>
<asrwt>0</asrwt>
<pdfrwt beam="2">  1        2 0.30598659E-01 0.12546057E+03</pdfrwt>
<pdfrwt beam="1">  1       -2 0.11449077E-01 0.12546057E+03</pdfrwt>
<totfact> 0.86059512E+03</totfact>
</mgrwt>
</event>
<event>
 6    1  0.1190675E-005  0.1491561E+03  0.7546771E-02  0.1216598E+00
         -2   -1    0    0    0  501 -0.00000000000E+00  0.00000000000E+00  0.30668718844E+02  0.30668718844E+02  0.00000000000E+00 0.  1.
          2   -1    0    0  501    0  0.00000000000E+00 -0.00000000000E+00 -0.55277760381E+03  0.55277760381E+03  0.00000000000E+00 0. -1.
          5    1    1    2  502    0 -0.16173225799E+02  0.41853181260E+02 -0.20417817776E+03  0.20910303749E+03  0.47000000000E+01 0.  1.
         -5    1    1    2    0  502  0.89256075735E+02 -0.60979789989E+01 -0.14279690637E+03  0.16857306686E+03  0.47000000000E+01 0.  1.
        -11    1    1    2    0    0 -0.27195619612E+02  0.96306647111E+01 -0.11135982193E+03  0.11503634803E+03  0.00000000000E+00 0. -1.
         11    1    1    2    0    0 -0.45887230324E+02 -0.45385866972E+02 -0.63773978906E+02  0.90733870264E+02  0.00000000000E+00 0.  1.
<mgrwt>
<rscale>  0 0.13759808E+03</rscale>
<asrwt>0</asrwt>
<pdfrwt beam="2">  1        2 0.85042712E-01 0.14915606E+03</pdfrwt>
<pdfrwt beam="1">  1       -2 0.47182642E-02 0.14915606E+03</pdfrwt>
<totfact> 0.11374273E+04</totfact>
</mgrwt>
</event>
<event>
 6    1  0.1190675E-005  0.1570585E+03  0.7546771E-02  0.1199593E+00
          2   -1    0    0  501    0  0.00000000000E+00  0.00000000000E+00  0.24963556866E+04  0.24963556866E+04  0.00000000000E+00 0. -1.
         -2   -1    0    0    0  501 -0.00000000000E+00 -0.00000000000E+00 -0.17361774921E+02  0.17361774921E+02  0.00000000000E+00 0.  1.
          5    1    1    2  502    0  0.40501239449E+02  0.38524947835E+02  0.19591890900E+04  0.19599919649E+04  0.47000000000E+01 0. -1.
         -5    1    1    2    0  502  0.10052980951E+01  0.47061882317E+02  0.22949132139E+03  0.23431642705E+03  0.47000000000E+01 0. -1.
        -11    1    1    2    0    0  0.67342732741E+00 -0.46952035641E+02  0.23567302876E+03  0.24030547984E+03  0.00000000000E+00 0. -1.
         11    1    1    2    0    0 -0.42179964872E+02 -0.38634794511E+02  0.54640471526E+02  0.79103589755E+02  0.00000000000E+00 0.  1.
<mgrwt>
<rscale>  0 0.15071830E+03</rscale>
<asrwt>0</asrwt>
<pdfrwt beam="1">  1        2 0.38405444E+00 0.15705851E+03</pdfrwt>
<pdfrwt beam="2">  1       -2 0.26710443E-02 0.15705851E+03</pdfrwt>
<totfact> 0.20539463E+03</totfact>
</mgrwt>
</event>
<event>
 6    1  0.1190675E-005  0.1374707E+03  0.7546771E-02  0.1229639E+00
         -2   -1    0    0    0  501 -0.00000000000E+00  0.00000000000E+00  0.15174367616E+03  0.15174367616E+03  0.00000000000E+00 0.  1.
          2   -1    0    0  501    0  0.00000000000E+00 -0.00000000000E+00 -0.96967433936E+02  0.96967433936E+02  0.00000000000E+00 0. -1.
          5    1    1    2  502    0 -0.67556213214E+02  0.65609283559E+02  0.52681989313E+01  0.94436560467E+02  0.47000000000E+01 0.  1.
         -5    1    1    2    0  502  0.29305097106E+02 -0.23056388517E+02  0.28373629945E+02  0.47090749029E+02  0.47000000000E+01 0.  1.
        -11    1    1    2    0    0  0.87102441187E+01 -0.66252898351E+02  0.90696630618E+01  0.67435700342E+02  0.00000000000E+00 0. -1.
         11    1    1    2    0    0  0.29540871989E+02  0.23700003310E+02  0.12064750289E+02  0.39748100260E+02  0.00000000000E+00 0.  1.
<mgrwt>
<rscale>  0 0.12853969E+03</rscale>
<asrwt>0</asrwt>
<pdfrwt beam="2">  1        2 0.14918067E-01 0.13747075E+03</pdfrwt>
<pdfrwt beam="1">  1       -2 0.23345181E-01 0.13747075E+03</pdfrwt>
<totfact> 0.59815720E+03</totfact>
</mgrwt>
</event>
<event>
 6    1  0.1190675E-005  0.1608055E+03  0.7546771E-02  0.1195870E+00
         -4   -1    0    0    0  501 -0.00000000000E+00  0.00000000000E+00  0.59552892489E+03  0.59552892489E+03  0.00000000000E+00 0. -1.
          4   -1    0    0  501    0  0.00000000000E+00 -0.00000000000E+00 -0.36634726502E+02  0.36634726502E+02  0.00000000000E+00 0.  1.
          5    1    1    2  502    0 -0.36259118525E+02 -0.18730463842E+00  0.25948202741E+03  0.26204536116E+03  0.47000000000E+01 0.  1.
         -5    1    1    2    0  502 -0.60419356415E+02 -0.29583919216E+02  0.41453512195E+02  0.79159273487E+02  0.47000000000E+01 0.  1.
        -11    1    1    2    0    0  0.79615936414E+02  0.58386562832E+02  0.16588123731E+03  0.19303956315E+03  0.00000000000E+00 0.  1.
         11    1    1    2    0    0  0.17062538526E+02 -0.28615338978E+02  0.92077421473E+02  0.97919453588E+02  0.00000000000E+00 0. -1.
<mgrwt>
<rscale>  0 0.15380798E+03</rscale>
<asrwt>0</asrwt>
<pdfrwt beam="2">  1        4 0.56361122E-02 0.16080548E+03</pdfrwt>
<pdfrwt beam="1">  1       -4 0.91619828E-01 0.16080548E+03</pdfrwt>
<totfact> 0.35343362E+02</totfact>
</mgrwt>
</event>
<event>
 6    1  0.1190675E-005  0.2224524E+03  0.7546771E-02  0.1135155E+00
         -1   -1    0    0    0  501 -0.00000000000E+00  0.00000000000E+00  0.11516333292E+04  0.11516333292E+04  0.00000000000E+00 0.  1.
          1   -1    0    0  501    0  0.00000000000E+00 -0.00000000000E+00 -0.56907970157E+02  0.56907970157E+02  0.00000000000E+00 0. -1.
          5    1    1    2  502    0 -0.58130540530E+02  0.53545498086E+02  0.20700327740E+02  0.81834428428E+02  0.47000000000E+01 0.  1.
         -5    1    1    2    0  502 -0.11153160565E+03  0.17702896190E+02  0.21100757142E+03  0.23937204680E+03  0.47000000000E+01 0.  1.
        -11    1    1    2    0    0  0.86359290423E+02  0.19569643710E+01  0.51138370812E+03  0.51862804945E+03  0.00000000000E+00 0.  1.
         11    1    1    2    0    0  0.83302855759E+02 -0.73205358647E+02  0.35163375180E+03  0.36870677471E+03  0.00000000000E+00 0. -1.
<mgrwt>
<rscale>  0 0.21830214E+03</rscale>
<asrwt>0</asrwt>
<pdfrwt beam="2">  1        1 0.87550732E-02 0.22245235E+03</pdfrwt>
<pdfrwt beam="1">  1       -1 0.17717434E+00 0.22245235E+03</pdfrwt>
<totfact> 0.18496647E+02</totfact>
</mgrwt>
</event>
<event>
 6    1  0.1190675E-005  0.2334808E+03  0.7546771E-02  0.1124214E+00
          1   -1    0    0  501    0  0.00000000000E+00  0.00000000000E+00  0.21958648197E+03  0.21958648197E+03  0.00000000000E+00 0. -1.
         -1   -1    0    0    0  501 -0.00000000000E+00 -0.00000000000E+00 -0.62063559110E+02  0.62063559110E+02  0.00000000000E+00 0.  1.
          5    1    1    2  502    0  0.27529206371E+02 -0.77463789540E+01  0.15623586022E+03  0.15890121966E+03  0.47000000000E+01 0.  1.
         -5    1    1    2    0  502 -0.52957971922E+01  0.74637839511E+01 -0.22967399118E+02  0.25166345802E+02  0.47000000000E+01 0.  1.
        -11    1    1    2    0    0 -0.57338335428E+01 -0.30494178022E+02 -0.23143884286E+02  0.38709315677E+02  0.00000000000E+00 0.  1.
         11    1    1    2    0    0 -0.16499575636E+02  0.30776773025E+02  0.47398346045E+02  0.58873159944E+02  0.00000000000E+00 0. -1.
<mgrwt>
<rscale>  0 0.23348078E+03</rscale>
<asrwt>0</asrwt>
<pdfrwt beam="1">  1        1 0.33782535E-01 0.23348078E+03</pdfrwt>
<pdfrwt beam="2">  1       -1 0.95482400E-02 0.23348078E+03</pdfrwt>
<totfact> 0.83735544E+03</totfact>
</mgrwt>
</event>
<event>
 6    1  0.1190675E-005  0.1611486E+03  0.7546771E-02  0.1193898E+00
          1   -1    0    0  501    0  0.00000000000E+00  0.00000000000E+00  0.35719004264E+03  0.35719004264E+03  0.00000000000E+00 0. -1.
         -1   -1    0    0    0  501 -0.00000000000E+00 -0.00000000000E+00 -0.80806482850E+02  0.80806482850E+02  0.00000000000E+00 0.  1.
          5    1    1    2  502    0  0.68193777969E+02  0.54957509418E+02  0.21483304689E+03  0.23204751072E+03  0.47000000000E+01 0. -1.
         -5    1    1    2    0  502  0.32809422273E+02 -0.42943261008E+02  0.32764937174E+02  0.63373598319E+02  0.47000000000E+01 0. -1.
        -11    1    1    2    0    0 -0.91010594857E+02  0.14073400273E+02  0.52434702861E+02  0.10597352045E+03  0.00000000000E+00 0. -1.
         11    1    1    2    0    0 -0.99926053848E+01 -0.26087648683E+02 -0.23649127142E+02  0.36601896000E+02  0.00000000000E+00 0.  1.
<mgrwt>
<rscale>  0 0.15547903E+03</rscale>
<asrwt>0</asrwt>
<pdfrwt beam="1">  1        1 0.54952313E-01 0.16114860E+03</pdfrwt>
<pdfrwt beam="2">  1       -1 0.12431767E-01 0.16114860E+03</pdfrwt>
<totfact> 0.29706480E+03</totfact>
</mgrwt>
</event>
<event>
 6    1  0.1190675E-005  0.3760483E+03  0.7546771E-02  0.1052404E+00
         -1   -1    0    0    0  501 -0.00000000000E+00  0.00000000000E+00  0.90826309483E+02  0.90826309483E+02  0.00000000000E+00 0.  1.
          1   -1    0    0  501    0  0.00000000000E+00 -0.00000000000E+00 -0.38923838991E+03  0.38923838991E+03  0.00000000000E+00 0. -1.
          5    1    1    2  502    0  0.20328299844E+02 -0.98189194168E+01 -0.36629255694E+02  0.43283291531E+02  0.47000000000E+01 0. -1.
         -5    1    1    2    0  502 -0.15512711487E+03 -0.40644454205E+02 -0.19662208270E+03  0.25376904230E+03  0.47000000000E+01 0.  1.
        -11    1    1    2    0    0  0.75183533119E+02  0.96208916782E+01  0.12623316819E+02  0.76840570901E+02  0.00000000000E+00 0.  1.
         11    1    1    2    0    0  0.59615281912E+02  0.40842481944E+02 -0.77784058851E+02  0.10617179465E+03  0.00000000000E+00 0. -1.
<mgrwt>
<rscale>  0 0.37604833E+03</rscale>
<asrwt>0</asrwt>
<pdfrwt beam="2">  1        1 0.59882829E-01 0.37604833E+03</pdfrwt>
<pdfrwt beam="1">  1       -1 0.13973278E-01 0.37604833E+03</pdfrwt>
<totfact> 0.22684376E+03</totfact>
</mgrwt>
</event>
<event>
 6    1  0.1190675E-005  0.2184261E+03  0.7546771E-02  0.1138393E+00
         -1   -1    0    0    0  501 -0.00000000000E+00  0.00000000000E+00  0.37348456195E+03  0.37348456195E+03  0.00000000000E+00 0.  1.
          1   -1    0    0  501    0  0.00000000000E+00 -0.00000000000E+00 -0.12422363673E+03  0.12422363673E+03  0.00000000000E+00 0. -1.
          5    1    1    2  502    0 -0.83524008671E+02 -0.76372808261E+02  0.38316281902E+02  0.11957965264E+03  0.47000000000E+01 0.  1.
         -5    1    1    2    0  502 -0.93361233751E+02  0.48149753843E+02  0.35510258301E+02  0.11098552702E+03  0.47000000000E+01 0.  1.
        -11    1    1    2    0    0  0.74758834252E+02  0.45053306572E+02  0.12379508244E+03  0.15147246010E+03  0.00000000000E+00 0.  1.
         11    1    1    2    0    0  0.10212640817E+03 -0.16830252154E+02  0.51639302571E+02  0.11567055893E+03  0.00000000000E+00 0. -1.
<mgrwt>
<rscale>  0 0.21405643E+03</rscale>
<asrwt>0</asrwt>
<pdfrwt beam="2">  1        1 0.19111329E-01 0.21842606E+03</pdfrwt>
<pdfrwt beam="1">  1       -1 0.57459163E-01 0.21842606E+03</pdfrwt>
<totfact> 0.85478700E+02</totfact>
</mgrwt>
</event>
<event>
 6    1  0.1190675E-005  0.3287666E+03  0.7546771E-02  0.1071684E+00
          1   -1    0    0  501    0  0.00000000000E+00  0.00000000000E+00  0.35429169564E+03  0.35429169564E+03  0.00000000000E+00 0. -1.
         -1   -1    0    0    0  501 -0.00000000000E+00 -0.00000000000E+00 -0.76270118281E+02  0.76270118281E+02  0.00000000000E+00 0.  1.
          5    1    1    2  502    0 -0.84637358398E+01  0.84116465109E+02  0.28498243717E+03  0.29729496132E+03  0.47000000000E+01 0. -1.
         -5    1    1    2    0  502  0.65449621621E+01 -0.40605799522E+01 -0.11082876357E+02  0.14291430565E+02  0.47000000000E+01 0. -1.
        -11    1    1    2    0    0 -0.23266650838E+02  0.42639805233E+01  0.18213105101E+02  0.29853572124E+02  0.00000000000E+00 0. -1.
         11    1    1    2    0    0  0.25185424516E+02 -0.84319865681E+02 -0.14091088555E+02  0.89121849920E+02  0.00000000000E+00 0.  1.
<mgrwt>
<rscale>  0 0.32876660E+03</rscale>
<asrwt>0</asrwt>
<pdfrwt beam="1">  1        1 0.54506414E-01 0.32876660E+03</pdfrwt>
<pdfrwt beam="2">  1       -1 0.11733865E-01 0.32876660E+03</pdfrwt>
<totfact> 0.33667274E+03</totfact>
</mgrwt>
</event>
<event>
 6    1  0.1190675E-005  0.1261521E+03  0.7546771E-02  0.1251502E+00
         -1   -1    0    0    0  501 -0.00000000000E+00  0.00000000000E+00  0.23000569369E+02  0.23000569369E+02  0.00000000000E+00 0.  1.
          1   -1    0    0  501    0  0.00000000000E+00 -0.00000000000E+00 -0.70173871239E+03  0.70173871239E+03  0.00000000000E+00 0. -1.
          5    1    1    2  502    0  0.48427869295E+02  0.63747944868E+01 -0.12537880833E+03  0.13463963795E+03  0.47000000000E+01 0.  1.
         -5    1    1    2    0  502 -0.62689503312E+02  0.29400127333E+01 -0.45198402641E+03  0.45634446160E+03  0.47000000000E+01 0.  1.
        -11    1    1    2    0    0 -0.21800294044E+02  0.16569097922E+02 -0.79864381577E+02  0.84428118960E+02  0.00000000000E+00 0. -1.
         11    1    1    2    0    0  0.36061928060E+02 -0.25883905142E+02 -0.21510926694E+02  0.49327063242E+02  0.00000000000E+00 0.  1.
<mgrwt>
<rscale>  0 0.11504533E+03</rscale>
<asrwt>0</asrwt>
<pdfrwt beam="2">  1        1 0.10795978E+00 0.12615214E+03</pdfrwt>
<pdfrwt beam="1">  1       -1 0.35385498E-02 0.12615214E+03</pdfrwt>
<totfact> 0.79394668E+03</totfact>
</mgrwt>
</event>
<event>
 6    1  0.1190675E-005  0.1662042E+03  0.7546771E-02  0.1187704E+00
         -1   -1    0    0    0  501 -0.00000000000E+00  0.00000000000E+00  0.32147351824E+03  0.32147351824E+03  0.00000000000E+00 0.  1.
          1   -1    0    0  501    0  0.00000000000E+00 -0.00000000000E+00 -0.11580363085E+03  0.11580363085E+03  0.00000000000E+00 0. -1.
          5    1    1    2  502    0 -0.11198910283E+03 -0.42301104820E+02  0.60824768377E+00  0.11980568679E+03  0.47000000000E+01 0.  1.
         -5    1    1    2    0  502  0.24500538583E+01  0.42148351148E+02 -0.21789847743E+02  0.47742787237E+02  0.47000000000E+01 0.  1.
        -11    1    1    2    0    0  0.10133579041E+03  0.35156872743E+02  0.19037559490E+03  0.21851273476E+03  0.00000000000E+00 0.  1.
         11    1    1    2    0    0  0.82032585699E+01 -0.35004119071E+02  0.36475892549E+02  0.51215940295E+02  0.00000000000E+00 0. -1.
<mgrwt>
<rscale>  0 0.16088236E+03</rscale>
<asrwt>0</asrwt>
<pdfrwt beam="2">  1        1 0.17815943E-01 0.16620418E+03</pdfrwt>
<pdfrwt beam="1">  1       -1 0.49457464E-01 0.16620418E+03</pdfrwt>
<totfact> 0.12318348E+03</totfact>
</mgrwt>
</event>
<event>
 6    1  0.1190675E-005  0.2355754E+03  0.7546771E-02  0.1125987E+00
         -2   -1    0    0    0  501 -0.00000000000E+00  0.00000000000E+00  0.10087031072E+03  0.10087031072E+03  0.00000000000E+00 0.  1.
          2   -1    0    0  501    0  0.00000000000E+00 -0.00000000000E+00 -0.54930685011E+03  0.54930685011E+03  0.00000000000E+00 0. -1.
          5    1    1    2  502    0  0.18309051335E+02  0.16904876890E+03 -0.16546235584E+03  0.23730273666E+03  0.47000000000E+01 0.  1.
         -5    1    1    2    0  502 -0.27493517550E+02  0.30421122767E+02 -0.15518608453E+03  0.16058066213E+03  0.47000000000E+01 0.  1.
        -11    1    1    2    0    0  0.20642134171E+02 -0.54140635207E+02 -0.80203476249E+02  0.98943942140E+02  0.00000000000E+00 0.  1.
         11    1    1    2    0    0 -0.11457667956E+02 -0.14532925646E+03 -0.47584622775E+02  0.15334981990E+03  0.00000000000E+00 0. -1.
<mgrwt>
<rscale>  0 0.23093021E+03</rscale>
<asrwt>0</asrwt>
<pdfrwt beam="2">  1        2 0.84508746E-01 0.23557542E+03</pdfrwt>
<pdfrwt beam="1">  1       -2 0.15518509E-01 0.23557542E+03</pdfrwt>
<totfact> 0.18023352E+03</totfact>
</mgrwt>
</event>
<event>
 6    1  0.1190675E-005  0.3173613E+03  0.7546771E-02  0.1076870E+00
          1   -1    0    0  501    0  0.00000000000E+00  0.00000000000E+00  0.15985879918E+03  0.15985879918E+03  0.00000000000E+00 0. -1.
         -1   -1    0    0    0  501 -0.00000000000E+00 -0.00000000000E+00 -0.15751114259E+03  0.15751114259E+03  0.00000000000E+00 0.  1.
          5    1    1    2  502    0 -0.13510955579E+03 -0.32587876303E+02  0.20267588826E+02  0.14053265423E+03  0.47000000000E+01 0.  1.
         -5    1    1    2    0  502  0.25201828954E+02 -0.72917284037E+00 -0.14270075097E+02  0.29349427915E+02  0.47000000000E+01 0.  1.
        -11    1    1    2    0    0  0.75053237678E+02 -0.13617155445E+02 -0.31752277650E+02  0.82623377711E+02  0.00000000000E+00 0.  1.
         11    1    1    2    0    0  0.34854489160E+02  0.46934204588E+02  0.28102420507E+02  0.64864481909E+02  0.00000000000E+00 0. -1.
<mgrwt>
<rscale>  0 0.31736126E+03</rscale>
<asrwt>0</asrwt>
<pdfrwt beam="1">  1        1 0.24593661E-01 0.31736126E+03</pdfrwt>
<pdfrwt beam="2">  1       -1 0.24232483E-01 0.31736126E+03</pdfrwt>
<totfact> 0.28680134E+03</totfact>
</mgrwt>
</event>
<event>
 6    1  0.1190675E-005  0.4341341E+03  0.7546771E-02  0.1032562E+00
         -2   -1    0    0    0  501 -0.00000000000E+00  0.00000000000E+00  0.38376770257E+03  0.38376770257E+03  0.00000000000E+00 0.  1.
          2   -1    0    0  501    0  0.00000000000E+00 -0.00000000000E+00 -0.12277766085E+03  0.12277766085E+03  0.00000000000E+00 0. -1.
          5    1    1    2  502    0 -0.24538084921E+02 -0.14253467685E+02  0.17883827767E+02  0.33870344673E+02  0.47000000000E+01 0.  1.
         -5    1    1    2    0  502 -0.18703421677E+02  0.17861522443E+03  0.25986240643E+02  0.18152297674E+03  0.47000000000E+01 0.  1.
        -11    1    1    2    0    0  0.71218554808E+02 -0.10675094872E+03  0.16188918165E+03  0.20658159341E+03  0.00000000000E+00 0.  1.
         11    1    1    2    0    0 -0.27977048210E+02 -0.57610808026E+02  0.55230791664E+02  0.84570448597E+02  0.00000000000E+00 0. -1.
<mgrwt>
<rscale>  0 0.43413408E+03</rscale>
<asrwt>0</asrwt>
<pdfrwt beam="2">  1        2 0.18888871E-01 0.43413408E+03</pdfrwt>
<pdfrwt beam="1">  1       -2 0.59041185E-01 0.43413408E+03</pdfrwt>
<totfact> 0.81720781E+02</totfact>
</mgrwt>
</event>
<event>
 6    1  0.1190675E-005  0.1452012E+03  0.7546771E-02  0.1215857E+00
         -1   -1    0    0    0  501 -0.00000000000E+00  0.00000000000E+00  0.23061417209E+02  0.23061417209E+02  0.00000000000E+00 0.  1.
          1   -1    0    0  501    0  0.00000000000E+00 -0.00000000000E+00 -0.76104358656E+03  0.76104358656E+03  0.00000000000E+00 0. -1.
          5    1    1    2  502    0  0.19001960811E+02  0.95724861250E+02 -0.36838549877E+03  0.38112240721E+03  0.47000000000E+01 0. -1.
         -5    1    1    2    0  502  0.20827114723E+02 -0.33496045577E+02 -0.67602596552E+02  0.78408895143E+02  0.47000000000E+01 0. -1.
        -11    1    1    2    0    0 -0.60929294113E+02 -0.33004114632E+02 -0.26073919023E+03  0.26978987340E+03  0.00000000000E+00 0. -1.
         11    1    1    2    0    0  0.21100218579E+02 -0.29224701041E+02 -0.41254883796E+02  0.54783828016E+02  0.00000000000E+00 0.  1.
<mgrwt>
<rscale>  0 0.13813805E+03</rscale>
<asrwt>0</asrwt>
<pdfrwt beam="2">  1        1 0.11708364E+00 0.14520123E+03</pdfrwt>
<pdfrwt beam="1">  1       -1 0.35479101E-02 0.14520123E+03</pdfrwt>
<totfact> 0.70862368E+03</totfact>
</mgrwt>
</event>
<event>
 6    1  0.1190675E-005  0.1662589E+03  0.7546771E-02  0.1197231E+00
         -4   -1    0    0    0  501 -0.00000000000E+00  0.00000000000E+00  0.59612216118E+03  0.59612216118E+03  0.00000000000E+00 0.  1.
          4   -1    0    0  501    0  0.00000000000E+00 -0.00000000000E+00 -0.17928390545E+03  0.17928390545E+03  0.00000000000E+00 0. -1.
          5    1    1    2  502    0 -0.24789221524E+02  0.80325280660E+02 -0.13330639945E+03  0.15766845706E+03  0.47000000000E+01 0. -1.
         -5    1    1    2    0  502 -0.38379309142E+02 -0.39504746547E+02  0.24806368437E+00  0.55278819683E+02  0.47000000000E+01 0.  1.
        -11    1    1    2    0    0  0.45273357728E+02 -0.70344985364E+02  0.39506338342E+03  0.40382319251E+03  0.00000000000E+00 0.  1.
         11    1    1    2    0    0  0.17895172937E+02  0.29524451252E+02  0.15483320807E+03  0.15863559738E+03  0.00000000000E+00 0. -1.
<mgrwt>
<rscale>  0 0.15266952E+03</rscale>
<asrwt>0</asrwt>
<pdfrwt beam="2">  1        4 0.27582140E-01 0.16625890E+03</pdfrwt>
<pdfrwt beam="1">  1       -4 0.91711101E-01 0.16625890E+03</pdfrwt>
<totfact> 0.22633413E+01</totfact>
</mgrwt>
</event>
<event>
 6    1  0.1190675E-005  0.1235988E+03  0.7546771E-02  0.1295028E+00
          2   -1    0    0  501    0  0.00000000000E+00  0.00000000000E+00  0.17062261901E+03  0.17062261901E+03  0.00000000000E+00 0. -1.
         -2   -1    0    0    0  501 -0.00000000000E+00 -0.00000000000E+00 -0.42337535281E+02  0.42337535281E+02  0.00000000000E+00 0.  1.
          5    1    1    2  502    0 -0.61488048591E+02  0.18627371264E+02  0.97846576844E+02  0.11714863072E+03  0.47000000000E+01 0. -1.
         -5    1    1    2    0  502  0.40488031887E+02 -0.29422804209E+02  0.21528822296E+02  0.54686034077E+02  0.47000000000E+01 0.  1.
        -11    1    1    2    0    0  0.88740174095E+01 -0.11393410712E+02  0.61243830312E+01  0.15686492921E+02  0.00000000000E+00 0.  1.
         11    1    1    2    0    0  0.12125999295E+02  0.22188843658E+02  0.27853015559E+01  0.25438996571E+02  0.00000000000E+00 0. -1.
<mgrwt>
<rscale>  0 0.93310125E+02</rscale>
<asrwt>0</asrwt>
<pdfrwt beam="1">  1        2 0.26249633E-01 0.12359881E+03</pdfrwt>
<pdfrwt beam="2">  1       -2 0.65134670E-02 0.12359881E+03</pdfrwt>
<totfact> 0.24345656E+04</totfact>
</mgrwt>
</event>
<event>
 6    1  0.1190675E-005  0.1294861E+03  0.7546771E-02  0.1242256E+00
          2   -1    0    0  501    0  0.00000000000E+00  0.00000000000E+00  0.78073385529E+02  0.78073385529E+02  0.00000000000E+00 0. -1.
         -2   -1    0    0    0  501 -0.00000000000E+00 -0.00000000000E+00 -0.16697450047E+03  0.16697450047E+03  0.00000000000E+00 0.  1.
          5    1    1    2  502    0 -0.39066245015E+02 -0.28471374140E+02 -0.37293850568E+02  0.61234891484E+02  0.47000000000E+01 0.  1.
         -5    1    1    2    0  502  0.38044222618E+02  0.62252955115E+02  0.14417458557E+01  0.73122923398E+02  0.47000000000E+01 0.  1.
        -11    1    1    2    0    0  0.32605572390E+02 -0.25139029674E+02 -0.64054766020E+02  0.76145303294E+02  0.00000000000E+00 0.  1.
         11    1    1    2    0    0 -0.31583549994E+02 -0.86425513011E+01  0.11005755792E+02  0.34544767820E+02  0.00000000000E+00 0. -1.
<mgrwt>
<rscale>  0 0.12051133E+03</rscale>
<asrwt>0</asrwt>
<pdfrwt beam="1">  1        2 0.12011290E-01 0.12948610E+03</pdfrwt>
<pdfrwt beam="2">  1       -2 0.25688385E-01 0.12948610E+03</pdfrwt>
<totfact> 0.65204158E+03</totfact>
</mgrwt>
</event>
<event>
 6    1  0.1190675E-005  0.2227910E+03  0.7546771E-02  0.1150790E+00
          2   -1    0    0  501    0  0.00000000000E+00  0.00000000000E+00  0.12499159239E+03  0.12499159239E+03  0.00000000000E+00 0. -1.
         -2   -1    0    0    0  501 -0.00000000000E+00 -0.00000000000E+00 -0.27461175415E+03  0.27461175415E+03  0.00000000000E+00 0.  1.
          5    1    1    2  502    0  0.19022423188E+02 -0.85352033667E+02  0.15637651204E+02  0.88957564997E+02  0.47000000000E+01 0. -1.
         -5    1    1    2    0  502 -0.11487021897E+03  0.39854079298E+02 -0.69974368827E+02  0.14036387404E+03  0.47000000000E+01 0.  1.
        -11    1    1    2    0    0  0.70185033594E+02 -0.17976818601E+02 -0.53633020043E+02  0.90142142123E+02  0.00000000000E+00 0. -1.
         11    1    1    2    0    0  0.25662762191E+02  0.63474772971E+02 -0.41650424093E+02  0.80139765373E+02  0.00000000000E+00 0.  1.
<mgrwt>
<rscale>  0 0.19875875E+03</rscale>
<asrwt>0</asrwt>
<pdfrwt beam="1">  1        2 0.19229476E-01 0.22279103E+03</pdfrwt>
<pdfrwt beam="2">  1       -2 0.42247962E-01 0.22279103E+03</pdfrwt>
<totfact> 0.15460623E+03</totfact>
</mgrwt>
</event>
<event>
 6    1  0.1190675E-005  0.1571289E+03  0.7546771E-02  0.1205439E+00
          2   -1    0    0  501    0  0.00000000000E+00  0.00000000000E+00  0.16937242358E+04  0.16937242358E+04  0.00000000000E+00 0. -1.
         -2   -1    0    0    0  501 -0.00000000000E+00 -0.00000000000E+00 -0.14352813670E+02  0.14352813670E+02  0.00000000000E+00 0.  1.
          5    1    1    2  502    0  0.40272209204E+02 -0.11715980914E+03  0.95791860877E+03  0.96590808193E+03  0.47000000000E+01 0.  1.
         -5    1    1    2    0  502 -0.16670937790E+02  0.24914200326E+02  0.37895951018E+03  0.38017237919E+03  0.47000000000E+01 0.  1.
        -11    1    1    2    0    0  0.17878143579E+02  0.28919448617E+02  0.17382620627E+03  0.17712005113E+03  0.00000000000E+00 0.  1.
         11    1    1    2    0    0 -0.41479414992E+02  0.63326160198E+02  0.16866709692E+03  0.18487653723E+03  0.00000000000E+00 0. -1.
<mgrwt>
<rscale>  0 0.14602928E+03</rscale>
<asrwt>0</asrwt>
<pdfrwt beam="1">  1        2 0.26057280E+00 0.15712894E+03</pdfrwt>
<pdfrwt beam="2">  1       -2 0.22081265E-02 0.15712894E+03</pdfrwt>
<totfact> 0.71006785E+03</totfact>
</mgrwt>
</event>
<event>
 6    1  0.1190675E-005  0.1989528E+03  0.7546771E-02  0.1153815E+00
         -1   -1    0    0    0  501 -0.00000000000E+00  0.00000000000E+00  0.15422121690E+03  0.15422121690E+03  0.00000000000E+00 0.  1.
          1   -1    0    0  501    0  0.00000000000E+00 -0.00000000000E+00 -0.68703437179E+03  0.68703437179E+03  0.00000000000E+00 0. -1.
          5    1    1    2  502    0  0.45818750894E+02  0.94699126313E+02 -0.50529624394E+03  0.51615275510E+03  0.47000000000E+01 0.  1.
         -5    1    1    2    0  502 -0.34491601534E+02  0.59666047245E+02 -0.10441174015E+03  0.12519428601E+03  0.47000000000E+01 0.  1.
        -11    1    1    2    0    0  0.34268582110E+02 -0.85304220459E+02  0.80878710254E+01  0.92285206862E+02  0.00000000000E+00 0. -1.
         11    1    1    2    0    0 -0.45595731470E+02 -0.69060953099E+02  0.68806958177E+02  0.10762334071E+03  0.00000000000E+00 0.  1.
<mgrwt>
<rscale>  0 0.19524418E+03</rscale>
<asrwt>0</asrwt>
<pdfrwt beam="2">  1        1 0.10569760E+00 0.19895276E+03</pdfrwt>
<pdfrwt beam="1">  1       -1 0.23726341E-01 0.19895276E+03</pdfrwt>
<totfact> 0.44570825E+02</totfact>
</mgrwt>
</event>
<event>
 6    1  0.1190675E-005  0.1272292E+03  0.7546771E-02  0.1246750E+00
          1   -1    0    0  501    0  0.00000000000E+00  0.00000000000E+00  0.18040749145E+03  0.18040749145E+03  0.00000000000E+00 0. -1.
         -1   -1    0    0    0  501 -0.00000000000E+00 -0.00000000000E+00 -0.72229943545E+02  0.72229943545E+02  0.00000000000E+00 0.  1.
          5    1    1    2  502    0  0.42347916936E+02  0.29469095557E+02  0.40985457037E+02  0.66058090726E+02  0.47000000000E+01 0. -1.
         -5    1    1    2    0  502 -0.60821449855E+02 -0.44211309789E+02  0.52651783171E+02  0.91914030195E+02  0.47000000000E+01 0. -1.
        -11    1    1    2    0    0  0.37924173448E+02  0.28124639683E+02 -0.21260222727E+02  0.51780646573E+02  0.00000000000E+00 0.  1.
         11    1    1    2    0    0 -0.19450640530E+02 -0.13382425452E+02  0.35800530422E+02  0.42884667499E+02  0.00000000000E+00 0. -1.
<mgrwt>
<rscale>  0 0.11781257E+03</rscale>
<asrwt>0</asrwt>
<pdfrwt beam="1">  1        1 0.27754999E-01 0.12722916E+03</pdfrwt>
<pdfrwt beam="2">  1       -1 0.11112299E-01 0.12722916E+03</pdfrwt>
<totfact> 0.81408995E+03</totfact>
</mgrwt>
</event>
<event>
 6    1  0.1190675E-005  0.2669662E+03  0.7546771E-02  0.1105130E+00
          4   -1    0    0  501    0  0.00000000000E+00  0.00000000000E+00  0.66214074696E+02  0.66214074696E+02  0.00000000000E+00 0. -1.
         -4   -1    0    0    0  501 -0.00000000000E+00 -0.00000000000E+00 -0.10302141743E+04  0.10302141743E+04  0.00000000000E+00 0.  1.
          5    1    1    2  502    0  0.65165689098E+02  0.30539462939E+02 -0.43105563846E+02  0.84020268190E+02  0.47000000000E+01 0. -1.
         -5    1    1    2    0  502  0.16592382157E+03  0.16826007996E+02 -0.39839194078E+03  0.43191672529E+03  0.47000000000E+01 0. -1.
        -11    1    1    2    0    0 -0.17082528991E+03 -0.63947041582E+02 -0.31742213549E+03  0.36609741313E+03  0.00000000000E+00 0.  1.
         11    1    1    2    0    0 -0.60264220756E+02  0.16581570646E+02 -0.20508045952E+03  0.21439384241E+03  0.00000000000E+00 0. -1.
<mgrwt>
<rscale>  0 0.26337933E+03</rscale>
<asrwt>0</asrwt>
<pdfrwt beam="1">  1        4 0.10186781E-01 0.26696617E+03</pdfrwt>
<pdfrwt beam="2">  1       -4 0.15849449E+00 0.26696617E+03</pdfrwt>
<totfact> 0.36978750E+01</totfact>
</mgrwt>
</event>
<event>
 6    1  0.1190675E-005  0.1553179E+03  0.7546771E-02  0.1202607E+00
         -2   -1    0    0    0  501 -0.00000000000E+00  0.00000000000E+00  0.47084593449E+02  0.47084593449E+02  0.00000000000E+00 0.  1.
          2   -1    0    0  501    0  0.00000000000E+00 -0.00000000000E+00 -0.47654012103E+03  0.47654012103E+03  0.00000000000E+00 0. -1.
          5    1    1    2  502    0 -0.67376639992E+02 -0.40409881733E+02 -0.68834544242E+02  0.10456029189E+03  0.47000000000E+01 0. -1.
         -5    1    1    2    0  502 -0.15042369696E+02 -0.88293439990E+00 -0.24595781653E+03  0.24646377010E+03  0.47000000000E+01 0. -1.
        -11    1    1    2    0    0  0.62130484790E+02  0.45559149376E+02 -0.25645393079E+02  0.81200489027E+02  0.00000000000E+00 0.  1.
         11    1    1    2    0    0  0.20288524899E+02 -0.42663332431E+01 -0.89017773733E+02  0.91400163469E+02  0.00000000000E+00 0. -1.
<mgrwt>
<rscale>  0 0.14827614E+03</rscale>
<asrwt>0</asrwt>
<pdfrwt beam="2">  1        2 0.73313867E-01 0.15531794E+03</pdfrwt>
<pdfrwt beam="1">  1       -2 0.72437834E-02 0.15531794E+03</pdfrwt>
<totfact> 0.70091349E+03</totfact>
</mgrwt>
</event>
<event>
 6    1  0.1190675E-005  0.1326568E+03  0.7546771E-02  0.1236496E+00
          4   -1    0    0  501    0  0.00000000000E+00  0.00000000000E+00  0.94342002104E+02  0.94342002104E+02  0.00000000000E+00 0. -1.
         -4   -1    0    0    0  501 -0.00000000000E+00 -0.00000000000E+00 -0.15566406483E+03  0.15566406483E+03  0.00000000000E+00 0.  1.
          5    1    1    2  502    0  0.72517051500E+02 -0.46964504068E+01  0.18998108875E+02  0.75258205835E+02  0.47000000000E+01 0.  1.
         -5    1    1    2    0  502 -0.44079034200E+02 -0.29424381647E+02 -0.21603035044E+02  0.57424181443E+02  0.47000000000E+01 0.  1.
        -11    1    1    2    0    0 -0.28469210969E+00 -0.30804966129E+02 -0.17864434749E+02  0.35611304619E+02  0.00000000000E+00 0.  1.
         11    1    1    2    0    0 -0.28153325191E+02  0.64925798182E+02 -0.40852701808E+02  0.81712375035E+02  0.00000000000E+00 0. -1.
<mgrwt>
<rscale>  0 0.12409152E+03</rscale>
<asrwt>0</asrwt>
<pdfrwt beam="1">  1        4 0.14514154E-01 0.13265681E+03</pdfrwt>
<pdfrwt beam="2">  1       -4 0.23948318E-01 0.13265681E+03</pdfrwt>
<totfact> 0.10640622E+03</totfact>
</mgrwt>
</event>
<event>
 6    1  0.1190675E-005  0.2200043E+03  0.7546771E-02  0.1133880E+00
         -1   -1    0    0    0  501 -0.00000000000E+00  0.00000000000E+00  0.27138972487E+02  0.27138972487E+02  0.00000000000E+00 0.  1.
          1   -1    0    0  501    0  0.00000000000E+00 -0.00000000000E+00 -0.44587087011E+03  0.44587087011E+03  0.00000000000E+00 0. -1.
          5    1    1    2  502    0  0.19140811060E+02 -0.75511766455E+02 -0.13542154289E+03  0.15629933397E+03  0.47000000000E+01 0. -1.
         -5    1    1    2    0  502 -0.66531589902E+01  0.35694738466E+02 -0.11878448438E+03  0.12429892441E+03  0.47000000000E+01 0.  1.
        -11    1    1    2    0    0  0.10998895813E+02  0.22213180927E+02  0.50362390141E+00  0.24792231708E+02  0.00000000000E+00 0.  1.
         11    1    1    2    0    0 -0.23486547883E+02  0.17603847062E+02 -0.16502949426E+03  0.16761935252E+03  0.00000000000E+00 0. -1.
<mgrwt>
<rscale>  0 0.22000434E+03</rscale>
<asrwt>0</asrwt>
<pdfrwt beam="2">  1        1 0.68595515E-01 0.22000434E+03</pdfrwt>
<pdfrwt beam="1">  1       -1 0.41752268E-02 0.22000434E+03</pdfrwt>
<totfact> 0.11893203E+04</totfact>
</mgrwt>
</event>
<event>
 6    1  0.1190675E-005  0.1399023E+03  0.7546771E-02  0.1222781E+00
          3   -1    0    0  501    0  0.00000000000E+00  0.00000000000E+00  0.37613300585E+02  0.37613300585E+02  0.00000000000E+00 0. -1.
         -3   -1    0    0    0  501 -0.00000000000E+00 -0.00000000000E+00 -0.45083439660E+03  0.45083439660E+03  0.00000000000E+00 0.  1.
          5    1    1    2  502    0 -0.17284059617E+02  0.75187017426E+02 -0.39043036822E+02  0.86592580690E+02  0.47000000000E+01 0. -1.
         -5    1    1    2    0  502  0.13364893607E+02 -0.12459561496E+02 -0.13689611040E+03  0.13819007235E+03  0.47000000000E+01 0. -1.
        -11    1    1    2    0    0 -0.14938614917E+02 -0.84695735521E+02 -0.17615879610E+03  0.19603176088E+03  0.00000000000E+00 0.  1.
         11    1    1    2    0    0  0.18857780926E+02  0.21968279592E+02 -0.61123152693E+02  0.67633283262E+02  0.00000000000E+00 0. -1.
<mgrwt>
<rscale>  0 0.13320127E+03</rscale>
<asrwt>0</asrwt>
<pdfrwt beam="1">  1        3 0.57866619E-02 0.13990231E+03</pdfrwt>
<pdfrwt beam="2">  1       -3 0.69359135E-01 0.13990231E+03</pdfrwt>
<totfact> 0.84967013E+02</totfact>
</mgrwt>
</event>
<event>
 6    1  0.1190675E-005  0.1771510E+03  0.7546771E-02  0.1171745E+00
         -2   -1    0    0    0  501 -0.00000000000E+00  0.00000000000E+00  0.19401495161E+02  0.19401495161E+02  0.00000000000E+00 0.  1.
          2   -1    0    0  501    0  0.00000000000E+00 -0.00000000000E+00 -0.20551331662E+04  0.20551331662E+04  0.00000000000E+00 0. -1.
          5    1    1    2  502    0 -0.85058630740E+02 -0.15111096982E+02 -0.62877126844E+03  0.63469576486E+03  0.47000000000E+01 0. -1.
         -5    1    1    2    0  502  0.12251718049E+02 -0.87146609897E+02 -0.90036146407E+03  0.90466429806E+03  0.47000000000E+01 0. -1.
        -11    1    1    2    0    0  0.92971620339E+02  0.10071617985E+03 -0.49060035348E+03  0.50938804257E+03  0.00000000000E+00 0. -1.
         11    1    1    2    0    0 -0.20164707647E+02  0.15415270324E+01 -0.15998585039E+02  0.25786555864E+02  0.00000000000E+00 0.  1.
<mgrwt>
<rscale>  0 0.17598635E+03</rscale>
<asrwt>0</asrwt>
<pdfrwt beam="2">  1        2 0.31617422E+00 0.17715104E+03</pdfrwt>
<pdfrwt beam="1">  1       -2 0.29848465E-02 0.17715104E+03</pdfrwt>
<totfact> 0.29719370E+03</totfact>
</mgrwt>
</event>
<event>
 6    1  0.1190675E-005  0.1670732E+03  0.7546771E-02  0.1187873E+00
         -2   -1    0    0    0  501 -0.00000000000E+00  0.00000000000E+00  0.74909247662E+02  0.74909247662E+02  0.00000000000E+00 0.  1.
          2   -1    0    0  501    0  0.00000000000E+00 -0.00000000000E+00 -0.32248551634E+03  0.32248551634E+03  0.00000000000E+00 0. -1.
          5    1    1    2  502    0  0.51386615893E+02 -0.48592292524E+01 -0.44083804529E+02  0.68041665350E+02  0.47000000000E+01 0. -1.
         -5    1    1    2    0  502 -0.45344746418E+02 -0.10582946536E+03 -0.10213612642E+03  0.15398019381E+03  0.47000000000E+01 0. -1.
        -11    1    1    2    0    0 -0.17874717859E+02 -0.72347874735E+01 -0.33910237945E+02  0.39009638884E+02  0.00000000000E+00 0. -1.
         11    1    1    2    0    0  0.11832848384E+02  0.11792348208E+03 -0.67446099784E+02  0.13636326596E+03  0.00000000000E+00 0.  1.
<mgrwt>
<rscale>  0 0.16073224E+03</rscale>
<asrwt>0</asrwt>
<pdfrwt beam="2">  1        2 0.49613156E-01 0.16707315E+03</pdfrwt>
<pdfrwt beam="1">  1       -2 0.11524500E-01 0.16707315E+03</pdfrwt>
<totfact> 0.51758463E+03</totfact>
</mgrwt>
</event>
<event>
 6    1  0.1190675E-005  0.1258982E+03  0.7546771E-02  0.1248676E+00
         -1   -1    0    0    0  501 -0.00000000000E+00  0.00000000000E+00  0.38377080931E+02  0.38377080931E+02  0.00000000000E+00 0.  1.
          1   -1    0    0  501    0  0.00000000000E+00 -0.00000000000E+00 -0.31336798540E+03  0.31336798540E+03  0.00000000000E+00 0. -1.
          5    1    1    2  502    0  0.39099960046E+02 -0.31849418511E+02 -0.15074006798E+03  0.15902154078E+03  0.47000000000E+01 0. -1.
         -5    1    1    2    0  502 -0.45144139297E+02  0.18616011919E+02 -0.19677134613E+02  0.52856682068E+02  0.47000000000E+01 0. -1.
        -11    1    1    2    0    0 -0.46120923790E+00  0.36158926162E+02 -0.38543895437E+01  0.36366701444E+02  0.00000000000E+00 0.  1.
         11    1    1    2    0    0  0.65053884885E+01 -0.22925519569E+02 -0.10071931233E+03  0.10350014204E+03  0.00000000000E+00 0. -1.
<mgrwt>
<rscale>  0 0.11668032E+03</rscale>
<asrwt>0</asrwt>
<pdfrwt beam="2">  1        1 0.48210458E-01 0.12589821E+03</pdfrwt>
<pdfrwt beam="1">  1       -1 0.59041664E-02 0.12589821E+03</pdfrwt>
<totfact> 0.10662705E+04</totfact>
</mgrwt>
</event>
<event>
 6    1  0.1190675E-005  0.3064103E+03  0.7546771E-02  0.1082079E+00
         -1   -1    0    0    0  501 -0.00000000000E+00  0.00000000000E+00  0.49204749889E+02  0.49204749889E+02  0.00000000000E+00 0.  1.
          1   -1    0    0  501    0  0.00000000000E+00 -0.00000000000E+00 -0.47702333475E+03  0.47702333475E+03  0.00000000000E+00 0. -1.
          5    1    1    2  502    0  0.33924913368E+02 -0.86670263543E+02 -0.34483481577E+03  0.35720550737E+03  0.47000000000E+01 0.  1.
         -5    1    1    2    0  502  0.17220108381E+01  0.43675568709E+01  0.95828620947E+01  0.11660279597E+02  0.47000000000E+01 0.  1.
        -11    1    1    2    0    0 -0.51550248612E+01  0.48390193292E+02 -0.99946333450E+02  0.11116408889E+03  0.00000000000E+00 0. -1.
         11    1    1    2    0    0 -0.30491899344E+02  0.33912513380E+02  0.73797022622E+01  0.46198208784E+02  0.00000000000E+00 0.  1.
<mgrwt>
<rscale>  0 0.30641027E+03</rscale>
<asrwt>0</asrwt>
<pdfrwt beam="2">  1        1 0.73388206E-01 0.30641027E+03</pdfrwt>
<pdfrwt beam="1">  1       -1 0.75699614E-02 0.30641027E+03</pdfrwt>
<totfact> 0.45043228E+03</totfact>
</mgrwt>
</event>
<event>
 6    1  0.1190675E-005  0.1273504E+03  0.7546771E-02  0.1247011E+00
         -3   -1    0    0    0  501 -0.00000000000E+00  0.00000000000E+00  0.18563092029E+03  0.18563092029E+03  0.00000000000E+00 0.  1.
          3   -1    0    0  501    0  0.00000000000E+00 -0.00000000000E+00 -0.65331898933E+02  0.65331898933E+02  0.00000000000E+00 0. -1.
          5    1    1    2  502    0  0.43705129445E+02  0.52361213982E+02  0.20035128829E+02  0.71241360576E+02  0.47000000000E+01 0.  1.
         -5    1    1    2    0  502 -0.47820552508E+02 -0.28288568451E+02  0.45581204821E+02  0.72019334766E+02  0.47000000000E+01 0.  1.
        -11    1    1    2    0    0  0.44790384001E+02 -0.14993748153E+02  0.13531608330E+02  0.49133444889E+02  0.00000000000E+00 0.  1.
         11    1    1    2    0    0 -0.40674960939E+02 -0.90788973780E+01  0.41151079373E+02  0.58568678989E+02  0.00000000000E+00 0. -1.
<mgrwt>
<rscale>  0 0.11765836E+03</rscale>
<asrwt>0</asrwt>
<pdfrwt beam="2">  1        3 0.10051061E-01 0.12735040E+03</pdfrwt>
<pdfrwt beam="1">  1       -3 0.28558603E-01 0.12735040E+03</pdfrwt>
<totfact> 0.19514096E+03</totfact>
</mgrwt>
</event>
<event>
 6    1  0.1190675E-005  0.1308277E+03  0.7546771E-02  0.1240145E+00
         -1   -1    0    0    0  501 -0.00000000000E+00  0.00000000000E+00  0.22244165093E+03  0.22244165093E+03  0.00000000000E+00 0.  1.
          1   -1    0    0  501    0  0.00000000000E+00 -0.00000000000E+00 -0.59048247136E+02  0.59048247136E+02  0.00000000000E+00 0. -1.
          5    1    1    2  502    0  0.48310144373E+02  0.14820925106E+02  0.12097697156E+03  0.13119088199E+03  0.47000000000E+01 0.  1.
         -5    1    1    2    0  502 -0.11745371331E+02 -0.16114560071E+02 -0.24077356464E+02  0.31613950849E+02  0.47000000000E+01 0.  1.
        -11    1    1    2    0    0  0.20990475477E+02 -0.12253780359E+02  0.52603540956E+02  0.57947283931E+02  0.00000000000E+00 0.  1.
         11    1    1    2    0    0 -0.57555248519E+02  0.13547415324E+02  0.13890247743E+02  0.60737781294E+02  0.00000000000E+00 0. -1.
<mgrwt>
<rscale>  0 0.12180731E+03</rscale>
<asrwt>0</asrwt>
<pdfrwt beam="2">  1        1 0.90843458E-02 0.13082767E+03</pdfrwt>
<pdfrwt beam="1">  1       -1 0.34221792E-01 0.13082767E+03</pdfrwt>
<totfact> 0.56423567E+03</totfact>
</mgrwt>
</event>
<event>
 6    1  0.1190675E-005  0.3773755E+03  0.7546771E-02  0.1094794E+00
         -2   -1    0    0    0  501 -0.00000000000E+00  0.00000000000E+00  0.39938089790E+02  0.39938089790E+02  0.00000000000E+00 0.  1.
          2   -1    0    0  501    0  0.00000000000E+00 -0.00000000000E+00 -0.29244679428E+04  0.29244679428E+04  0.00000000000E+00 0. -1.
          5    1    1    2  502    0  0.11572965568E+03 -0.18780655736E+03 -0.15575200775E+04  0.15730720066E+04  0.47000000000E+01 0. -1.
         -5    1    1    2    0  502 -0.46656684566E+02  0.14899587495E+03 -0.12283107244E+04  0.12382027066E+04  0.47000000000E+01 0.  1.
        -11    1    1    2    0    0 -0.83457946736E+02  0.14092035190E+02 -0.89273369093E+02  0.12301848950E+03  0.00000000000E+00 0.  1.
         11    1    1    2    0    0  0.14384975626E+02  0.24718647214E+02 -0.94256820809E+01  0.30112829933E+02  0.00000000000E+00 0. -1.
<mgrwt>
<rscale>  0 0.28164421E+03</rscale>
<asrwt>0</asrwt>
<pdfrwt beam="2">  1        2 0.44991826E+00 0.37737548E+03</pdfrwt>
<pdfrwt beam="1">  1       -2 0.61443200E-02 0.37737548E+03</pdfrwt>
<totfact> 0.32157957E+02</totfact>
</mgrwt>
</event>
<event>
 6    1  0.1190675E-005  0.1760749E+03  0.7546771E-02  0.1177303E+00
          3   -1    0    0  501    0  0.00000000000E+00  0.00000000000E+00  0.21362614643E+03  0.21362614643E+03  0.00000000000E+00 0. -1.
         -3   -1    0    0    0  501 -0.00000000000E+00 -0.00000000000E+00 -0.14006932894E+03  0.14006932894E+03  0.00000000000E+00 0.  1.
          5    1    1    2  502    0 -0.58090889175E+02 -0.42133066641E+02  0.35724693196E+02  0.80300002576E+02  0.47000000000E+01 0. -1.
         -5    1    1    2    0  502 -0.57671023057E+02  0.86593774035E+02  0.54600461921E+02  0.11759136467E+03  0.47000000000E+01 0. -1.
        -11    1    1    2    0    0 -0.15203823988E+02 -0.72478013276E+01 -0.97763127266E+01  0.19474680446E+02  0.00000000000E+00 0.  1.
         11    1    1    2    0    0  0.13096573622E+03 -0.37212906066E+02 -0.69920248996E+01  0.13632942769E+03  0.00000000000E+00 0. -1.
<mgrwt>
<rscale>  0 0.17052391E+03</rscale>
<asrwt>0</asrwt>
<pdfrwt beam="1">  1        3 0.32865561E-01 0.17607487E+03</pdfrwt>
<pdfrwt beam="2">  1       -3 0.21549128E-01 0.17607487E+03</pdfrwt>
<totfact> 0.42730169E+02</totfact>
</mgrwt>
</event>
<event>
 6    1  0.1190675E-005  0.1293658E+03  0.7546771E-02  0.1242468E+00
         -1   -1    0    0    0  501 -0.00000000000E+00  0.00000000000E+00  0.28192219383E+03  0.28192219383E+03  0.00000000000E+00 0.  1.
          1   -1    0    0  501    0  0.00000000000E+00 -0.00000000000E+00 -0.79132995158E+02  0.79132995158E+02  0.00000000000E+00 0. -1.
          5    1    1    2  502    0 -0.36200806507E+02 -0.66104592958E+01 -0.40002941524E+02  0.54557509973E+02  0.47000000000E+01 0.  1.
         -5    1    1    2    0  502  0.60792628990E+02  0.29085745344E+02  0.32619123985E+02  0.75018808117E+02  0.47000000000E+01 0.  1.
        -11    1    1    2    0    0 -0.55484149667E+02 -0.31426447989E+02  0.15518812006E+03  0.16777802331E+03  0.00000000000E+00 0.  1.
         11    1    1    2    0    0  0.30892327184E+02  0.89511619409E+01  0.54984896145E+02  0.63700847585E+02  0.00000000000E+00 0. -1.
<mgrwt>
<rscale>  0 0.12038210E+03</rscale>
<asrwt>0</asrwt>
<pdfrwt beam="2">  1        1 0.12174307E-01 0.12936577E+03</pdfrwt>
<pdfrwt beam="1">  1       -1 0.43372645E-01 0.12936577E+03</pdfrwt>
<totfact> 0.25359703E+03</totfact>
</mgrwt>
</event>
<event>
 6    1  0.1190675E-005  0.2372213E+03  0.7546771E-02  0.1121658E+00
         -2   -1    0    0    0  501 -0.00000000000E+00  0.00000000000E+00  0.10437326025E+02  0.10437326025E+02  0.00000000000E+00 0.  1.
          2   -1    0    0  501    0  0.00000000000E+00 -0.00000000000E+00 -0.13479015582E+04  0.13479015582E+04  0.00000000000E+00 0. -1.
          5    1    1    2  502    0 -0.54472864301E+01  0.10989392766E+02 -0.76815804575E+03  0.76827033844E+03  0.47000000000E+01 0. -1.
         -5    1    1    2    0  502  0.45529338148E+02 -0.20480335218E+02 -0.12750504958E+03  0.13701092084E+03  0.47000000000E+01 0. -1.
        -11    1    1    2    0    0 -0.62071525652E+02 -0.15397677910E+02 -0.34042530842E+03  0.34638035942E+03  0.00000000000E+00 0. -1.
         11    1    1    2    0    0  0.21989473935E+02  0.24888620362E+02 -0.10137582839E+03  0.10667726548E+03  0.00000000000E+00 0.  1.
<mgrwt>
<rscale>  0 0.23722131E+03</rscale>
<asrwt>0</asrwt>
<pdfrwt beam="2">  1        2 0.20736946E+00 0.23722131E+03</pdfrwt>
<pdfrwt beam="1">  1       -2 0.16057425E-02 0.23722131E+03</pdfrwt>
<totfact> 0.17503142E+04</totfact>
</mgrwt>
</event>
<event>
 6    1  0.1190675E-005  0.2742749E+03  0.7546771E-02  0.1098858E+00
          2   -1    0    0  501    0  0.00000000000E+00  0.00000000000E+00  0.17636341416E+03  0.17636341416E+03  0.00000000000E+00 0. -1.
         -2   -1    0    0    0  501 -0.00000000000E+00 -0.00000000000E+00 -0.10663591345E+03  0.10663591345E+03  0.00000000000E+00 0.  1.
          5    1    1    2  502    0 -0.10110748626E+03  0.33492310562E+02  0.44015504726E+02  0.11534259101E+03  0.47000000000E+01 0.  1.
         -5    1    1    2    0  502  0.37961365803E+02  0.10776773354E+02  0.24915011071E+02  0.46904711002E+02  0.47000000000E+01 0.  1.
        -11    1    1    2    0    0  0.44852448758E+02  0.99867109417E+01  0.31568839290E+02  0.55750050844E+02  0.00000000000E+00 0. -1.
         11    1    1    2    0    0  0.18293671699E+02 -0.54255794857E+02 -0.30771854375E+02  0.65001974751E+02  0.00000000000E+00 0.  1.
<mgrwt>
<rscale>  0 0.27427485E+03</rscale>
<asrwt>0</asrwt>
<pdfrwt beam="1">  1        2 0.27132833E-01 0.27427485E+03</pdfrwt>
<pdfrwt beam="2">  1       -2 0.16405525E-01 0.27427485E+03</pdfrwt>
<totfact> 0.57362399E+03</totfact>
</mgrwt>
</event>
<event>
 6    1  0.1190675E-005  0.1649286E+03  0.7546771E-02  0.1189624E+00
          1   -1    0    0  501    0  0.00000000000E+00  0.00000000000E+00  0.10194237735E+03  0.10194237735E+03  0.00000000000E+00 0. -1.
         -1   -1    0    0    0  501 -0.00000000000E+00 -0.00000000000E+00 -0.23713074508E+03  0.23713074508E+03  0.00000000000E+00 0.  1.
          5    1    1    2  502    0 -0.23128836637E+02  0.18274827284E+02 -0.21724330879E+02  0.36918138477E+02  0.47000000000E+01 0.  1.
         -5    1    1    2    0  502  0.13069640119E+03 -0.20452276893E+02 -0.27468402014E+02  0.13519041394E+03  0.47000000000E+01 0.  1.
        -11    1    1    2    0    0 -0.11991094085E+03 -0.15044107862E+02 -0.80048096110E+02  0.14495743033E+03  0.00000000000E+00 0.  1.
         11    1    1    2    0    0  0.12343376297E+02  0.17221557472E+02 -0.59475387251E+01  0.22007139683E+02  0.00000000000E+00 0. -1.
<mgrwt>
<rscale>  0 0.15918173E+03</rscale>
<asrwt>0</asrwt>
<pdfrwt beam="1">  1        1 0.15683443E-01 0.16492856E+03</pdfrwt>
<pdfrwt beam="2">  1       -1 0.36481653E-01 0.16492856E+03</pdfrwt>
<totfact> 0.24967077E+03</totfact>
</mgrwt>
</event>
<event>
 6    1  0.1190675E-005  0.1385758E+03  0.7546771E-02  0.1226960E+00
         -1   -1    0    0    0  501 -0.00000000000E+00  0.00000000000E+00  0.16599302621E+03  0.16599302621E+03  0.00000000000E+00 0.  1.
          1   -1    0    0  501    0  0.00000000000E+00 -0.00000000000E+00 -0.92673144799E+02  0.92673144799E+02  0.00000000000E+00 0. -1.
          5    1    1    2  502    0  0.15932052224E+02  0.85166698553E+02  0.73470037098E+02  0.11369755134E+03  0.47000000000E+01 0.  1.
         -5    1    1    2    0  502 -0.96240735551E+01 -0.25678224372E+02 -0.20602950489E+02  0.34620305711E+02  0.47000000000E+01 0.  1.
        -11    1    1    2    0    0  0.14642236740E+02  0.17598177190E+02  0.20099963002E+02  0.30464724680E+02  0.00000000000E+00 0.  1.
         11    1    1    2    0    0 -0.20950215409E+02 -0.77086651371E+02  0.35283180193E+00  0.79883589275E+02  0.00000000000E+00 0. -1.
<mgrwt>
<rscale>  0 0.13033447E+03</rscale>
<asrwt>0</asrwt>
<pdfrwt beam="2">  1        1 0.14257407E-01 0.13857582E+03</pdfrwt>
<pdfrwt beam="1">  1       -1 0.25537389E-01 0.13857582E+03</pdfrwt>
<totfact> 0.51140445E+03</totfact>
</mgrwt>
</event>
<event>
 6    1  0.1190675E-005  0.1295720E+03  0.7546771E-02  0.1315158E+00
         -2   -1    0    0    0  501 -0.00000000000E+00  0.00000000000E+00  0.19557521282E+02  0.19557521282E+02  0.00000000000E+00 0.  1.
          2   -1    0    0  501    0  0.00000000000E+00 -0.00000000000E+00 -0.30477101156E+03  0.30477101156E+03  0.00000000000E+00 0. -1.
          5    1    1    2  502    0 -0.58744641214E+02 -0.23049689528E+02 -0.10852747807E+03  0.12562851808E+03  0.47000000000E+01 0. -1.
         -5    1    1    2    0  502  0.52185867468E+02  0.40558808741E+02 -0.11957592524E+03  0.13670725521E+03  0.47000000000E+01 0.  1.
        -11    1    1    2    0    0  0.97642111834E+01 -0.64080676274E+01 -0.37000585150E+02  0.38800083146E+02  0.00000000000E+00 0. -1.
         11    1    1    2    0    0 -0.32054374372E+01 -0.11101051586E+02 -0.20109501817E+02  0.23192676405E+02  0.00000000000E+00 0.  1.
<mgrwt>
<rscale>  0 0.85105135E+02</rscale>
<asrwt>0</asrwt>
<pdfrwt beam="2">  1        2 0.46887847E-01 0.12957197E+03</pdfrwt>
<pdfrwt beam="1">  1       -2 0.30088495E-02 0.12957197E+03</pdfrwt>
<totfact> 0.41605105E+04</totfact>
</mgrwt>
</event>
<event>
 6    1  0.1190675E-005  0.3159991E+03  0.7546771E-02  0.1077505E+00
         -2   -1    0    0    0  501 -0.00000000000E+00  0.00000000000E+00  0.40404189441E+02  0.40404189441E+02  0.00000000000E+00 0.  1.
          2   -1    0    0  501    0  0.00000000000E+00 -0.00000000000E+00 -0.61785326535E+03  0.61785326535E+03  0.00000000000E+00 0. -1.
          5    1    1    2  502    0 -0.30910571204E+01 -0.43747873850E+02 -0.54285035978E+02  0.69945594798E+02  0.47000000000E+01 0.  1.
         -5    1    1    2    0  502  0.11630775424E+03  0.29304649595E+02 -0.28397184817E+03  0.30829913516E+03  0.47000000000E+01 0.  1.
        -11    1    1    2    0    0 -0.73615475894E+02 -0.35465070707E+02 -0.14084698296E+03  0.16283390968E+03  0.00000000000E+00 0.  1.
         11    1    1    2    0    0 -0.39601221226E+02  0.49908294962E+02 -0.98345208797E+02  0.11717881516E+03  0.00000000000E+00 0. -1.
<mgrwt>
<rscale>  0 0.31599912E+03</rscale>
<asrwt>0</asrwt>
<pdfrwt beam="2">  1        2 0.95054342E-01 0.31599912E+03</pdfrwt>
<pdfrwt beam="1">  1       -2 0.62160296E-02 0.31599912E+03</pdfrwt>
<totfact> 0.68390409E+03</totfact>
</mgrwt>
</event>
<event>
 6    1  0.1190675E-005  0.1417424E+03  0.7546771E-02  0.1220919E+00
          1   -1    0    0  501    0  0.00000000000E+00  0.00000000000E+00  0.20198293739E+03  0.20198293739E+03  0.00000000000E+00 0. -1.
         -1   -1    0    0    0  501 -0.00000000000E+00 -0.00000000000E+00 -0.82432835723E+02  0.82432835723E+02  0.00000000000E+00 0.  1.
          5    1    1    2  502    0  0.50060505268E+02  0.14418807214E+02  0.11409357004E+03  0.12551250501E+03  0.47000000000E+01 0. -1.
         -5    1    1    2    0  502  0.11657272342E+02  0.11416727588E+02 -0.33487559195E+02  0.37546508335E+02  0.47000000000E+01 0. -1.
        -11    1    1    2    0    0 -0.37297360135E+02 -0.30137266535E+02  0.67969471308E+02  0.83181710352E+02  0.00000000000E+00 0. -1.
         11    1    1    2    0    0 -0.24420417475E+02  0.43017317337E+01 -0.29025380486E+02  0.38175049416E+02  0.00000000000E+00 0.  1.
<mgrwt>
<rscale>  0 0.13450583E+03</rscale>
<asrwt>0</asrwt>
<pdfrwt beam="1">  1        1 0.31074298E-01 0.14174242E+03</pdfrwt>
<pdfrwt beam="2">  1       -1 0.12681975E-01 0.14174242E+03</pdfrwt>
<totfact> 0.58129771E+03</totfact>
</mgrwt>
</event>
<event>
 6    1  0.1190675E-005  0.4115093E+03  0.7546771E-02  0.1091010E+00
          2   -1    0    0  501    0  0.00000000000E+00  0.00000000000E+00  0.26996743646E+03  0.26996743646E+03  0.00000000000E+00 0. -1.
         -2   -1    0    0    0  501 -0.00000000000E+00 -0.00000000000E+00 -0.24472135035E+03  0.24472135035E+03  0.00000000000E+00 0.  1.
          5    1    1    2  502    0  0.10043397032E+03  0.32832239028E+02  0.17022344599E+03  0.20040721014E+03  0.47000000000E+01 0. -1.
         -5    1    1    2    0  502 -0.11854539995E+03 -0.33437443024E+02 -0.17138147311E+03  0.21110370383E+03  0.47000000000E+01 0.  1.
        -11    1    1    2    0    0 -0.39140476486E+02  0.78394626563E+01  0.49408707909E+00  0.39920899242E+02  0.00000000000E+00 0.  1.
         11    1    1    2    0    0  0.57251906122E+02 -0.72342586608E+01  0.25910026147E+02  0.63256973591E+02  0.00000000000E+00 0. -1.
<mgrwt>
<rscale>  0 0.28873831E+03</rscale>
<asrwt>0</asrwt>
<pdfrwt beam="1">  1        2 0.41533452E-01 0.41150928E+03</pdfrwt>
<pdfrwt beam="2">  1       -2 0.37649439E-01 0.41150928E+03</pdfrwt>
<totfact> 0.82448809E+02</totfact>
</mgrwt>
</event>
<event>
 6    1  0.1190675E-005  0.7345963E+03  0.7546771E-02  0.1006748E+00
         -2   -1    0    0    0  501 -0.00000000000E+00  0.00000000000E+00  0.28929940837E+03  0.28929940837E+03  0.00000000000E+00 0.  1.
          2   -1    0    0  501    0  0.00000000000E+00 -0.00000000000E+00 -0.80589879140E+03  0.80589879140E+03  0.00000000000E+00 0. -1.
          5    1    1    2  502    0  0.24392244383E+03 -0.86278161146E+02 -0.35087107552E+03  0.43597555130E+03  0.47000000000E+01 0. -1.
         -5    1    1    2    0  502 -0.40297929592E+03  0.15515346009E+03 -0.16790151005E+03  0.46333348271E+03  0.47000000000E+01 0.  1.
        -11    1    1    2    0    0  0.45949312506E+01 -0.27697740172E+02  0.20813420174E+02  0.34949630373E+02  0.00000000000E+00 0. -1.
         11    1    1    2    0    0  0.15446192085E+03 -0.41177558777E+02 -0.18640217640E+02  0.16093953539E+03  0.00000000000E+00 0.  1.
<mgrwt>
<rscale>  0 0.52787668E+03</rscale>
<asrwt>0</asrwt>
<pdfrwt beam="2">  1        2 0.12398443E+00 0.73459631E+03</pdfrwt>
<pdfrwt beam="1">  1       -2 0.44507601E-01 0.73459631E+03</pdfrwt>
<totfact> 0.16515409E+02</totfact>
</mgrwt>
</event>
<event>
 6    1  0.1190675E-005  0.1273227E+03  0.7546771E-02  0.1243404E+00
         -3   -1    0    0    0  501 -0.00000000000E+00  0.00000000000E+00  0.37242947741E+03  0.37242947741E+03  0.00000000000E+00 0.  1.
          3   -1    0    0  501    0  0.00000000000E+00 -0.00000000000E+00 -0.43421970928E+02  0.43421970928E+02  0.00000000000E+00 0. -1.
          5    1    1    2  502    0  0.47191599322E+02 -0.24355206441E+01 -0.13238340603E+02  0.49298300876E+02  0.47000000000E+01 0. -1.
         -5    1    1    2    0  502 -0.27435920455E+02 -0.12209557768E+02  0.10065690557E+03  0.10514611582E+03  0.47000000000E+01 0.  1.
        -11    1    1    2    0    0 -0.69436761630E+01 -0.39551552012E+02  0.66594925115E+02  0.77765184731E+02  0.00000000000E+00 0. -1.
         11    1    1    2    0    0 -0.12812002704E+02  0.54196630424E+02  0.17499401639E+03  0.18364184691E+03  0.00000000000E+00 0.  1.
<mgrwt>
<rscale>  0 0.11981403E+03</rscale>
<asrwt>0</asrwt>
<pdfrwt beam="2">  1        3 0.66803034E-02 0.12732271E+03</pdfrwt>
<pdfrwt beam="1">  1       -3 0.57296841E-01 0.12732271E+03</pdfrwt>
<totfact> 0.98924480E+02</totfact>
</mgrwt>
</event>
<event>
 6    1  0.1190675E-005  0.4334625E+03  0.7546771E-02  0.1032772E+00
         -2   -1    0    0    0  501 -0.00000000000E+00  0.00000000000E+00  0.36656682802E+02  0.36656682802E+02  0.00000000000E+00 0.  1.
          2   -1    0    0  501    0  0.00000000000E+00 -0.00000000000E+00 -0.12814154400E+04  0.12814154400E+04  0.00000000000E+00 0. -1.
          5    1    1    2  502    0 -0.38536256794E+02  0.21353702440E+01 -0.68791836299E+02  0.79019046027E+02  0.47000000000E+01 0. -1.
         -5    1    1    2    0  502 -0.25370291308E+02  0.16399197070E+03 -0.75154806600E+03  0.76966460465E+03  0.47000000000E+01 0. -1.
        -11    1    1    2    0    0  0.49665202541E+01 -0.55210023486E+02 -0.50682571352E+02  0.75110159470E+02  0.00000000000E+00 0.  1.
         11    1    1    2    0    0  0.58940027847E+02 -0.11091731746E+03 -0.37373628358E+03  0.39427831269E+03  0.00000000000E+00 0. -1.
<mgrwt>
<rscale>  0 0.43346252E+03</rscale>
<asrwt>0</asrwt>
<pdfrwt beam="2">  1        2 0.19714086E+00 0.43346252E+03</pdfrwt>
<pdfrwt beam="1">  1       -2 0.56394890E-02 0.43346252E+03</pdfrwt>
<totfact> 0.29292976E+03</totfact>
</mgrwt>
</event>
<event>
 6    1  0.1190675E-005  0.1715646E+03  0.7546771E-02  0.1182412E+00
          2   -1    0    0  501    0  0.00000000000E+00  0.00000000000E+00  0.12921673925E+04  0.12921673925E+04  0.00000000000E+00 0. -1.
         -2   -1    0    0    0  501 -0.00000000000E+00 -0.00000000000E+00 -0.20795394095E+02  0.20795394095E+02  0.00000000000E+00 0.  1.
          5    1    1    2  502    0 -0.79043950714E+02 -0.96345199969E+02  0.59593029906E+03  0.60883935076E+03  0.47000000000E+01 0.  1.
         -5    1    1    2    0  502 -0.24044464370E+02  0.39920557351E+02  0.21684559948E+03  0.22184654872E+03  0.47000000000E+01 0.  1.
        -11    1    1    2    0    0  0.12679275976E+02 -0.95978020727E+01  0.76578290079E+01  0.17650047848E+02  0.00000000000E+00 0.  1.
         11    1    1    2    0    0  0.90409139108E+02  0.66022444690E+02  0.45093827085E+03  0.46462683925E+03  0.00000000000E+00 0. -1.
<mgrwt>
<rscale>  0 0.16569584E+03</rscale>
<asrwt>0</asrwt>
<pdfrwt beam="1">  1        2 0.19879492E+00 0.17156457E+03</pdfrwt>
<pdfrwt beam="2">  1       -2 0.31992924E-02 0.17156457E+03</pdfrwt>
<totfact> 0.67193651E+03</totfact>
</mgrwt>
</event>
<event>
 6    1  0.1190675E-005  0.1715208E+03  0.7546771E-02  0.1182375E+00
          1   -1    0    0  501    0  0.00000000000E+00  0.00000000000E+00  0.10412841325E+03  0.10412841325E+03  0.00000000000E+00 0.  1.
         -1   -1    0    0    0  501 -0.00000000000E+00 -0.00000000000E+00 -0.25420471263E+03  0.25420471263E+03  0.00000000000E+00 0. -1.
          5    1    1    2  502    0  0.75284945369E+02  0.20690200383E+02 -0.52006709376E+02  0.93929203186E+02  0.47000000000E+01 0. -1.
         -5    1    1    2    0  502 -0.30664189436E+02  0.87952662209E+02 -0.57220041311E+02  0.10941748686E+03  0.47000000000E+01 0. -1.
        -11    1    1    2    0    0 -0.18398710661E+02 -0.54641012796E+02  0.27617399856E+02  0.63928660304E+02  0.00000000000E+00 0.  1.
         11    1    1    2    0    0 -0.26222045272E+02 -0.54001849796E+02 -0.68466948555E+02  0.91057775528E+02  0.00000000000E+00 0. -1.
<mgrwt>
<rscale>  0 0.16573051E+03</rscale>
<asrwt>0</asrwt>
<pdfrwt beam="1">  1        1 0.16019756E-01 0.17152082E+03</pdfrwt>
<pdfrwt beam="2">  1       -1 0.39108417E-01 0.17152082E+03</pdfrwt>
<totfact> 0.21546473E+03</totfact>
</mgrwt>
</event>
<event>
 6    1  0.1190675E-005  0.1906408E+03  0.7546771E-02  0.1166110E+00
          2   -1    0    0  501    0  0.00000000000E+00  0.00000000000E+00  0.10006103917E+04  0.10006103917E+04  0.00000000000E+00 0. -1.
         -2   -1    0    0    0  501 -0.00000000000E+00 -0.00000000000E+00 -0.30478882263E+02  0.30478882263E+02  0.00000000000E+00 0.  1.
          5    1    1    2  502    0 -0.15505521703E+03 -0.66750591345E+00  0.43429738046E+03  0.46117119443E+03  0.47000000000E+01 0. -1.
         -5    1    1    2    0  502  0.28471799709E+02 -0.17423010154E+02  0.13739542457E+03  0.14147012885E+03  0.47000000000E+01 0.  1.
        -11    1    1    2    0    0  0.10163663248E+03 -0.27404287039E+02  0.28043830602E+03  0.29954405935E+03  0.00000000000E+00 0. -1.
         11    1    1    2    0    0  0.24946784845E+02  0.45494803107E+02  0.11800039834E+03  0.12890389130E+03  0.00000000000E+00 0.  1.
<mgrwt>
<rscale>  0 0.18176048E+03</rscale>
<asrwt>0</asrwt>
<pdfrwt beam="1">  1        2 0.15394004E+00 0.19064076E+03</pdfrwt>
<pdfrwt beam="2">  1       -2 0.46890596E-02 0.19064076E+03</pdfrwt>
<totfact> 0.55902161E+03</totfact>
</mgrwt>
</event>
<event>
 6    1  0.1190675E-005  0.1648275E+03  0.7546771E-02  0.1190397E+00
         -2   -1    0    0    0  501 -0.00000000000E+00  0.00000000000E+00  0.13710478918E+03  0.13710478918E+03  0.00000000000E+00 0.  1.
          2   -1    0    0  501    0  0.00000000000E+00 -0.00000000000E+00 -0.21004993091E+03  0.21004993091E+03  0.00000000000E+00 0. -1.
          5    1    1    2  502    0 -0.87663155196E+01 -0.49178060770E+02 -0.64064892330E+02  0.81374015374E+02  0.47000000000E+01 0.  1.
         -5    1    1    2    0  502 -0.98711784473E+02  0.43673081708E+02 -0.49862968575E+02  0.11899479020E+03  0.47000000000E+01 0.  1.
        -11    1    1    2    0    0 -0.16597064653E+02  0.10689989055E+00  0.71157765441E+01  0.18058467779E+02  0.00000000000E+00 0.  1.
         11    1    1    2    0    0  0.12407516465E+03  0.53980791721E+01  0.33866942633E+02  0.12872744674E+03  0.00000000000E+00 0. -1.
<mgrwt>
<rscale>  0 0.15850299E+03</rscale>
<asrwt>0</asrwt>
<pdfrwt beam="2">  1        2 0.32315374E-01 0.16482749E+03</pdfrwt>
<pdfrwt beam="1">  1       -2 0.21093045E-01 0.16482749E+03</pdfrwt>
<totfact> 0.30190946E+03</totfact>
</mgrwt>
</event>
<event>
 6    1  0.1190675E-005  0.1357222E+03  0.7546771E-02  0.1231236E+00
          2   -1    0    0  501    0  0.00000000000E+00  0.00000000000E+00  0.86516276911E+02  0.86516276911E+02  0.00000000000E+00 0. -1.
         -2   -1    0    0    0  501 -0.00000000000E+00 -0.00000000000E+00 -0.16866833001E+03  0.16866833001E+03  0.00000000000E+00 0.  1.
          5    1    1    2  502    0  0.71122127573E+02  0.46315114884E+02 -0.86376889472E+00  0.85007546688E+02  0.47000000000E+01 0.  1.
         -5    1    1    2    0  502 -0.26309018038E+02 -0.18264119754E+02 -0.50755884487E+02  0.60199603908E+02  0.47000000000E+01 0.  1.
        -11    1    1    2    0    0  0.16703558566E+02 -0.28322869711E+00 -0.38545561554E+02  0.42010110721E+02  0.00000000000E+00 0.  1.
         11    1    1    2    0    0 -0.61516668100E+02 -0.27767766432E+02  0.80131618323E+01  0.67967345610E+02  0.00000000000E+00 0. -1.
<mgrwt>
<rscale>  0 0.12748526E+03</rscale>
<asrwt>0</asrwt>
<pdfrwt beam="1">  1        2 0.13310197E-01 0.13572225E+03</pdfrwt>
<pdfrwt beam="2">  1       -2 0.25948974E-01 0.13572225E+03</pdfrwt>
<totfact> 0.56863667E+03</totfact>
</mgrwt>
</event>
<event>
 6    1  0.1190675E-005  0.1403608E+03  0.7546771E-02  0.1219518E+00
         -2   -1    0    0    0  501 -0.00000000000E+00  0.00000000000E+00  0.44638993483E+02  0.44638993483E+02  0.00000000000E+00 0. -1.
          2   -1    0    0  501    0  0.00000000000E+00 -0.00000000000E+00 -0.38658345222E+03  0.38658345222E+03  0.00000000000E+00 0.  1.
          5    1    1    2  502    0  0.43803021025E+02 -0.62463642670E+01 -0.50098759313E+00  0.44497895524E+02  0.47000000000E+01 0. -1.
         -5    1    1    2    0  502  0.18148187506E+02 -0.91904983822E+01 -0.19531384775E+03  0.19642660485E+03  0.47000000000E+01 0. -1.
        -11    1    1    2    0    0 -0.63190620889E+02 -0.20044584757E+02 -0.13912238628E+03  0.15410995526E+03  0.00000000000E+00 0.  1.
         11    1    1    2    0    0  0.12394123581E+01  0.35481447406E+02 -0.70072371129E+01  0.36187990066E+02  0.00000000000E+00 0. -1.
<mgrwt>
<rscale>  0 0.13549859E+03</rscale>
<asrwt>0</asrwt>
<pdfrwt beam="2">  1        2 0.59474377E-01 0.14036084E+03</pdfrwt>
<pdfrwt beam="1">  1       -2 0.68675375E-02 0.14036084E+03</pdfrwt>
<totfact> 0.94736286E+03</totfact>
</mgrwt>
</event>
<event>
 6    1  0.1190675E-005  0.1321697E+03  0.7546771E-02  0.1237255E+00
          4   -1    0    0  501    0  0.00000000000E+00  0.00000000000E+00  0.96819152686E+03  0.96819152686E+03  0.00000000000E+00 0.  1.
         -4   -1    0    0    0  501 -0.00000000000E+00 -0.00000000000E+00 -0.19987723638E+02  0.19987723638E+02  0.00000000000E+00 0. -1.
          5    1    1    2  502    0 -0.10447810649E+02 -0.12590702705E+02  0.10118050976E+02  0.19802714398E+02  0.47000000000E+01 0. -1.
         -5    1    1    2    0  502 -0.23262449051E+02  0.39164670885E+02  0.77589068651E+03  0.77724092815E+03  0.47000000000E+01 0. -1.
        -11    1    1    2    0    0 -0.78210351231E+01 -0.12646991877E+02 -0.69475282164E+01  0.16412895608E+02  0.00000000000E+00 0. -1.
         11    1    1    2    0    0  0.41531294824E+02 -0.13926976304E+02  0.16914259395E+03  0.17472271234E+03  0.00000000000E+00 0.  1.
<mgrwt>
<rscale>  0 0.12361181E+03</rscale>
<asrwt>0</asrwt>
<pdfrwt beam="1">  1        4 0.14895251E+00 0.13216971E+03</pdfrwt>
<pdfrwt beam="2">  1       -4 0.30750352E-02 0.13216971E+03</pdfrwt>
<totfact> 0.27971352E+02</totfact>
</mgrwt>
</event>
<event>
 6    1  0.1190675E-005  0.2359797E+03  0.7546771E-02  0.1122500E+00
          4   -1    0    0  501    0  0.00000000000E+00  0.00000000000E+00  0.36107501730E+03  0.36107501730E+03  0.00000000000E+00 0. -1.
         -4   -1    0    0    0  501 -0.00000000000E+00 -0.00000000000E+00 -0.38555997554E+02  0.38555997554E+02  0.00000000000E+00 0.  1.
          5    1    1    2  502    0 -0.28369033925E+02  0.19506832477E+02  0.12512644740E+03  0.12986160494E+03  0.47000000000E+01 0. -1.
         -5    1    1    2    0  502  0.60648404109E+02 -0.52293352973E+02  0.70438004982E+02  0.10675404551E+03  0.47000000000E+01 0. -1.
        -11    1    1    2    0    0  0.49786439439E+01  0.45057306961E+02  0.20858969935E+02  0.49900345017E+02  0.00000000000E+00 0.  1.
         11    1    1    2    0    0 -0.37258014128E+02 -0.12270786465E+02  0.10609559743E+03  0.11311501939E+03  0.00000000000E+00 0. -1.
<mgrwt>
<rscale>  0 0.23597972E+03</rscale>
<asrwt>0</asrwt>
<pdfrwt beam="1">  1        4 0.55550000E-01 0.23597972E+03</pdfrwt>
<pdfrwt beam="2">  1       -4 0.59316922E-02 0.23597972E+03</pdfrwt>
<totfact> 0.10352795E+03</totfact>
</mgrwt>
</event>
<event>
 6    1  0.1190675E-005  0.1423240E+03  0.7546771E-02  0.1220914E+00
          2   -1    0    0  501    0  0.00000000000E+00  0.00000000000E+00  0.78047202965E+03  0.78047202965E+03  0.00000000000E+00 0.  1.
         -2   -1    0    0    0  501 -0.00000000000E+00 -0.00000000000E+00 -0.21490211860E+02  0.21490211860E+02  0.00000000000E+00 0. -1.
          5    1    1    2  502    0 -0.29569479948E+02  0.88652536083E+02  0.32064398579E+03  0.33401838560E+03  0.47000000000E+01 0. -1.
         -5    1    1    2    0  502  0.43243822417E+02 -0.21989111727E+02  0.16241318598E+03  0.16956910742E+03  0.47000000000E+01 0. -1.
        -11    1    1    2    0    0  0.13725973827E+02 -0.58855055288E+02  0.25737969354E+03  0.26437970144E+03  0.00000000000E+00 0.  1.
         11    1    1    2    0    0 -0.27400316296E+02 -0.78083690681E+01  0.18544952482E+02  0.33995047039E+02  0.00000000000E+00 0. -1.
<mgrwt>
<rscale>  0 0.13450960E+03</rscale>
<asrwt>0</asrwt>
<pdfrwt beam="1">  1        2 0.12007260E+00 0.14232404E+03</pdfrwt>
<pdfrwt beam="2">  1       -2 0.33061871E-02 0.14232404E+03</pdfrwt>
<totfact> 0.12849885E+04</totfact>
</mgrwt>
</event>
<event>
 6    1  0.1837778E-005  0.1567334E+03  0.7546771E-02  0.1200469E+00
         -1   -1    0    0    0  501 -0.00000000000E+00  0.00000000000E+00  0.11576780157E+03  0.11576780157E+03  0.00000000000E+00 0.  1.
          1   -1    0    0  501    0  0.00000000000E+00 -0.00000000000E+00 -0.21054479526E+03  0.21054479526E+03  0.00000000000E+00 0. -1.
          5    1    1    2  502    0 -0.61770930392E+02 -0.11906523614E+02 -0.40509362278E+02  0.74970071217E+02  0.47000000000E+01 0. -1.
         -5    1    1    2    0  502  0.12289770260E+02  0.92477681880E+02 -0.72954426629E+02  0.11852256521E+03  0.47000000000E+01 0. -1.
        -11    1    1    2    0    0  0.20783157017E+02 -0.51554167705E+02  0.54996367826E+02  0.78194451833E+02  0.00000000000E+00 0.  1.
         11    1    1    2    0    0  0.28698003115E+02 -0.29016990561E+02 -0.36309572611E+02  0.54625508576E+02  0.00000000000E+00 0. -1.
<mgrwt>
<rscale>  0 0.15000361E+03</rscale>
<asrwt>0</asrwt>
<pdfrwt beam="2">  1        1 0.32391507E-01 0.15673343E+03</pdfrwt>
<pdfrwt beam="1">  1       -1 0.17810431E-01 0.15673343E+03</pdfrwt>
<totfact> 0.32552201E+03</totfact>
</mgrwt>
</event>
<event>
 6    1  0.1190675E-005  0.1301272E+03  0.7546771E-02  0.1240437E+00
         -1   -1    0    0    0  501 -0.00000000000E+00  0.00000000000E+00  0.34225347534E+03  0.34225347534E+03  0.00000000000E+00 0.  1.
          1   -1    0    0  501    0  0.00000000000E+00 -0.00000000000E+00 -0.38580289856E+02  0.38580289856E+02  0.00000000000E+00 0. -1.
          5    1    1    2  502    0  0.55191254554E+02 -0.15295784882E+02  0.43547924077E+02  0.72100952184E+02  0.47000000000E+01 0.  1.
         -5    1    1    2    0  502 -0.38854100142E+02  0.47565192247E+02  0.13942689462E+03  0.15242715492E+03  0.47000000000E+01 0.  1.
        -11    1    1    2    0    0 -0.17356832795E+01 -0.31517096913E+02  0.13331066540E+03  0.13699661859E+03  0.00000000000E+00 0.  1.
         11    1    1    2    0    0 -0.14601471133E+02 -0.75231045141E+00 -0.12612298619E+02  0.19309039508E+02  0.00000000000E+00 0. -1.
<mgrwt>
<rscale>  0 0.12162677E+03</rscale>
<asrwt>0</asrwt>
<pdfrwt beam="2">  1        1 0.59354294E-02 0.13012719E+03</pdfrwt>
<pdfrwt beam="1">  1       -1 0.52654379E-01 0.13012719E+03</pdfrwt>
<totfact> 0.46600920E+03</totfact>
</mgrwt>
</event>
<event>
 6    1  0.1190675E-005  0.1824139E+03  0.7546771E-02  0.1196250E+00
         -4   -1    0    0    0  501 -0.00000000000E+00  0.00000000000E+00  0.17803564882E+03  0.17803564882E+03  0.00000000000E+00 0.  1.
          4   -1    0    0  501    0  0.00000000000E+00 -0.00000000000E+00 -0.12003795050E+03  0.12003795050E+03  0.00000000000E+00 0. -1.
          5    1    1    2  502    0 -0.70243271902E+01  0.10436004848E+03 -0.21887536058E+02  0.10696501823E+03  0.47000000000E+01 0. -1.
         -5    1    1    2    0  502 -0.18505520218E+02 -0.72764520978E+02  0.97258649651E+01  0.75853887449E+02  0.47000000000E+01 0.  1.
        -11    1    1    2    0    0  0.22735863549E+02  0.24915614535E+02  0.17676351847E+02  0.38080976269E+02  0.00000000000E+00 0.  1.
         11    1    1    2    0    0  0.27939838589E+01 -0.56511142033E+02  0.52483017573E+02  0.77173717373E+02  0.00000000000E+00 0. -1.
<mgrwt>
<rscale>  0 0.15348919E+03</rscale>
<asrwt>0</asrwt>
<pdfrwt beam="2">  1        4 0.18467377E-01 0.18241394E+03</pdfrwt>
<pdfrwt beam="1">  1       -4 0.27390100E-01 0.18241394E+03</pdfrwt>
<totfact> 0.57624225E+02</totfact>
</mgrwt>
</event>
<event>
 6    1  0.2056127E-005  0.1921899E+03  0.7546771E-02  0.1161458E+00
         -1   -1    0    0    0  501 -0.00000000000E+00  0.00000000000E+00  0.16085084199E+03  0.16085084199E+03  0.00000000000E+00 0.  1.
          1   -1    0    0  501    0  0.00000000000E+00 -0.00000000000E+00 -0.23048039701E+03  0.23048039701E+03  0.00000000000E+00 0. -1.
          5    1    1    2  502    0 -0.89948333197E+02  0.23716163329E+02  0.37642566301E+01  0.93217051423E+02  0.47000000000E+01 0. -1.
         -5    1    1    2    0  502 -0.55586000108E+02 -0.35208681802E+02 -0.10500856599E+03  0.12400944970E+03  0.47000000000E+01 0. -1.
        -11    1    1    2    0    0  0.82679521301E+02  0.18116528128E+02  0.61072442667E+02  0.10437411119E+03  0.00000000000E+00 0.  1.
         11    1    1    2    0    0  0.62854812003E+02 -0.66240096547E+01 -0.29457688326E+02  0.69730626682E+02  0.00000000000E+00 0. -1.
<mgrwt>
<rscale>  0 0.18671548E+03</rscale>
<asrwt>0</asrwt>
<pdfrwt beam="2">  1        1 0.35458522E-01 0.19218986E+03</pdfrwt>
<pdfrwt beam="1">  1       -1 0.24746284E-01 0.19218986E+03</pdfrwt>
<totfact> 0.17172174E+03</totfact>
</mgrwt>
</event>
<event>
 6    1  0.1190675E-005  0.1550586E+03  0.7546771E-02  0.1202837E+00
         -2   -1    0    0    0  501 -0.00000000000E+00  0.00000000000E+00  0.43434372236E+02  0.43434372236E+02  0.00000000000E+00 0.  1.
          2   -1    0    0  501    0  0.00000000000E+00 -0.00000000000E+00 -0.47533363910E+03  0.47533363910E+03  0.00000000000E+00 0. -1.
          5    1    1    2  502    0  0.49007030648E+02  0.23778172776E+02 -0.33669930915E+02  0.64209382503E+02  0.47000000000E+01 0. -1.
         -5    1    1    2    0  502 -0.27346541777E+02  0.65335369617E+02 -0.24065646578E+03  0.25090669261E+03  0.47000000000E+01 0. -1.
        -11    1    1    2    0    0  0.24477730079E+02 -0.58960882880E+02 -0.12302361375E+03  0.13860142322E+03  0.00000000000E+00 0.  1.
         11    1    1    2    0    0 -0.46138218950E+02 -0.30152659513E+02 -0.34549256424E+02  0.65050513011E+02  0.00000000000E+00 0. -1.
<mgrwt>
<rscale>  0 0.14809215E+03</rscale>
<asrwt>0</asrwt>
<pdfrwt beam="2">  1        2 0.73128255E-01 0.15505860E+03</pdfrwt>
<pdfrwt beam="1">  1       -2 0.66822108E-02 0.15505860E+03</pdfrwt>
<totfact> 0.79546893E+03</totfact>
</mgrwt>
</event>
<event>
 6    1  0.1190675E-005  0.1839107E+03  0.7546771E-02  0.1169442E+00
          2   -1    0    0  501    0  0.00000000000E+00  0.00000000000E+00  0.19792235824E+04  0.19792235824E+04  0.00000000000E+00 0. -1.
         -2   -1    0    0    0  501 -0.00000000000E+00 -0.00000000000E+00 -0.17644535748E+02  0.17644535748E+02  0.00000000000E+00 0.  1.
          5    1    1    2  502    0 -0.71227087227E+02 -0.94635229463E+02  0.66602592890E+03  0.67649224133E+03  0.47000000000E+01 0.  1.
         -5    1    1    2    0  502 -0.41935523405E+02  0.21212706101E+02  0.74076938309E+03  0.74227349134E+03  0.47000000000E+01 0.  1.
        -11    1    1    2    0    0  0.75120079505E+02  0.93006358570E+02  0.42065250618E+03  0.43731194820E+03  0.00000000000E+00 0. -1.
         11    1    1    2    0    0  0.38042531128E+02 -0.19583835208E+02  0.13413122846E+03  0.14079043726E+03  0.00000000000E+00 0.  1.
<mgrwt>
<rscale>  0 0.17831649E+03</rscale>
<asrwt>0</asrwt>
<pdfrwt beam="1">  1        2 0.30449576E+00 0.18391072E+03</pdfrwt>
<pdfrwt beam="2">  1       -2 0.27145455E-02 0.18391072E+03</pdfrwt>
<totfact> 0.37435365E+03</totfact>
</mgrwt>
</event>
<event>
 6    1  0.1190675E-005  0.2352645E+03  0.7546771E-02  0.1160339E+00
         -1   -1    0    0    0  501 -0.00000000000E+00  0.00000000000E+00  0.12100536491E+03  0.12100536491E+03  0.00000000000E+00 0.  1.
          1   -1    0    0  501    0  0.00000000000E+00 -0.00000000000E+00 -0.26299117432E+03  0.26299117432E+03  0.00000000000E+00 0. -1.
          5    1    1    2  502    0  0.69517585341E+02 -0.60280100483E+02 -0.19152147884E+03  0.21252988506E+03  0.47000000000E+01 0. -1.
         -5    1    1    2    0  502 -0.42972834260E+02  0.51909339348E+02  0.28893600674E+02  0.73472267937E+02  0.47000000000E+01 0.  1.
        -11    1    1    2    0    0 -0.34237363456E+02  0.16990721998E+02  0.52022896515E+02  0.64554344953E+02  0.00000000000E+00 0.  1.
         11    1    1    2    0    0  0.76926123747E+01 -0.86199608640E+01 -0.31380827757E+02  0.33440041285E+02  0.00000000000E+00 0. -1.
<mgrwt>
<rscale>  0 0.18793332E+03</rscale>
<asrwt>0</asrwt>
<pdfrwt beam="2">  1        1 0.40460180E-01 0.23526454E+03</pdfrwt>
<pdfrwt beam="1">  1       -1 0.18616210E-01 0.23526454E+03</pdfrwt>
<totfact> 0.23308994E+03</totfact>
</mgrwt>
</event>
<event>
 6    1  0.1190675E-005  0.1268401E+03  0.7546771E-02  0.1245932E+00
         -1   -1    0    0    0  501 -0.00000000000E+00  0.00000000000E+00  0.21865736051E+03  0.21865736051E+03  0.00000000000E+00 0.  1.
          1   -1    0    0  501    0  0.00000000000E+00 -0.00000000000E+00 -0.58116223729E+02  0.58116223729E+02  0.00000000000E+00 0. -1.
          5    1    1    2  502    0 -0.62381734384E+02  0.14821235196E+01  0.52244986016E+02  0.81518746548E+02  0.47000000000E+01 0.  1.
         -5    1    1    2    0  502  0.57467575979E+02  0.19466888005E+02  0.17948042228E+02  0.63448437627E+02  0.47000000000E+01 0.  1.
        -11    1    1    2    0    0  0.30044307791E+02 -0.22702449456E+02  0.98400110934E+02  0.10535959128E+03  0.00000000000E+00 0.  1.
         11    1    1    2    0    0 -0.25130149386E+02  0.17534379319E+01 -0.80520023941E+01  0.26446808793E+02  0.00000000000E+00 0. -1.
<mgrwt>
<rscale>  0 0.11829758E+03</rscale>
<asrwt>0</asrwt>
<pdfrwt beam="2">  1        1 0.89409576E-02 0.12684015E+03</pdfrwt>
<pdfrwt beam="1">  1       -1 0.33639593E-01 0.12684015E+03</pdfrwt>
<totfact> 0.59209682E+03</totfact>
</mgrwt>
</event>
<event>
 6    1  0.1190675E-005  0.1269667E+03  0.7546771E-02  0.1246763E+00
          1   -1    0    0  501    0  0.00000000000E+00  0.00000000000E+00  0.17197565429E+03  0.17197565429E+03  0.00000000000E+00 0. -1.
         -1   -1    0    0    0  501 -0.00000000000E+00 -0.00000000000E+00 -0.73507237018E+02  0.73507237018E+02  0.00000000000E+00 0.  1.
          5    1    1    2  502    0  0.39753337996E+01  0.31904277453E+02  0.67546127073E+02  0.74955023055E+02  0.47000000000E+01 0. -1.
         -5    1    1    2    0  502  0.15660041818E+02 -0.42483557787E+02 -0.33474009294E+02  0.56503883851E+02  0.47000000000E+01 0. -1.
        -11    1    1    2    0    0 -0.45500085053E+02  0.38095866248E+01  0.72856295729E+02  0.85981454498E+02  0.00000000000E+00 0. -1.
         11    1    1    2    0    0  0.25864709435E+02  0.67696937090E+01 -0.84599962370E+01  0.28042529904E+02  0.00000000000E+00 0.  1.
<mgrwt>
<rscale>  0 0.11780489E+03</rscale>
<asrwt>0</asrwt>
<pdfrwt beam="1">  1        1 0.26457793E-01 0.12696667E+03</pdfrwt>
<pdfrwt beam="2">  1       -1 0.11308806E-01 0.12696667E+03</pdfrwt>
<totfact> 0.84111448E+03</totfact>
</mgrwt>
</event>
<event>
 6    1  0.1190675E-005  0.1649995E+03  0.7546771E-02  0.1191285E+00
          2   -1    0    0  501    0  0.00000000000E+00  0.00000000000E+00  0.18068467607E+03  0.18068467607E+03  0.00000000000E+00 0.  1.
         -2   -1    0    0    0  501 -0.00000000000E+00 -0.00000000000E+00 -0.14759585068E+03  0.14759585068E+03  0.00000000000E+00 0. -1.
          5    1    1    2  502    0  0.11554631484E+03  0.21805009167E+02  0.23493298121E+02  0.12000180980E+03  0.47000000000E+01 0.  1.
         -5    1    1    2    0  502 -0.80197169157E+01 -0.28016615809E+02  0.55656038275E+02  0.62999454103E+02  0.47000000000E+01 0.  1.
        -11    1    1    2    0    0 -0.93489969050E+02 -0.63195665644E+00  0.32566137576E+01  0.93548806595E+02  0.00000000000E+00 0.  1.
         11    1    1    2    0    0 -0.14036628878E+02  0.68435632980E+01 -0.49317124765E+02  0.51730456251E+02  0.00000000000E+00 0. -1.
<mgrwt>
<rscale>  0 0.15772913E+03</rscale>
<asrwt>0</asrwt>
<pdfrwt beam="1">  1        2 0.27797642E-01 0.16499953E+03</pdfrwt>
<pdfrwt beam="2">  1       -2 0.22707054E-01 0.16499953E+03</pdfrwt>
<totfact> 0.31337717E+03</totfact>
</mgrwt>
</event>
<event>
 6    1  0.1190675E-005  0.3149804E+03  0.7546771E-02  0.1146622E+00
          2   -1    0    0  501    0  0.00000000000E+00  0.00000000000E+00  0.15287306456E+04  0.15287306456E+04  0.00000000000E+00 0. -1.
         -2   -1    0    0    0  501 -0.00000000000E+00 -0.00000000000E+00 -0.22450642935E+02  0.22450642935E+02  0.00000000000E+00 0.  1.
          5    1    1    2  502    0  0.10220948041E+03 -0.37781540462E+02  0.11852334020E+04  0.11902413747E+04  0.47000000000E+01 0. -1.
         -5    1    1    2    0  502 -0.93345042778E+02 -0.13322575865E+02  0.12122156203E+03  0.15364747034E+03  0.47000000000E+01 0.  1.
        -11    1    1    2    0    0 -0.14685474127E+02  0.39787699305E+02  0.15381384327E+03  0.15955382336E+03  0.00000000000E+00 0.  1.
         11    1    1    2    0    0  0.58210364939E+01  0.11316417023E+02  0.46011195295E+02  0.47738620137E+02  0.00000000000E+00 0. -1.
<mgrwt>
<rscale>  0 0.20373884E+03</rscale>
<asrwt>0</asrwt>
<pdfrwt beam="1">  1        2 0.23518925E+00 0.31498040E+03</pdfrwt>
<pdfrwt beam="2">  1       -2 0.34539463E-02 0.31498040E+03</pdfrwt>
<totfact> 0.45194063E+03</totfact>
</mgrwt>
</event>
<event>
 6    1  0.1190675E-005  0.1273991E+03  0.7546771E-02  0.1247172E+00
          2   -1    0    0  501    0  0.00000000000E+00  0.00000000000E+00  0.64333147485E+02  0.64333147485E+02  0.00000000000E+00 0.  1.
         -2   -1    0    0    0  501 -0.00000000000E+00 -0.00000000000E+00 -0.19923570191E+03  0.19923570191E+03  0.00000000000E+00 0. -1.
          5    1    1    2  502    0  0.15577265743E+02  0.48667061923E+02 -0.88877644924E+02  0.10262777349E+03  0.47000000000E+01 0.  1.
         -5    1    1    2    0  502 -0.40497412056E+02 -0.46455373464E+02 -0.20016614710E+02  0.64968430575E+02  0.47000000000E+01 0.  1.
        -11    1    1    2    0    0 -0.13337656568E+02  0.21251006990E+02  0.19711382221E+02  0.31906691616E+02  0.00000000000E+00 0.  1.
         11    1    1    2    0    0  0.38257802882E+02 -0.23462695449E+02 -0.45719677009E+02  0.64065953711E+02  0.00000000000E+00 0. -1.
<mgrwt>
<rscale>  0 0.11756305E+03</rscale>
<asrwt>0</asrwt>
<pdfrwt beam="1">  1        2 0.98974074E-02 0.12739909E+03</pdfrwt>
<pdfrwt beam="2">  1       -2 0.30651646E-01 0.12739909E+03</pdfrwt>
<totfact> 0.60177667E+03</totfact>
</mgrwt>
</event>
<event>
 6    1  0.1190675E-005  0.2441972E+03  0.7546771E-02  0.1119641E+00
          2   -1    0    0  501    0  0.00000000000E+00  0.00000000000E+00  0.25307728411E+04  0.25307728411E+04  0.00000000000E+00 0. -1.
         -2   -1    0    0    0  501 -0.00000000000E+00 -0.00000000000E+00 -0.29103945247E+02  0.29103945247E+02  0.00000000000E+00 0.  1.
          5    1    1    2  502    0 -0.51243349350E+02  0.69836232497E+02  0.11186875371E+04  0.11220458439E+04  0.47000000000E+01 0.  1.
         -5    1    1    2    0  502  0.21005115100E+02  0.13775053377E+03  0.79125888540E+03  0.80344827969E+03  0.47000000000E+01 0.  1.
        -11    1    1    2    0    0  0.24856236236E+01 -0.11155862412E+03  0.18938340865E+03  0.21981260294E+03  0.00000000000E+00 0.  1.
         11    1    1    2    0    0  0.27752610627E+02 -0.96028142145E+02  0.40233906476E+03  0.41457005983E+03  0.00000000000E+00 0. -1.
<mgrwt>
<rscale>  0 0.24022840E+03</rscale>
<asrwt>0</asrwt>
<pdfrwt beam="1">  1        2 0.38934949E+00 0.24419722E+03</pdfrwt>
<pdfrwt beam="2">  1       -2 0.44775320E-02 0.24419722E+03</pdfrwt>
<totfact> 0.89771229E+02</totfact>
</mgrwt>
</event>
<event>
 6    1  0.1190675E-005  0.1572636E+03  0.7546771E-02  0.1200122E+00
         -1   -1    0    0    0  501 -0.00000000000E+00  0.00000000000E+00  0.70055028425E+02  0.70055028425E+02  0.00000000000E+00 0.  1.
          1   -1    0    0  501    0  0.00000000000E+00 -0.00000000000E+00 -0.29707340098E+03  0.29707340098E+03  0.00000000000E+00 0. -1.
          5    1    1    2  502    0 -0.10591184372E+03  0.59177413119E+02 -0.10231422183E+03  0.15877523375E+03  0.47000000000E+01 0. -1.
         -5    1    1    2    0  502  0.35116020707E+02  0.48060905058E+01 -0.26333001010E+02  0.44404395711E+02  0.47000000000E+01 0. -1.
        -11    1    1    2    0    0 -0.39246854389E+01 -0.33409262480E+02 -0.71232185857E+02  0.78775670592E+02  0.00000000000E+00 0. -1.
         11    1    1    2    0    0  0.74720508450E+02 -0.30574241145E+02 -0.27138963861E+02  0.85173129355E+02  0.00000000000E+00 0.  1.
<mgrwt>
<rscale>  0 0.15028639E+03</rscale>
<asrwt>0</asrwt>
<pdfrwt beam="2">  1        1 0.45703601E-01 0.15726364E+03</pdfrwt>
<pdfrwt beam="1">  1       -1 0.10777696E-01 0.15726364E+03</pdfrwt>
<totfact> 0.46575350E+03</totfact>
</mgrwt>
</event>
<event>
 6    1  0.1190675E-005  0.1856986E+03  0.7546771E-02  0.1167326E+00
         -1   -1    0    0    0  501 -0.00000000000E+00  0.00000000000E+00  0.23045074141E+03  0.23045074141E+03  0.00000000000E+00 0.  1.
          1   -1    0    0  501    0  0.00000000000E+00 -0.00000000000E+00 -0.23619422750E+03  0.23619422750E+03  0.00000000000E+00 0. -1.
          5    1    1    2  502    0 -0.15749540201E+02 -0.19243727833E+02 -0.12111304421E+03  0.12372885094E+03  0.47000000000E+01 0.  1.
         -5    1    1    2    0  502 -0.96777305325E+02 -0.59446117948E+02 -0.35195160277E+02  0.11899780280E+03  0.47000000000E+01 0.  1.
        -11    1    1    2    0    0  0.11042451972E+03  0.52086360755E+02  0.15452685856E+03  0.19693936515E+03  0.00000000000E+00 0.  1.
         11    1    1    2    0    0  0.21023258057E+01  0.26603485027E+02 -0.39621401523E+01  0.26978950016E+02  0.00000000000E+00 0. -1.
<mgrwt>
<rscale>  0 0.18049417E+03</rscale>
<asrwt>0</asrwt>
<pdfrwt beam="2">  1        1 0.36337574E-01 0.18569861E+03</pdfrwt>
<pdfrwt beam="1">  1       -1 0.35453960E-01 0.18569861E+03</pdfrwt>
<totfact> 0.90587529E+02</totfact>
</mgrwt>
</event>
<event>
 6    1  0.1190675E-005  0.1393873E+03  0.7546771E-02  0.1225399E+00
          2   -1    0    0  501    0  0.00000000000E+00  0.00000000000E+00  0.14250651008E+04  0.14250651008E+04  0.00000000000E+00 0. -1.
         -2   -1    0    0    0  501 -0.00000000000E+00 -0.00000000000E+00 -0.11580147006E+02  0.11580147006E+02  0.00000000000E+00 0.  1.
          5    1    1    2  502    0  0.25089263986E+02  0.45593457747E+02  0.15234618806E+03  0.16105801928E+03  0.47000000000E+01 0. -1.
         -5    1    1    2    0  502  0.34984436485E+02 -0.31650577348E+02  0.80353894980E+03  0.80493639729E+03  0.47000000000E+01 0. -1.
        -11    1    1    2    0    0  0.11877342005E+02  0.12946135495E+02  0.21158707165E+02  0.27502082944E+02  0.00000000000E+00 0.  1.
         11    1    1    2    0    0 -0.71951042476E+02 -0.26889015895E+02  0.43644110873E+03  0.44314874825E+03  0.00000000000E+00 0. -1.
<mgrwt>
<rscale>  0 0.13139568E+03</rscale>
<asrwt>0</asrwt>
<pdfrwt beam="1">  1        2 0.21924065E+00 0.13938729E+03</pdfrwt>
<pdfrwt beam="2">  1       -2 0.17815622E-02 0.13938729E+03</pdfrwt>
<totfact> 0.13323715E+04</totfact>
</mgrwt>
</event>
<event>
 6    1  0.1190675E-005  0.1646377E+03  0.7546771E-02  0.1190471E+00
          1   -1    0    0  501    0  0.00000000000E+00  0.00000000000E+00  0.17460037938E+03  0.17460037938E+03  0.00000000000E+00 0. -1.
         -1   -1    0    0    0  501 -0.00000000000E+00 -0.00000000000E+00 -0.14048627706E+03  0.14048627706E+03  0.00000000000E+00 0.  1.
          5    1    1    2  502    0 -0.13857178542E+02  0.40673336268E+02 -0.15977525915E+02  0.46083760857E+02  0.47000000000E+01 0. -1.
         -5    1    1    2    0  502 -0.83779590439E+02 -0.84791796156E+02  0.35700836677E+00  0.11929327695E+03  0.47000000000E+01 0. -1.
        -11    1    1    2    0    0  0.74668420627E+02  0.28520404632E+02 -0.13116831509E+02  0.80998998686E+02  0.00000000000E+00 0.  1.
         11    1    1    2    0    0  0.22968348354E+02  0.15598055255E+02  0.62851451380E+02  0.68710619954E+02  0.00000000000E+00 0. -1.
<mgrwt>
<rscale>  0 0.15843861E+03</rscale>
<asrwt>0</asrwt>
<pdfrwt beam="1">  1        1 0.26861597E-01 0.16463768E+03</pdfrwt>
<pdfrwt beam="2">  1       -1 0.21613273E-01 0.16463768E+03</pdfrwt>
<totfact> 0.30197118E+03</totfact>
</mgrwt>
</event>
<event>
 6    1  0.1190675E-005  0.1532428E+03  0.7546771E-02  0.1201656E+00
         -1   -1    0    0    0  501 -0.00000000000E+00  0.00000000000E+00  0.31901600446E+02  0.31901600446E+02  0.00000000000E+00 0.  1.
          1   -1    0    0  501    0  0.00000000000E+00 -0.00000000000E+00 -0.86933225029E+03  0.86933225029E+03  0.00000000000E+00 0. -1.
          5    1    1    2  502    0  0.43904323704E+02  0.26661706587E+02 -0.58399168977E+03  0.58626514475E+03  0.47000000000E+01 0. -1.
         -5    1    1    2    0  502  0.40174292798E+02  0.28983971583E+02 -0.72897930664E+02  0.88262351575E+02  0.47000000000E+01 0.  1.
        -11    1    1    2    0    0 -0.24255234208E+02 -0.45073925757E+02 -0.15043660023E+03  0.15890609132E+03  0.00000000000E+00 0. -1.
         11    1    1    2    0    0 -0.59823382294E+02 -0.10571752412E+02 -0.30104429185E+02  0.67800263087E+02  0.00000000000E+00 0.  1.
<mgrwt>
<rscale>  0 0.14904140E+03</rscale>
<asrwt>0</asrwt>
<pdfrwt beam="2">  1        1 0.13374343E+00 0.15324285E+03</pdfrwt>
<pdfrwt beam="1">  1       -1 0.49079383E-02 0.15324285E+03</pdfrwt>
<totfact> 0.35944777E+03</totfact>
</mgrwt>
</event>
<event>
 6    1  0.1190675E-005  0.1459307E+03  0.7546771E-02  0.1215399E+00
         -2   -1    0    0    0  501 -0.00000000000E+00  0.00000000000E+00  0.30278448063E+03  0.30278448063E+03  0.00000000000E+00 0.  1.
          2   -1    0    0  501    0  0.00000000000E+00 -0.00000000000E+00 -0.57691269270E+02  0.57691269270E+02  0.00000000000E+00 0. -1.
          5    1    1    2  502    0 -0.52235281315E+02 -0.22315044567E+01  0.79872910463E+02  0.95578638053E+02  0.47000000000E+01 0. -1.
         -5    1    1    2    0  502  0.39979803972E+02  0.76535346933E+02  0.50715563431E+02  0.10025069790E+03  0.47000000000E+01 0. -1.
        -11    1    1    2    0    0  0.37963531872E+02 -0.24424466318E+01  0.59295671375E+02  0.70449783119E+02  0.00000000000E+00 0.  1.
         11    1    1    2    0    0 -0.25708054530E+02 -0.71861395845E+02  0.55209066094E+02  0.94196630828E+02  0.00000000000E+00 0. -1.
<mgrwt>
<rscale>  0 0.13847292E+03</rscale>
<asrwt>0</asrwt>
<pdfrwt beam="2">  1        2 0.88755800E-02 0.14593073E+03</pdfrwt>
<pdfrwt beam="1">  1       -2 0.46582227E-01 0.14593073E+03</pdfrwt>
<totfact> 0.31716005E+03</totfact>
</mgrwt>
</event>
<event>
 6    1  0.1190675E-005  0.1240278E+03  0.7546771E-02  0.1254773E+00
         -2   -1    0    0    0  501 -0.00000000000E+00  0.00000000000E+00  0.19532130703E+03  0.19532130703E+03  0.00000000000E+00 0.  1.
          2   -1    0    0  501    0  0.00000000000E+00 -0.00000000000E+00 -0.56562222468E+02  0.56562222468E+02  0.00000000000E+00 0. -1.
          5    1    1    2  502    0  0.59337954088E+02 -0.20176030273E+02  0.17073263856E+02  0.65127961212E+02  0.47000000000E+01 0. -1.
         -5    1    1    2    0  502 -0.29727820803E+02  0.40982189932E+02  0.69552051455E+02  0.86156027548E+02  0.47000000000E+01 0.  1.
        -11    1    1    2    0    0 -0.14488119777E+02  0.29515732407E+02  0.25981939807E+02  0.41906386988E+02  0.00000000000E+00 0. -1.
         11    1    1    2    0    0 -0.15122013509E+02 -0.50321892066E+02  0.26151829439E+02  0.58693153746E+02  0.00000000000E+00 0.  1.
<mgrwt>
<rscale>  0 0.11319062E+03</rscale>
<asrwt>0</asrwt>
<pdfrwt beam="2">  1        2 0.87018805E-02 0.12402782E+03</pdfrwt>
<pdfrwt beam="1">  1       -2 0.30049431E-01 0.12402782E+03</pdfrwt>
<totfact> 0.72942108E+03</totfact>
</mgrwt>
</event>
<event>
 6    1  0.1190675E-005  0.1646670E+03  0.7546771E-02  0.1192166E+00
          2   -1    0    0  501    0  0.00000000000E+00  0.00000000000E+00  0.31096050946E+02  0.31096050946E+02  0.00000000000E+00 0. -1.
         -2   -1    0    0    0  501 -0.00000000000E+00 -0.00000000000E+00 -0.72998170906E+03  0.72998170906E+03  0.00000000000E+00 0.  1.
          5    1    1    2  502    0 -0.39244342619E+02  0.46388001180E+02 -0.46453884134E+02  0.76629096512E+02  0.47000000000E+01 0. -1.
         -5    1    1    2    0  502  0.28317160068E+02  0.54149961930E+02 -0.31029193881E+03  0.31628666938E+03  0.47000000000E+01 0.  1.
        -11    1    1    2    0    0 -0.14644851586E+02  0.12459657845E+02 -0.64901840098E+02  0.67690203129E+02  0.00000000000E+00 0. -1.
         11    1    1    2    0    0  0.25572034136E+02 -0.11299762096E+03 -0.27723799507E+03  0.30047179099E+03  0.00000000000E+00 0.  1.
<mgrwt>
<rscale>  0 0.15696513E+03</rscale>
<asrwt>0</asrwt>
<pdfrwt beam="1">  1        2 0.47840078E-02 0.16466699E+03</pdfrwt>
<pdfrwt beam="2">  1       -2 0.11230488E+00 0.16466699E+03</pdfrwt>
<totfact> 0.10632168E+03</totfact>
</mgrwt>
</event>
<event>
 6    1  0.1190675E-005  0.2934451E+03  0.7546771E-02  0.1088564E+00
          2   -1    0    0  501    0  0.00000000000E+00  0.00000000000E+00  0.19539582131E+03  0.19539582131E+03  0.00000000000E+00 0. -1.
         -2   -1    0    0    0  501 -0.00000000000E+00 -0.00000000000E+00 -0.11017381523E+03  0.11017381523E+03  0.00000000000E+00 0.  1.
          5    1    1    2  502    0  0.10533825623E+03  0.55774215432E+02  0.26876295088E+02  0.12227565813E+03  0.47000000000E+01 0.  1.
         -5    1    1    2    0  502 -0.17256958938E+02 -0.17549581894E+02  0.43818816836E+02  0.50477412427E+02  0.47000000000E+01 0.  1.
        -11    1    1    2    0    0 -0.53642905977E+02 -0.66529350209E+02 -0.14168765042E+01  0.85473524204E+02  0.00000000000E+00 0.  1.
         11    1    1    2    0    0 -0.34438391317E+02  0.28304716671E+02  0.15943770666E+02  0.47343041784E+02  0.00000000000E+00 0. -1.
<mgrwt>
<rscale>  0 0.29344508E+03</rscale>
<asrwt>0</asrwt>
<pdfrwt beam="1">  1        2 0.30060896E-01 0.29344508E+03</pdfrwt>
<pdfrwt beam="2">  1       -2 0.16949818E-01 0.29344508E+03</pdfrwt>
<totfact> 0.48613769E+03</totfact>
</mgrwt>
</event>
<event>
 6    1  0.1190675E-005  0.1823129E+03  0.7546771E-02  0.1171131E+00
         -2   -1    0    0    0  501 -0.00000000000E+00  0.00000000000E+00  0.68787153797E+03  0.68787153797E+03  0.00000000000E+00 0.  1.
          2   -1    0    0  501    0  0.00000000000E+00 -0.00000000000E+00 -0.64374680148E+02  0.64374680148E+02  0.00000000000E+00 0. -1.
          5    1    1    2  502    0  0.13831850968E+03  0.74258082959E+02  0.88627525129E+02  0.18034190089E+03  0.47000000000E+01 0.  1.
         -5    1    1    2    0  502 -0.23113788570E+02 -0.83730697242E+01  0.18405407403E+02  0.31067741153E+02  0.47000000000E+01 0.  1.
        -11    1    1    2    0    0 -0.11760877428E+03 -0.54411198927E+02  0.51223824386E+03  0.52837526515E+03  0.00000000000E+00 0.  1.
         11    1    1    2    0    0  0.24040531713E+01 -0.11473814307E+02  0.42256814346E+01  0.12461310926E+02  0.00000000000E+00 0. -1.
<mgrwt>
<rscale>  0 0.17660406E+03</rscale>
<asrwt>0</asrwt>
<pdfrwt beam="2">  1        2 0.99037974E-02 0.18231289E+03</pdfrwt>
<pdfrwt beam="1">  1       -2 0.10582639E+00 0.18231289E+03</pdfrwt>
<totfact> 0.48350164E+02</totfact>
</mgrwt>
</event>
<event>
 6    1  0.1981206E-005  0.2217743E+03  0.7546771E-02  0.1135842E+00
         -3   -1    0    0    0  501 -0.00000000000E+00  0.00000000000E+00  0.40828375292E+03  0.40828375292E+03  0.00000000000E+00 0.  1.
          3   -1    0    0  501    0  0.00000000000E+00 -0.00000000000E+00 -0.11169383894E+03  0.11169383894E+03  0.00000000000E+00 0. -1.
          5    1    1    2  502    0  0.46999177028E+02  0.12961977842E+02  0.10272293484E+03  0.11380257841E+03  0.47000000000E+01 0. -1.
         -5    1    1    2    0  502  0.12903031223E+03 -0.63686290276E+02  0.38171511365E+02  0.14894267126E+03  0.47000000000E+01 0. -1.
        -11    1    1    2    0    0 -0.75116319179E+02  0.68457218905E+02  0.67126454658E+02  0.12179824770E+03  0.00000000000E+00 0. -1.
         11    1    1    2    0    0 -0.10091317008E+03 -0.17732906471E+02  0.88569013116E+02  0.13543409449E+03  0.00000000000E+00 0.  1.
<mgrwt>
<rscale>  0 0.21739302E+03</rscale>
<asrwt>0</asrwt>
<pdfrwt beam="2">  1        3 0.17183668E-01 0.22177426E+03</pdfrwt>
<pdfrwt beam="1">  1       -3 0.62812884E-01 0.22177426E+03</pdfrwt>
<totfact> 0.18095828E+02</totfact>
</mgrwt>
</event>
<event>
 6    1  0.1190675E-005  0.1675552E+03  0.7546771E-02  0.1186874E+00
         -2   -1    0    0    0  501 -0.00000000000E+00  0.00000000000E+00  0.44361809858E+02  0.44361809858E+02  0.00000000000E+00 0.  1.
          2   -1    0    0  501    0  0.00000000000E+00 -0.00000000000E+00 -0.55504719481E+03  0.55504719481E+03  0.00000000000E+00 0. -1.
          5    1    1    2  502    0  0.12872918250E+03 -0.35672868338E+02 -0.28366460539E+03  0.31357846595E+03  0.47000000000E+01 0.  1.
         -5    1    1    2    0  502 -0.18927560896E+02  0.15870668282E+02 -0.16162294575E+02  0.29890474053E+02  0.47000000000E+01 0.  1.
        -11    1    1    2    0    0 -0.27244047064E+02  0.48828607006E+01  0.13895888863E+01  0.27713018354E+02  0.00000000000E+00 0.  1.
         11    1    1    2    0    0 -0.82557574539E+02  0.14919339355E+02 -0.21224807388E+03  0.22822704631E+03  0.00000000000E+00 0. -1.
<mgrwt>
<rscale>  0 0.16162536E+03</rscale>
<asrwt>0</asrwt>
<pdfrwt beam="2">  1        2 0.85391875E-01 0.16755519E+03</pdfrwt>
<pdfrwt beam="1">  1       -2 0.68248939E-02 0.16755519E+03</pdfrwt>
<totfact> 0.65113027E+03</totfact>
</mgrwt>
</event>
<event>
 6    1  0.1190675E-005  0.1324598E+03  0.7546771E-02  0.1237268E+00
          1   -1    0    0  501    0  0.00000000000E+00  0.00000000000E+00  0.10431779314E+04  0.10431779314E+04  0.00000000000E+00 0. -1.
         -1   -1    0    0    0  501 -0.00000000000E+00 -0.00000000000E+00 -0.16083082967E+02  0.16083082967E+02  0.00000000000E+00 0.  1.
          5    1    1    2  502    0 -0.43116291633E+02  0.36393109438E+01  0.74192030955E+03  0.74319586578E+03  0.47000000000E+01 0.  1.
         -5    1    1    2    0  502  0.10564350202E+02 -0.33010131643E+02  0.58876991682E+02  0.68482584909E+02  0.47000000000E+01 0.  1.
        -11    1    1    2    0    0 -0.68225499154E+01 -0.12952404137E+02  0.65609058122E+00  0.14654092095E+02  0.00000000000E+00 0.  1.
         11    1    1    2    0    0  0.39374491346E+02  0.42323224836E+02  0.22564145662E+03  0.23292847158E+03  0.00000000000E+00 0. -1.
<mgrwt>
<rscale>  0 0.12360351E+03</rscale>
<asrwt>0</asrwt>
<pdfrwt beam="1">  1        1 0.16048886E+00 0.13245977E+03</pdfrwt>
<pdfrwt beam="2">  1       -1 0.24743213E-02 0.13245977E+03</pdfrwt>
<totfact> 0.72185724E+03</totfact>
</mgrwt>
</event>
<event>
 6    1  0.1558114E-005  0.1938157E+03  0.7546771E-02  0.1159659E+00
          1   -1    0    0  501    0  0.00000000000E+00  0.00000000000E+00  0.10612880625E+03  0.10612880625E+03  0.00000000000E+00 0. -1.
         -1   -1    0    0    0  501 -0.00000000000E+00 -0.00000000000E+00 -0.35288224168E+03  0.35288224168E+03  0.00000000000E+00 0.  1.
          5    1    1    2  502    0 -0.26225495710E+02 -0.43890826854E+02 -0.28276859920E+01  0.51422437858E+02  0.47000000000E+01 0. -1.
         -5    1    1    2    0  502  0.12230252899E+03 -0.68842052931E+02 -0.55307533365E+02  0.15092431910E+03  0.47000000000E+01 0. -1.
        -11    1    1    2    0    0  0.29644827307E+01  0.60851478239E+02 -0.51769990980E+02  0.79948874462E+02  0.00000000000E+00 0. -1.
         11    1    1    2    0    0 -0.99041516015E+02  0.51881401547E+02 -0.13684822509E+03  0.17671541651E+03  0.00000000000E+00 0.  1.
<mgrwt>
<rscale>  0 0.18867809E+03</rscale>
<asrwt>0</asrwt>
<pdfrwt beam="1">  1        1 0.16327509E-01 0.19381565E+03</pdfrwt>
<pdfrwt beam="2">  1       -1 0.54289576E-01 0.19381565E+03</pdfrwt>
<totfact> 0.11645633E+03</totfact>
</mgrwt>
</event>
<event>
 6    1  0.1190675E-005  0.1271289E+03  0.7546771E-02  0.1244286E+00
          1   -1    0    0  501    0  0.00000000000E+00  0.00000000000E+00  0.36123937408E+03  0.36123937408E+03  0.00000000000E+00 0. -1.
         -1   -1    0    0    0  501 -0.00000000000E+00 -0.00000000000E+00 -0.44061491776E+02  0.44061491776E+02  0.00000000000E+00 0.  1.
          5    1    1    2  502    0 -0.29738302516E+02 -0.24813586086E+02  0.17415335222E+03  0.17847005569E+03  0.47000000000E+01 0. -1.
         -5    1    1    2    0  502  0.60246811251E+02  0.37633326079E+02  0.90594969239E+02  0.11521928636E+03  0.47000000000E+01 0.  1.
        -11    1    1    2    0    0 -0.12924082196E+02  0.23919563356E+02 -0.16314419179E+02  0.31707060490E+02  0.00000000000E+00 0.  1.
         11    1    1    2    0    0 -0.17584426538E+02 -0.36739303349E+02  0.68743980026E+02  0.79904463311E+02  0.00000000000E+00 0. -1.
<mgrwt>
<rscale>  0 0.11928229E+03</rscale>
<asrwt>0</asrwt>
<pdfrwt beam="1">  1        1 0.55575286E-01 0.12712889E+03</pdfrwt>
<pdfrwt beam="2">  1       -1 0.67786913E-02 0.12712889E+03</pdfrwt>
<totfact> 0.72800533E+03</totfact>
</mgrwt>
</event>
<event>
 6    1  0.1190675E-005  0.1246111E+03  0.7546771E-02  0.1244010E+00
          2   -1    0    0  501    0  0.00000000000E+00  0.00000000000E+00  0.62668095533E+03  0.62668095533E+03  0.00000000000E+00 0. -1.
         -2   -1    0    0    0  501 -0.00000000000E+00 -0.00000000000E+00 -0.54863418184E+02  0.54863418184E+02  0.00000000000E+00 0.  1.
          5    1    1    2  502    0  0.37784691463E+02 -0.13130106406E+02  0.53275349917E+03  0.53427377204E+03  0.47000000000E+01 0. -1.
         -5    1    1    2    0  502  0.76168361039E+01  0.27968775284E+02  0.29506556291E+02  0.41629261911E+02  0.47000000000E+01 0.  1.
        -11    1    1    2    0    0 -0.62148721181E+02 -0.35881307344E+02  0.23285933110E+02  0.75446447510E+02  0.00000000000E+00 0.  1.
         11    1    1    2    0    0  0.16747193613E+02  0.21042638466E+02 -0.13728451430E+02  0.30194892055E+02  0.00000000000E+00 0. -1.
<mgrwt>
<rscale>  0 0.11944829E+03</rscale>
<asrwt>0</asrwt>
<pdfrwt beam="1">  1        2 0.96412449E-01 0.12461113E+03</pdfrwt>
<pdfrwt beam="2">  1       -2 0.84405263E-02 0.12461113E+03</pdfrwt>
<totfact> 0.40305374E+03</totfact>
</mgrwt>
</event>
<event>
 6    1  0.1190675E-005  0.1497321E+03  0.7546771E-02  0.1209849E+00
          2   -1    0    0  501    0  0.00000000000E+00  0.00000000000E+00  0.83922040267E+02  0.83922040267E+02  0.00000000000E+00 0. -1.
         -2   -1    0    0    0  501 -0.00000000000E+00 -0.00000000000E+00 -0.23519949322E+03  0.23519949322E+03  0.00000000000E+00 0.  1.
          5    1    1    2  502    0 -0.17473661992E+02 -0.41753523055E+02 -0.39142076395E+02  0.60023976005E+02  0.47000000000E+01 0. -1.
         -5    1    1    2    0  502  0.95013303057E+02  0.13779537089E+02 -0.57549414644E+01  0.96294406647E+02  0.47000000000E+01 0. -1.
        -11    1    1    2    0    0 -0.45956015775E+02 -0.31096383901E+02 -0.39226567086E+02  0.67953396111E+02  0.00000000000E+00 0. -1.
         11    1    1    2    0    0 -0.31583625289E+02  0.59070369868E+02 -0.67153868004E+02  0.94849754721E+02  0.00000000000E+00 0.  1.
<mgrwt>
<rscale>  0 0.14261787E+03</rscale>
<asrwt>0</asrwt>
<pdfrwt beam="1">  1        2 0.12911083E-01 0.14973208E+03</pdfrwt>
<pdfrwt beam="2">  1       -2 0.36184537E-01 0.14973208E+03</pdfrwt>
<totfact> 0.32532112E+03</totfact>
</mgrwt>
</event>
<event>
 6    1  0.1190675E-005  0.1869439E+03  0.7546771E-02  0.1184165E+00
         -1   -1    0    0    0  501 -0.00000000000E+00  0.00000000000E+00  0.11173914369E+03  0.11173914369E+03  0.00000000000E+00 0.  1.
          1   -1    0    0  501    0  0.00000000000E+00 -0.00000000000E+00 -0.19854087390E+03  0.19854087390E+03  0.00000000000E+00 0. -1.
          5    1    1    2  502    0 -0.28801729475E+02  0.12240448048E+02 -0.11034935079E+03  0.11479737545E+03  0.47000000000E+01 0. -1.
         -5    1    1    2    0  502 -0.18104761386E+02 -0.55082565638E+02  0.55115560183E+02  0.80135425353E+02  0.47000000000E+01 0.  1.
        -11    1    1    2    0    0 -0.45786482961E+01  0.52072251374E+02  0.34733754926E+01  0.52388431172E+02  0.00000000000E+00 0. -1.
         11    1    1    2    0    0  0.51485139157E+02 -0.92301337827E+01 -0.35041315084E+02  0.62958785618E+02  0.00000000000E+00 0.  1.
<mgrwt>
<rscale>  0 0.16408123E+03</rscale>
<asrwt>0</asrwt>
<pdfrwt beam="2">  1        1 0.30544750E-01 0.18694391E+03</pdfrwt>
<pdfrwt beam="1">  1       -1 0.17190638E-01 0.18694391E+03</pdfrwt>
<totfact> 0.37369739E+03</totfact>
</mgrwt>
</event>
<event>
 6    1  0.1190675E-005  0.2074281E+03  0.7546771E-02  0.1147023E+00
          3   -1    0    0  501    0  0.00000000000E+00  0.00000000000E+00  0.73373007609E+02  0.73373007609E+02  0.00000000000E+00 0. -1.
         -3   -1    0    0    0  501 -0.00000000000E+00 -0.00000000000E+00 -0.54233312810E+03  0.54233312810E+03  0.00000000000E+00 0.  1.
          5    1    1    2  502    0 -0.87784374786E+02 -0.42333500587E+02 -0.15752515547E+03  0.18529567274E+03  0.47000000000E+01 0.  1.
         -5    1    1    2    0  502  0.54123565950E+01 -0.10125762148E+03 -0.74399378132E+02  0.12585609631E+03  0.47000000000E+01 0.  1.
        -11    1    1    2    0    0  0.19668618204E+01  0.42591326159E+02 -0.10650073528E+02  0.43946714047E+02  0.00000000000E+00 0.  1.
         11    1    1    2    0    0  0.80405156371E+02  0.10099979591E+03 -0.22638551336E+03  0.26060765262E+03  0.00000000000E+00 0. -1.
<mgrwt>
<rscale>  0 0.20325332E+03</rscale>
<asrwt>0</asrwt>
<pdfrwt beam="1">  1        3 0.11288155E-01 0.20742814E+03</pdfrwt>
<pdfrwt beam="2">  1       -3 0.83435867E-01 0.20742814E+03</pdfrwt>
<totfact> 0.20068081E+02</totfact>
</mgrwt>
</event>
<event>
 6    1  0.1190675E-005  0.1560243E+03  0.7546771E-02  0.1212920E+00
         -1   -1    0    0    0  501 -0.00000000000E+00  0.00000000000E+00  0.49686653164E+03  0.49686653164E+03  0.00000000000E+00 0.  1.
          1   -1    0    0  501    0  0.00000000000E+00 -0.00000000000E+00 -0.42010416071E+02  0.42010416071E+02  0.00000000000E+00 0. -1.
          5    1    1    2  502    0  0.62951802000E+02 -0.13312132319E+02  0.13621662380E+03  0.15072226392E+03  0.47000000000E+01 0. -1.
         -5    1    1    2    0  502 -0.55144671763E+02 -0.28701128313E+02  0.10064929144E+02  0.63151265933E+02  0.47000000000E+01 0.  1.
        -11    1    1    2    0    0 -0.49654443589E+02  0.29797858218E+02  0.19207047647E+03  0.20061042858E+03  0.00000000000E+00 0.  1.
         11    1    1    2    0    0  0.41847313352E+02  0.12215402413E+02  0.11650408615E+03  0.12439298927E+03  0.00000000000E+00 0. -1.
<mgrwt>
<rscale>  0 0.14030404E+03</rscale>
<asrwt>0</asrwt>
<pdfrwt beam="2">  1        1 0.64631413E-02 0.15602434E+03</pdfrwt>
<pdfrwt beam="1">  1       -1 0.76441001E-01 0.15602434E+03</pdfrwt>
<totfact> 0.20422430E+03</totfact>
</mgrwt>
</event>
<event>
 6    1  0.1190675E-005  0.2064171E+03  0.7546771E-02  0.1148349E+00
          3   -1    0    0  501    0  0.00000000000E+00  0.00000000000E+00  0.22541573768E+03  0.22541573768E+03  0.00000000000E+00 0. -1.
         -3   -1    0    0    0  501 -0.00000000000E+00 -0.00000000000E+00 -0.19382891831E+03  0.19382891831E+03  0.00000000000E+00 0.  1.
          5    1    1    2  502    0 -0.47527140320E+02  0.30211749859E+02  0.86679792679E+02  0.10347490206E+03  0.47000000000E+01 0. -1.
         -5    1    1    2    0  502 -0.24421555250E+02  0.11747035819E+03 -0.84578130337E+00  0.12007707009E+03  0.47000000000E+01 0. -1.
        -11    1    1    2    0    0  0.11083116876E+02 -0.17907966938E+01 -0.34626338906E+02  0.36400903540E+02  0.00000000000E+00 0.  1.
         11    1    1    2    0    0  0.60865578694E+02 -0.14589131136E+03 -0.19620853094E+02  0.15929178031E+03  0.00000000000E+00 0. -1.
<mgrwt>
<rscale>  0 0.20165653E+03</rscale>
<asrwt>0</asrwt>
<pdfrwt beam="1">  1        3 0.34679344E-01 0.20641707E+03</pdfrwt>
<pdfrwt beam="2">  1       -3 0.29819834E-01 0.20641707E+03</pdfrwt>
<totfact> 0.21737207E+02</totfact>
</mgrwt>
</event>
<event>
 6    1  0.1190675E-005  0.3403376E+03  0.7546771E-02  0.1066652E+00
         -1   -1    0    0    0  501 -0.00000000000E+00  0.00000000000E+00  0.54490196314E+02  0.54490196314E+02  0.00000000000E+00 0.  1.
          1   -1    0    0  501    0  0.00000000000E+00 -0.00000000000E+00 -0.53142429664E+03  0.53142429664E+03  0.00000000000E+00 0. -1.
          5    1    1    2  502    0  0.45127596731E+02  0.91534940437E+01 -0.96608120913E+02  0.10712378572E+03  0.47000000000E+01 0. -1.
         -5    1    1    2    0  502 -0.83600469149E+02  0.47154903564E+02 -0.19542087589E+03  0.21777059514E+03  0.47000000000E+01 0. -1.
        -11    1    1    2    0    0 -0.45545742482E+02 -0.55818368388E+01  0.60855853942E+01  0.46288291288E+02  0.00000000000E+00 0.  1.
         11    1    1    2    0    0  0.84018614900E+02 -0.50726560768E+02 -0.19099068891E+03  0.21473182081E+03  0.00000000000E+00 0. -1.
<mgrwt>
<rscale>  0 0.34033756E+03</rscale>
<asrwt>0</asrwt>
<pdfrwt beam="2">  1        1 0.81757583E-01 0.34033756E+03</pdfrwt>
<pdfrwt beam="1">  1       -1 0.83831073E-02 0.34033756E+03</pdfrwt>
<totfact> 0.33399590E+03</totfact>
</mgrwt>
</event>
<event>
 6    1  0.1190675E-005  0.1647152E+03  0.7546771E-02  0.1190347E+00
          2   -1    0    0  501    0  0.00000000000E+00  0.00000000000E+00  0.80835132441E+03  0.80835132441E+03  0.00000000000E+00 0. -1.
         -2   -1    0    0    0  501 -0.00000000000E+00 -0.00000000000E+00 -0.60925458717E+02  0.60925458717E+02  0.00000000000E+00 0.  1.
          5    1    1    2  502    0  0.12887681815E+02  0.10002437241E+02  0.11179122466E+02  0.20327416768E+02  0.47000000000E+01 0.  1.
         -5    1    1    2    0  502 -0.79455814581E+01 -0.11714339413E+03  0.69037014584E+03  0.70029903279E+03  0.47000000000E+01 0.  1.
        -11    1    1    2    0    0  0.51802272743E+01  0.93128539331E+02 -0.64962975083E+01  0.93498457067E+02  0.00000000000E+00 0.  1.
         11    1    1    2    0    0 -0.10122327631E+02  0.14012417561E+02  0.52372894894E+02  0.55151876507E+02  0.00000000000E+00 0. -1.
<mgrwt>
<rscale>  0 0.15854700E+03</rscale>
<asrwt>0</asrwt>
<pdfrwt beam="1">  1        2 0.12436174E+00 0.16471522E+03</pdfrwt>
<pdfrwt beam="2">  1       -2 0.93731480E-02 0.16471522E+03</pdfrwt>
<totfact> 0.25468617E+03</totfact>
</mgrwt>
</event>
<event>
 6    1  0.1190675E-005  0.1480286E+03  0.7546771E-02  0.1211960E+00
         -1   -1    0    0    0  501 -0.00000000000E+00  0.00000000000E+00  0.21075868485E+03  0.21075868485E+03  0.00000000000E+00 0.  1.
          1   -1    0    0  501    0  0.00000000000E+00 -0.00000000000E+00 -0.10117987577E+03  0.10117987577E+03  0.00000000000E+00 0. -1.
          5    1    1    2  502    0  0.95032191000E+02  0.24300621019E+02 -0.17214215850E+02  0.99699833177E+02  0.47000000000E+01 0.  1.
         -5    1    1    2    0  502 -0.35264203272E+02  0.27792477654E+02  0.17250866108E+02  0.48328751567E+02  0.47000000000E+01 0.  1.
        -11    1    1    2    0    0 -0.33590160115E+02 -0.64486717516E+02  0.11338170371E+03  0.13469315621E+03  0.00000000000E+00 0.  1.
         11    1    1    2    0    0 -0.26177827613E+02  0.12393618844E+02 -0.38395448865E+01  0.29216819668E+02  0.00000000000E+00 0. -1.
<mgrwt>
<rscale>  0 0.14102207E+03</rscale>
<asrwt>0</asrwt>
<pdfrwt beam="2">  1        1 0.15566135E-01 0.14802858E+03</pdfrwt>
<pdfrwt beam="1">  1       -1 0.32424413E-01 0.14802858E+03</pdfrwt>
<totfact> 0.30717542E+03</totfact>
</mgrwt>
</event>
<event>
 6    1  0.1190675E-005  0.1304888E+03  0.7546771E-02  0.1238455E+00
         -1   -1    0    0    0  501 -0.00000000000E+00  0.00000000000E+00  0.15655100173E+03  0.15655100173E+03  0.00000000000E+00 0.  1.
          1   -1    0    0  501    0  0.00000000000E+00 -0.00000000000E+00 -0.86781000102E+02  0.86781000102E+02  0.00000000000E+00 0. -1.
          5    1    1    2  502    0 -0.23568568274E+02 -0.17880785754E+02 -0.39061293507E+02  0.49224735247E+02  0.47000000000E+01 0. -1.
         -5    1    1    2    0  502  0.38972914618E+02 -0.16247292204E+02  0.74876825490E+02  0.86090020172E+02  0.47000000000E+01 0. -1.
        -11    1    1    2    0    0 -0.44403850212E+01 -0.17841091694E+02  0.49394684301E+02  0.52705373627E+02  0.00000000000E+00 0.  1.
         11    1    1    2    0    0 -0.10963961323E+02  0.51969169652E+02 -0.15440214659E+02  0.55311872784E+02  0.00000000000E+00 0. -1.
<mgrwt>
<rscale>  0 0.12285850E+03</rscale>
<asrwt>0</asrwt>
<pdfrwt beam="2">  1        1 0.13350923E-01 0.13048881E+03</pdfrwt>
<pdfrwt beam="1">  1       -1 0.24084770E-01 0.13048881E+03</pdfrwt>
<totfact> 0.61074633E+03</totfact>
</mgrwt>
</event>
<event>
 6    1  0.1190675E-005  0.1318192E+03  0.7546771E-02  0.1237950E+00
         -1   -1    0    0    0  501 -0.00000000000E+00  0.00000000000E+00  0.60100311840E+03  0.60100311840E+03  0.00000000000E+00 0. -1.
          1   -1    0    0  501    0  0.00000000000E+00 -0.00000000000E+00 -0.22951669844E+02  0.22951669844E+02  0.00000000000E+00 0.  1.
          5    1    1    2  502    0 -0.23425568460E+02 -0.70226317428E+02  0.34157663694E+03  0.34953852695E+03  0.47000000000E+01 0.  1.
         -5    1    1    2    0  502  0.42576882971E+01  0.33035888566E+02  0.31284548496E+02  0.45938119439E+02  0.47000000000E+01 0.  1.
        -11    1    1    2    0    0  0.40441843652E+02  0.58013473937E+02  0.14311649084E+03  0.15963532136E+03  0.00000000000E+00 0. -1.
         11    1    1    2    0    0 -0.21273963489E+02 -0.20823045075E+02  0.62073772271E+02  0.68842820488E+02  0.00000000000E+00 0.  1.
<mgrwt>
<rscale>  0 0.12317430E+03</rscale>
<asrwt>0</asrwt>
<pdfrwt beam="2">  1        1 0.35310266E-02 0.13181925E+03</pdfrwt>
<pdfrwt beam="1">  1       -1 0.92462006E-01 0.13181925E+03</pdfrwt>
<totfact> 0.31203006E+03</totfact>
</mgrwt>
</event>
<event>
 6    1  0.1190675E-005  0.1528006E+03  0.7546771E-02  0.1205848E+00
          1   -1    0    0  501    0  0.00000000000E+00  0.00000000000E+00  0.87358275231E+03  0.87358275231E+03  0.00000000000E+00 0. -1.
         -1   -1    0    0    0  501 -0.00000000000E+00 -0.00000000000E+00 -0.22303748631E+02  0.22303748631E+02  0.00000000000E+00 0.  1.
          5    1    1    2  502    0 -0.13225838653E+02 -0.30688325794E+02  0.10548970831E+03  0.11075587889E+03  0.47000000000E+01 0. -1.
         -5    1    1    2    0  502  0.79257226769E+02  0.88677540720E+02  0.35462310937E+03  0.37406557436E+03  0.47000000000E+01 0. -1.
        -11    1    1    2    0    0  0.21750970385E+02 -0.10548310379E+02  0.48872550423E+02  0.54524285868E+02  0.00000000000E+00 0.  1.
         11    1    1    2    0    0 -0.87782358502E+02 -0.47440904547E+02  0.34229363558E+03  0.35654076183E+03  0.00000000000E+00 0. -1.
<mgrwt>
<rscale>  0 0.14570849E+03</rscale>
<asrwt>0</asrwt>
<pdfrwt beam="1">  1        1 0.13439732E+00 0.15280064E+03</pdfrwt>
<pdfrwt beam="2">  1       -1 0.34313466E-02 0.15280064E+03</pdfrwt>
<totfact> 0.60448156E+03</totfact>
</mgrwt>
</event>
<event>
 6    1  0.1190675E-005  0.1687808E+03  0.7546771E-02  0.1185607E+00
          3   -1    0    0  501    0  0.00000000000E+00  0.00000000000E+00  0.18909563627E+03  0.18909563627E+03  0.00000000000E+00 0. -1.
         -3   -1    0    0    0  501 -0.00000000000E+00 -0.00000000000E+00 -0.16903627933E+03  0.16903627933E+03  0.00000000000E+00 0.  1.
          5    1    1    2  502    0 -0.31957489827E+02 -0.53556734449E+02  0.11006244960E+03  0.12659161810E+03  0.47000000000E+01 0.  1.
         -5    1    1    2    0  502  0.26819480384E+02 -0.59738733992E+02 -0.14685349985E+02  0.67273697469E+02  0.47000000000E+01 0.  1.
        -11    1    1    2    0    0 -0.61641432901E+01  0.96179480795E+02 -0.11292417694E+02  0.97036116400E+02  0.00000000000E+00 0. -1.
         11    1    1    2    0    0  0.11302152734E+02  0.17115987646E+02 -0.64025324989E+02  0.67230483632E+02  0.00000000000E+00 0.  1.
<mgrwt>
<rscale>  0 0.16276731E+03</rscale>
<asrwt>0</asrwt>
<pdfrwt beam="1">  1        3 0.29091637E-01 0.16878083E+03</pdfrwt>
<pdfrwt beam="2">  1       -3 0.26005581E-01 0.16878083E+03</pdfrwt>
<totfact> 0.38019714E+02</totfact>
</mgrwt>
</event>
<event>
 6    1  0.1190675E-005  0.1319537E+03  0.7546771E-02  0.1238021E+00
          1   -1    0    0  501    0  0.00000000000E+00  0.00000000000E+00  0.48865562882E+03  0.48865562882E+03  0.00000000000E+00 0. -1.
         -1   -1    0    0    0  501 -0.00000000000E+00 -0.00000000000E+00 -0.28314154029E+02  0.28314154029E+02  0.00000000000E+00 0.  1.
          5    1    1    2  502    0  0.13498866665E+02  0.24014621901E+02  0.24375795133E+03  0.24535474379E+03  0.47000000000E+01 0.  1.
         -5    1    1    2    0  502  0.75016646953E+01 -0.60618423922E+02  0.59649319750E+02  0.85504383739E+02  0.47000000000E+01 0.  1.
        -11    1    1    2    0    0 -0.93950565939E+01  0.60731358021E+02  0.14360690117E+03  0.15620341545E+03  0.00000000000E+00 0.  1.
         11    1    1    2    0    0 -0.11605474767E+02 -0.24127556001E+02  0.13327302540E+02  0.29907239861E+02  0.00000000000E+00 0. -1.
<mgrwt>
<rscale>  0 0.12313009E+03</rscale>
<asrwt>0</asrwt>
<pdfrwt beam="1">  1        1 0.75177783E-01 0.13195374E+03</pdfrwt>
<pdfrwt beam="2">  1       -1 0.43560240E-02 0.13195374E+03</pdfrwt>
<totfact> 0.95847931E+03</totfact>
</mgrwt>
</event>
<event>
 6    1  0.1190675E-005  0.1332541E+03  0.7546771E-02  0.1233794E+00
         -2   -1    0    0    0  501 -0.00000000000E+00  0.00000000000E+00  0.13008761775E+03  0.13008761775E+03  0.00000000000E+00 0.  1.
          2   -1    0    0  501    0  0.00000000000E+00 -0.00000000000E+00 -0.25820325142E+03  0.25820325142E+03  0.00000000000E+00 0. -1.
          5    1    1    2  502    0 -0.41742431896E+02  0.40653932906E+02 -0.11208631053E+03  0.12641441330E+03  0.47000000000E+01 0. -1.
         -5    1    1    2    0  502  0.86823517886E+01 -0.72877012875E+02 -0.10180262582E+03  0.12558784520E+03  0.47000000000E+01 0. -1.
        -11    1    1    2    0    0  0.59095302130E+00 -0.32914687951E+02  0.30762438497E+02  0.45056115352E+02  0.00000000000E+00 0.  1.
         11    1    1    2    0    0  0.32469127086E+02  0.65137767920E+02  0.55010864184E+02  0.91232495316E+02  0.00000000000E+00 0. -1.
<mgrwt>
<rscale>  0 0.12581940E+03</rscale>
<asrwt>0</asrwt>
<pdfrwt beam="2">  1        2 0.39723577E-01 0.13325412E+03</pdfrwt>
<pdfrwt beam="1">  1       -2 0.20013480E-01 0.13325412E+03</pdfrwt>
<totfact> 0.26208019E+03</totfact>
</mgrwt>
</event>
<event>
 6    1  0.1190675E-005  0.1116135E+03  0.7546771E-02  0.1272400E+00
         -1   -1    0    0    0  501 -0.00000000000E+00  0.00000000000E+00  0.28467291642E+02  0.28467291642E+02  0.00000000000E+00 0.  1.
          1   -1    0    0  501    0  0.00000000000E+00 -0.00000000000E+00 -0.41633232553E+03  0.41633232553E+03  0.00000000000E+00 0. -1.
          5    1    1    2  502    0 -0.82741192058E+01 -0.46928038567E+02 -0.24037984268E+03  0.24510255123E+03  0.47000000000E+01 0. -1.
         -5    1    1    2    0  502 -0.19523639166E+01  0.48171554154E+02 -0.73455107835E+02  0.87988938063E+02  0.47000000000E+01 0.  1.
        -11    1    1    2    0    0  0.37044076318E+02  0.14396396317E+02 -0.10669114085E+02  0.41150331864E+02  0.00000000000E+00 0.  1.
         11    1    1    2    0    0 -0.26817593195E+02 -0.15639911905E+02 -0.63360969279E+02  0.70557796006E+02  0.00000000000E+00 0. -1.
<mgrwt>
<rscale>  0 0.10385111E+03</rscale>
<asrwt>0</asrwt>
<pdfrwt beam="2">  1        1 0.64051127E-01 0.11161346E+03</pdfrwt>
<pdfrwt beam="1">  1       -1 0.43795833E-02 0.11161346E+03</pdfrwt>
<totfact> 0.11519160E+04</totfact>
</mgrwt>
</event>
<event>
 6    1  0.1190675E-005  0.2099472E+03  0.7546771E-02  0.1145353E+00
          1   -1    0    0  501    0  0.00000000000E+00  0.00000000000E+00  0.86218077767E+03  0.86218077767E+03  0.00000000000E+00 0.  1.
         -1   -1    0    0    0  501 -0.00000000000E+00 -0.00000000000E+00 -0.46869763987E+02  0.46869763987E+02  0.00000000000E+00 0. -1.
          5    1    1    2  502    0 -0.14406371935E+03 -0.11253462920E+03  0.34755507651E+03  0.39272766545E+03  0.47000000000E+01 0.  1.
         -5    1    1    2    0  502  0.20503452732E+02 -0.23105431589E+01  0.91868524349E+02  0.94274312247E+02  0.47000000000E+01 0.  1.
        -11    1    1    2    0    0  0.22992330440E+02 -0.13952503820E+02  0.36172772393E+02  0.45075371152E+02  0.00000000000E+00 0.  1.
         11    1    1    2    0    0  0.10056793617E+03  0.12879767617E+03  0.33971464043E+03  0.37697319281E+03  0.00000000000E+00 0. -1.
<mgrwt>
<rscale>  0 0.20528780E+03</rscale>
<asrwt>0</asrwt>
<pdfrwt beam="1">  1        1 0.13264319E+00 0.20994720E+03</pdfrwt>
<pdfrwt beam="2">  1       -1 0.72107335E-02 0.20994720E+03</pdfrwt>
<totfact> 0.20595831E+03</totfact>
</mgrwt>
</event>
<event>
 6    1  0.1190675E-005  0.1314151E+03  0.7546771E-02  0.1238083E+00
         -3   -1    0    0    0  501 -0.00000000000E+00  0.00000000000E+00  0.53325436718E+02  0.53325436718E+02  0.00000000000E+00 0.  1.
          3   -1    0    0  501    0  0.00000000000E+00 -0.00000000000E+00 -0.32403136227E+03  0.32403136227E+03  0.00000000000E+00 0. -1.
          5    1    1    2  502    0  0.46735016306E+02 -0.31215399784E+02 -0.11531063290E+03  0.12836352672E+03  0.47000000000E+01 0.  1.
         -5    1    1    2    0  502 -0.74221802598E+02  0.13986688083E+01 -0.12122599111E+03  0.14222750499E+03  0.47000000000E+01 0.  1.
        -11    1    1    2    0    0  0.12600204971E+02  0.18826601165E+02  0.31352899311E+02  0.38680878635E+02  0.00000000000E+00 0.  1.
         11    1    1    2    0    0  0.14886581320E+02  0.10990129811E+02 -0.65522200843E+02  0.68084888632E+02  0.00000000000E+00 0. -1.
<mgrwt>
<rscale>  0 0.12309086E+03</rscale>
<asrwt>0</asrwt>
<pdfrwt beam="2">  1        3 0.49850980E-01 0.13141511E+03</pdfrwt>
<pdfrwt beam="1">  1       -3 0.82039132E-02 0.13141511E+03</pdfrwt>
<totfact> 0.94499852E+02</totfact>
</mgrwt>
</event>
<event>
 6    1  0.1190675E-005  0.1253209E+03  0.7546771E-02  0.1250945E+00
         -1   -1    0    0    0  501 -0.00000000000E+00  0.00000000000E+00  0.27823931248E+02  0.27823931248E+02  0.00000000000E+00 0.  1.
          1   -1    0    0  501    0  0.00000000000E+00 -0.00000000000E+00 -0.41735215762E+03  0.41735215762E+03  0.00000000000E+00 0. -1.
          5    1    1    2  502    0  0.55673886163E+02 -0.35550902873E+02 -0.14475332167E+03  0.15918248154E+03  0.47000000000E+01 0. -1.
         -5    1    1    2    0  502 -0.50102363590E+02  0.28516455542E+02 -0.91424640763E+02  0.10818498053E+03  0.47000000000E+01 0. -1.
        -11    1    1    2    0    0  0.96318449311E+01  0.41939067695E+02 -0.42003037483E+02  0.60132462063E+02  0.00000000000E+00 0.  1.
         11    1    1    2    0    0 -0.15203367504E+02 -0.34904620364E+02 -0.11134722646E+03  0.11767616474E+03  0.00000000000E+00 0. -1.
<mgrwt>
<rscale>  0 0.11536541E+03</rscale>
<asrwt>0</asrwt>
<pdfrwt beam="2">  1        1 0.64208026E-01 0.12532091E+03</pdfrwt>
<pdfrwt beam="1">  1       -1 0.42806047E-02 0.12532091E+03</pdfrwt>
<totfact> 0.11985671E+04</totfact>
</mgrwt>
</event>
<event>
 6    1  0.1190675E-005  0.1269410E+03  0.7546771E-02  0.1247131E+00
         -2   -1    0    0    0  501 -0.00000000000E+00  0.00000000000E+00  0.23572931528E+02  0.23572931528E+02  0.00000000000E+00 0. -1.
          2   -1    0    0  501    0  0.00000000000E+00 -0.00000000000E+00 -0.58119443411E+03  0.58119443411E+03  0.00000000000E+00 0.  1.
          5    1    1    2  502    0 -0.87779297879E+01 -0.25963279737E+02 -0.15176613917E+02  0.31679071263E+02  0.47000000000E+01 0.  1.
         -5    1    1    2    0  502  0.30358437860E+02  0.31256431315E+02 -0.40203681795E+03  0.40441846179E+03  0.47000000000E+01 0.  1.
        -11    1    1    2    0    0 -0.28860537848E+02  0.17820665706E+02 -0.90644962089E+01  0.35109426977E+02  0.00000000000E+00 0. -1.
         11    1    1    2    0    0  0.72800297758E+01 -0.23113817285E+02 -0.13134357450E+03  0.13356040561E+03  0.00000000000E+00 0.  1.
<mgrwt>
<rscale>  0 0.11758712E+03</rscale>
<asrwt>0</asrwt>
<pdfrwt beam="2">  1        2 0.89414535E-01 0.12694097E+03</pdfrwt>
<pdfrwt beam="1">  1       -2 0.36266046E-02 0.12694097E+03</pdfrwt>
<totfact> 0.15719093E+04</totfact>
</mgrwt>
</event>
<event>
 6    1  0.1190675E-005  0.1581628E+03  0.7546771E-02  0.1198595E+00
          1   -1    0    0  501    0  0.00000000000E+00  0.00000000000E+00  0.94083046905E+03  0.94083046905E+03  0.00000000000E+00 0. -1.
         -1   -1    0    0    0  501 -0.00000000000E+00 -0.00000000000E+00 -0.24890236716E+02  0.24890236716E+02  0.00000000000E+00 0.  1.
          5    1    1    2  502    0 -0.22084522171E+02  0.92734191340E+02  0.29943526904E+03  0.31427842228E+03  0.47000000000E+01 0. -1.
         -5    1    1    2    0  502  0.54731522467E+02 -0.15081596525E+01  0.34089202792E+03  0.34529303323E+03  0.47000000000E+01 0. -1.
        -11    1    1    2    0    0 -0.51960173927E+02 -0.33200593924E+02  0.19775416362E+03  0.20714451077E+03  0.00000000000E+00 0. -1.
         11    1    1    2    0    0  0.19313173631E+02 -0.58025437763E+02  0.77858771743E+02  0.99004739485E+02  0.00000000000E+00 0.  1.
<mgrwt>
<rscale>  0 0.15153866E+03</rscale>
<asrwt>0</asrwt>
<pdfrwt beam="1">  1        1 0.14474312E+00 0.15816276E+03</pdfrwt>
<pdfrwt beam="2">  1       -1 0.38292679E-02 0.15816276E+03</pdfrwt>
<totfact> 0.45733958E+03</totfact>
</mgrwt>
</event>
<event>
 6    1  0.1190675E-005  0.2013485E+03  0.7546771E-02  0.1154272E+00
          2   -1    0    0  501    0  0.00000000000E+00  0.00000000000E+00  0.78104461268E+03  0.78104461268E+03  0.00000000000E+00 0. -1.
         -2   -1    0    0    0  501 -0.00000000000E+00 -0.00000000000E+00 -0.45818985121E+02  0.45818985121E+02  0.00000000000E+00 0.  1.
          5    1    1    2  502    0 -0.41183613765E+02 -0.38446723627E+01  0.21867936107E+03  0.22260643411E+03  0.47000000000E+01 0.  1.
         -5    1    1    2    0  502 -0.81315386260E+01 -0.10996777051E+03  0.15263757372E+03  0.18835963310E+03  0.47000000000E+01 0.  1.
        -11    1    1    2    0    0 -0.67248465598E+01 -0.28943119833E+02  0.12041220232E+02  0.32061171713E+02  0.00000000000E+00 0.  1.
         11    1    1    2    0    0  0.56039998951E+02  0.14275556271E+03  0.35186747253E+03  0.38383635887E+03  0.00000000000E+00 0. -1.
<mgrwt>
<rscale>  0 0.19472020E+03</rscale>
<asrwt>0</asrwt>
<pdfrwt beam="1">  1        2 0.12016070E+00 0.20134850E+03</pdfrwt>
<pdfrwt beam="2">  1       -2 0.70490752E-02 0.20134850E+03</pdfrwt>
<totfact> 0.41672243E+03</totfact>
</mgrwt>
</event>
<event>
 6    1  0.1190675E-005  0.1314440E+03  0.7546771E-02  0.1239167E+00
          2   -1    0    0  501    0  0.00000000000E+00  0.00000000000E+00  0.44860907266E+03  0.44860907266E+03  0.00000000000E+00 0. -1.
         -2   -1    0    0    0  501 -0.00000000000E+00 -0.00000000000E+00 -0.30770268778E+02  0.30770268778E+02  0.00000000000E+00 0.  1.
          5    1    1    2  502    0  0.14067639151E+02 -0.55532472425E+02  0.16254936386E+03  0.17241270155E+03  0.47000000000E+01 0.  1.
         -5    1    1    2    0  502 -0.53559360652E+02  0.45954760940E+02  0.12177527747E+03  0.14082525828E+03  0.47000000000E+01 0.  1.
        -11    1    1    2    0    0  0.32347789577E+02 -0.13420757930E+01  0.14511410582E+03  0.14868182258E+03  0.00000000000E+00 0. -1.
         11    1    1    2    0    0  0.71439319240E+01  0.10919787278E+02 -0.11599943269E+02  0.17459559026E+02  0.00000000000E+00 0.  1.
<mgrwt>
<rscale>  0 0.12241392E+03</rscale>
<asrwt>0</asrwt>
<pdfrwt beam="1">  1        2 0.69016775E-01 0.13144397E+03</pdfrwt>
<pdfrwt beam="2">  1       -2 0.47338878E-02 0.13144397E+03</pdfrwt>
<totfact> 0.14106708E+04</totfact>
</mgrwt>
</event>
<event>
 6    1  0.1190675E-005  0.2398897E+03  0.7546771E-02  0.1123182E+00
          1   -1    0    0  501    0  0.00000000000E+00  0.00000000000E+00  0.10911004274E+04  0.10911004274E+04  0.00000000000E+00 0. -1.
         -1   -1    0    0    0  501 -0.00000000000E+00 -0.00000000000E+00 -0.61612019382E+02  0.61612019382E+02  0.00000000000E+00 0.  1.
          5    1    1    2  502    0 -0.30931518466E+02  0.64153060148E+02  0.27069678198E+03  0.27994858766E+03  0.47000000000E+01 0.  1.
         -5    1    1    2    0  502 -0.16714878229E+03 -0.12319164648E+02  0.52513065628E+03  0.55124837724E+03  0.47000000000E+01 0.  1.
        -11    1    1    2    0    0  0.72050303757E+02 -0.57522757550E+02  0.75254793294E+02  0.11901007445E+03  0.00000000000E+00 0.  1.
         11    1    1    2    0    0  0.12602999700E+03  0.56888620498E+01  0.15840617646E+03  0.20250540743E+03  0.00000000000E+00 0. -1.
<mgrwt>
<rscale>  0 0.23498121E+03</rscale>
<asrwt>0</asrwt>
<pdfrwt beam="1">  1        1 0.16786159E+00 0.23988973E+03</pdfrwt>
<pdfrwt beam="2">  1       -1 0.94787730E-02 0.23988973E+03</pdfrwt>
<totfact> 0.91016240E+02</totfact>
</mgrwt>
</event>
<event>
 6    1  0.1190675E-005  0.1300894E+03  0.7546771E-02  0.1241181E+00
         -1   -1    0    0    0  501 -0.00000000000E+00  0.00000000000E+00  0.25816882139E+02  0.25816882139E+02  0.00000000000E+00 0.  1.
          1   -1    0    0  501    0  0.00000000000E+00 -0.00000000000E+00 -0.53253570388E+03  0.53253570388E+03  0.00000000000E+00 0. -1.
          5    1    1    2  502    0 -0.31384920957E+01  0.26213488090E+02 -0.11672027589E+02  0.29245911141E+02  0.47000000000E+01 0. -1.
         -5    1    1    2    0  502  0.53344685125E+01 -0.62160285411E+02 -0.34016283685E+03  0.34586876588E+03  0.47000000000E+01 0. -1.
        -11    1    1    2    0    0 -0.11493707491E+02  0.65412901272E+02 -0.11480187681E+03  0.13262889536E+03  0.00000000000E+00 0.  1.
         11    1    1    2    0    0  0.92977310744E+01 -0.29466103951E+02 -0.40082080491E+02  0.50609013641E+02  0.00000000000E+00 0. -1.
<mgrwt>
<rscale>  0 0.12116921E+03</rscale>
<asrwt>0</asrwt>
<pdfrwt beam="2">  1        1 0.81928576E-01 0.13008939E+03</pdfrwt>
<pdfrwt beam="1">  1       -1 0.39718277E-02 0.13008939E+03</pdfrwt>
<totfact> 0.97993378E+03</totfact>
</mgrwt>
</event>
<event>
 6    1  0.1190675E-005  0.1258178E+03  0.7546771E-02  0.1247972E+00
         -2   -1    0    0    0  501 -0.00000000000E+00  0.00000000000E+00  0.72383416121E+02  0.72383416121E+02  0.00000000000E+00 0.  1.
          2   -1    0    0  501    0  0.00000000000E+00 -0.00000000000E+00 -0.39684804237E+03  0.39684804237E+03  0.00000000000E+00 0. -1.
          5    1    1    2  502    0  0.20274824033E+02  0.60758357837E+02 -0.13506228759E+03  0.14955453208E+03  0.47000000000E+01 0. -1.
         -5    1    1    2    0  502 -0.66616087493E+01 -0.56475939672E+02 -0.21454494647E+03  0.22200345233E+03  0.47000000000E+01 0. -1.
        -11    1    1    2    0    0 -0.38801667567E+02  0.19328995735E+02  0.41012625204E+02  0.59675915646E+02  0.00000000000E+00 0.  1.
         11    1    1    2    0    0  0.25188452283E+02 -0.23611413900E+02 -0.15870017398E+02  0.37997558435E+02  0.00000000000E+00 0. -1.
<mgrwt>
<rscale>  0 0.11709243E+03</rscale>
<asrwt>0</asrwt>
<pdfrwt beam="2">  1        2 0.61053545E-01 0.12581780E+03</pdfrwt>
<pdfrwt beam="1">  1       -2 0.11135910E-01 0.12581780E+03</pdfrwt>
<totfact> 0.43164515E+03</totfact>
</mgrwt>
</event>
<event>
 6    1  0.1190675E-005  0.1641082E+03  0.7546771E-02  0.1191372E+00
          1   -1    0    0  501    0  0.00000000000E+00  0.00000000000E+00  0.32478034037E+02  0.32478034037E+02  0.00000000000E+00 0. -1.
         -1   -1    0    0    0  501 -0.00000000000E+00 -0.00000000000E+00 -0.71123510548E+03  0.71123510548E+03  0.00000000000E+00 0.  1.
          5    1    1    2  502    0  0.94931830633E+01  0.10878659007E+02  0.16321858676E+00  0.15184939472E+02  0.47000000000E+01 0. -1.
         -5    1    1    2    0  502 -0.87439415622E+02 -0.83202512117E+02 -0.37579365510E+03  0.39472936379E+03  0.47000000000E+01 0. -1.
        -11    1    1    2    0    0 -0.77980888411E+01 -0.15005130335E+02 -0.28565119425E+02  0.33195333613E+02  0.00000000000E+00 0. -1.
         11    1    1    2    0    0  0.85744321400E+02  0.87328983444E+02 -0.27456151550E+03  0.30060350264E+03  0.00000000000E+00 0.  1.
<mgrwt>
<rscale>  0 0.15765290E+03</rscale>
<asrwt>0</asrwt>
<pdfrwt beam="1">  1        1 0.49966212E-02 0.16410823E+03</pdfrwt>
<pdfrwt beam="2">  1       -1 0.10942077E+00 0.16410823E+03</pdfrwt>
<totfact> 0.13472729E+03</totfact>
</mgrwt>
</event>
<event>
 6    1  0.1190675E-005  0.1252950E+03  0.7546771E-02  0.1250164E+00
          2   -1    0    0  501    0  0.00000000000E+00  0.00000000000E+00  0.45652605910E+03  0.45652605910E+03  0.00000000000E+00 0. -1.
         -2   -1    0    0    0  501 -0.00000000000E+00 -0.00000000000E+00 -0.29689186089E+02  0.29689186089E+02  0.00000000000E+00 0.  1.
          5    1    1    2  502    0  0.15728735616E+02 -0.54376102118E+02  0.19444568786E+03  0.20257188633E+03  0.47000000000E+01 0.  1.
         -5    1    1    2    0  502 -0.14233983498E+02  0.63448955906E+02  0.13566836965E+03  0.15052034020E+03  0.47000000000E+01 0.  1.
        -11    1    1    2    0    0 -0.20552087255E+02 -0.65238599247E+01 -0.10645062811E+02  0.24047170335E+02  0.00000000000E+00 0.  1.
         11    1    1    2    0    0  0.19057335137E+02 -0.25489938639E+01  0.10736787831E+03  0.10907584831E+03  0.00000000000E+00 0. -1.
<mgrwt>
<rscale>  0 0.11581579E+03</rscale>
<asrwt>0</asrwt>
<pdfrwt beam="1">  1        2 0.70234773E-01 0.12529497E+03</pdfrwt>
<pdfrwt beam="2">  1       -2 0.45675674E-02 0.12529497E+03</pdfrwt>
<totfact> 0.14545271E+04</totfact>
</mgrwt>
</event>
<event>
 6    1  0.1190675E-005  0.1386341E+03  0.7546771E-02  0.1226273E+00
          4   -1    0    0  501    0  0.00000000000E+00  0.00000000000E+00  0.18766418461E+02  0.18766418461E+02  0.00000000000E+00 0. -1.
         -4   -1    0    0    0  501 -0.00000000000E+00 -0.00000000000E+00 -0.87189623434E+03  0.87189623434E+03  0.00000000000E+00 0.  1.
          5    1    1    2  502    0 -0.79534288126E+01 -0.45949792450E+02 -0.25343385152E+03  0.25773134764E+03  0.47000000000E+01 0.  1.
         -5    1    1    2    0  502  0.65711799713E+02  0.29957401224E+02 -0.11450137370E+03  0.13545531030E+03  0.47000000000E+01 0.  1.
        -11    1    1    2    0    0 -0.13610846811E+02  0.51453988982E+02 -0.23790853851E+03  0.24378933699E+03  0.00000000000E+00 0.  1.
         11    1    1    2    0    0 -0.44147524089E+02 -0.35461597756E+02 -0.24728605215E+03  0.25368665788E+03  0.00000000000E+00 0. -1.
<mgrwt>
<rscale>  0 0.13080055E+03</rscale>
<asrwt>0</asrwt>
<pdfrwt beam="1">  1        4 0.28871414E-02 0.13863412E+03</pdfrwt>
<pdfrwt beam="2">  1       -4 0.13413788E+00 0.13863412E+03</pdfrwt>
<totfact> 0.40480365E+02</totfact>
</mgrwt>
</event>
<event>
 6    1  0.1190675E-005  0.1404252E+03  0.7546771E-02  0.1223869E+00
          2   -1    0    0  501    0  0.00000000000E+00  0.00000000000E+00  0.10317271650E+03  0.10317271650E+03  0.00000000000E+00 0. -1.
         -2   -1    0    0    0  501 -0.00000000000E+00 -0.00000000000E+00 -0.20939506582E+03  0.20939506582E+03  0.00000000000E+00 0.  1.
          5    1    1    2  502    0  0.36399895081E+02 -0.31807394601E+02 -0.16746888104E+02  0.51373251546E+02  0.47000000000E+01 0.  1.
         -5    1    1    2    0  502  0.37318263414E+01  0.81609884149E+02  0.39566867570E+02  0.90894041213E+02  0.47000000000E+01 0.  1.
        -11    1    1    2    0    0 -0.52769707475E+02 -0.87047512677E+01 -0.11187733071E+03  0.12400383804E+03  0.00000000000E+00 0.  1.
         11    1    1    2    0    0  0.12637986052E+02 -0.41097738281E+02 -0.17164998074E+02  0.46296651522E+02  0.00000000000E+00 0. -1.
<mgrwt>
<rscale>  0 0.13244744E+03</rscale>
<asrwt>0</asrwt>
<pdfrwt beam="1">  1        2 0.15872726E-01 0.14042518E+03</pdfrwt>
<pdfrwt beam="2">  1       -2 0.32214625E-01 0.14042518E+03</pdfrwt>
<totfact> 0.31469462E+03</totfact>
</mgrwt>
</event>
<event>
 6    1  0.1190675E-005  0.1649407E+03  0.7546771E-02  0.1190407E+00
          2   -1    0    0  501    0  0.00000000000E+00  0.00000000000E+00  0.29380888280E+04  0.29380888280E+04  0.00000000000E+00 0. -1.
         -2   -1    0    0    0  501 -0.00000000000E+00 -0.00000000000E+00 -0.13929724883E+02  0.13929724883E+02  0.00000000000E+00 0.  1.
          5    1    1    2  502    0 -0.20792848715E+02  0.44362423269E+02  0.21073913816E+04  0.21079660558E+04  0.47000000000E+01 0. -1.
         -5    1    1    2    0  502 -0.47798458426E+02  0.38554836150E+02  0.38675666941E+03  0.39162990100E+03  0.47000000000E+01 0. -1.
        -11    1    1    2    0    0  0.30417685497E+02 -0.94919893756E+02  0.28197465769E+03  0.29907311715E+03  0.00000000000E+00 0.  1.
         11    1    1    2    0    0  0.38173621644E+02  0.12002634336E+02  0.14803639441E+03  0.15334947894E+03  0.00000000000E+00 0. -1.
<mgrwt>
<rscale>  0 0.15849486E+03</rscale>
<asrwt>0</asrwt>
<pdfrwt beam="1">  1        2 0.45201317E+00 0.16494074E+03</pdfrwt>
<pdfrwt beam="2">  1       -2 0.21430369E-02 0.16494074E+03</pdfrwt>
<totfact> 0.16108672E+03</totfact>
</mgrwt>
</event>
<event>
 6    1  0.1190675E-005  0.1430635E+03  0.7546771E-02  0.1219180E+00
         -2   -1    0    0    0  501 -0.00000000000E+00  0.00000000000E+00  0.14446182992E+03  0.14446182992E+03  0.00000000000E+00 0. -1.
          2   -1    0    0  501    0  0.00000000000E+00 -0.00000000000E+00 -0.12284427259E+03  0.12284427259E+03  0.00000000000E+00 0.  1.
          5    1    1    2  502    0  0.36653396150E+02 -0.15848675097E+02  0.38158151731E+01  0.40389384708E+02  0.47000000000E+01 0. -1.
         -5    1    1    2    0  502 -0.60457268949E+02  0.81230136416E+02 -0.23111763543E+02  0.10396951498E+03  0.47000000000E+01 0. -1.
        -11    1    1    2    0    0  0.54843582618E+02 -0.35269337362E+02  0.27392562183E+01  0.65262916246E+02  0.00000000000E+00 0.  1.
         11    1    1    2    0    0 -0.31039709818E+02 -0.30112123957E+02  0.38174249476E+02  0.57684286577E+02  0.00000000000E+00 0. -1.
<mgrwt>
<rscale>  0 0.13573910E+03</rscale>
<asrwt>0</asrwt>
<pdfrwt beam="2">  1        2 0.18899119E-01 0.14306348E+03</pdfrwt>
<pdfrwt beam="1">  1       -2 0.22224897E-01 0.14306348E+03</pdfrwt>
<totfact> 0.49660823E+03</totfact>
</mgrwt>
</event>
<event>
 6    1  0.1190675E-005  0.1423300E+03  0.7546771E-02  0.1219931E+00
          1   -1    0    0  501    0  0.00000000000E+00  0.00000000000E+00  0.88386245092E+03  0.88386245092E+03  0.00000000000E+00 0. -1.
         -1   -1    0    0    0  501 -0.00000000000E+00 -0.00000000000E+00 -0.19261129918E+02  0.19261129918E+02  0.00000000000E+00 0.  1.
          5    1    1    2  502    0  0.39035640131E+02  0.25243886294E+02  0.26186373774E+03  0.26599951530E+03  0.47000000000E+01 0.  1.
         -5    1    1    2    0  502  0.24635170035E+01 -0.79189063677E+02  0.14901577287E+03  0.16883354905E+03  0.47000000000E+01 0.  1.
        -11    1    1    2    0    0  0.11542112350E+02 -0.14034540880E+02  0.24552633994E+02  0.30545384779E+02  0.00000000000E+00 0.  1.
         11    1    1    2    0    0 -0.53041269485E+02  0.67979718263E+02  0.42916917640E+03  0.43774513171E+03  0.00000000000E+00 0. -1.
<mgrwt>
<rscale>  0 0.13520476E+03</rscale>
<asrwt>0</asrwt>
<pdfrwt beam="1">  1        1 0.13597881E+00 0.14232997E+03</pdfrwt>
<pdfrwt beam="2">  1       -1 0.29632514E-02 0.14232997E+03</pdfrwt>
<totfact> 0.73280527E+03</totfact>
</mgrwt>
</event>
<event>
 6    1  0.1190675E-005  0.1797447E+03  0.7546771E-02  0.1173454E+00
         -1   -1    0    0    0  501 -0.00000000000E+00  0.00000000000E+00  0.12137783339E+03  0.12137783339E+03  0.00000000000E+00 0.  1.
          1   -1    0    0  501    0  0.00000000000E+00 -0.00000000000E+00 -0.27261696076E+03  0.27261696076E+03  0.00000000000E+00 0. -1.
          5    1    1    2  502    0  0.47507284808E+02  0.10586091012E+02 -0.97688687904E+02  0.10924365967E+03  0.47000000000E+01 0.  1.
         -5    1    1    2    0  502  0.38479677968E+02 -0.10695397329E+03 -0.53884363888E+02  0.12587872215E+03  0.47000000000E+01 0.  1.
        -11    1    1    2    0    0 -0.30317367470E+02  0.98409043856E+02 -0.35093065107E+01  0.10303299430E+03  0.00000000000E+00 0.  1.
         11    1    1    2    0    0 -0.55669595305E+02 -0.20411615768E+01  0.38432309281E+01  0.55839418030E+02  0.00000000000E+00 0. -1.
<mgrwt>
<rscale>  0 0.17428254E+03</rscale>
<asrwt>0</asrwt>
<pdfrwt beam="2">  1        1 0.41941071E-01 0.17974466E+03</pdfrwt>
<pdfrwt beam="1">  1       -1 0.18673513E-01 0.17974466E+03</pdfrwt>
<totfact> 0.21990632E+03</totfact>
</mgrwt>
</event>
<event>
 6    1  0.1190675E-005  0.1376777E+03  0.7546771E-02  0.1229948E+00
         -1   -1    0    0    0  501 -0.00000000000E+00  0.00000000000E+00  0.19998717672E+03  0.19998717672E+03  0.00000000000E+00 0.  1.
          1   -1    0    0  501    0  0.00000000000E+00 -0.00000000000E+00 -0.80421985315E+02  0.80421985315E+02  0.00000000000E+00 0. -1.
          5    1    1    2  502    0  0.21774807390E-01 -0.61872959015E+02  0.25496781984E+01  0.62103577919E+02  0.47000000000E+01 0. -1.
         -5    1    1    2    0  502 -0.56203710040E+02  0.48686758106E+02  0.22534650408E+02  0.77840592920E+02  0.47000000000E+01 0. -1.
        -11    1    1    2    0    0  0.22629540596E+02 -0.30790904901E+02  0.70469856710E+02  0.80163437033E+02  0.00000000000E+00 0.  1.
         11    1    1    2    0    0  0.33552394637E+02  0.43977105809E+02  0.24011006090E+02  0.60301554165E+02  0.00000000000E+00 0. -1.
<mgrwt>
<rscale>  0 0.12833486E+03</rscale>
<asrwt>0</asrwt>
<pdfrwt beam="2">  1        1 0.12372613E-01 0.13767769E+03</pdfrwt>
<pdfrwt beam="1">  1       -1 0.30767258E-01 0.13767769E+03</pdfrwt>
<totfact> 0.45093313E+03</totfact>
</mgrwt>
</event>
<event>
 6    1  0.1190675E-005  0.1348608E+03  0.7546771E-02  0.1232949E+00
         -2   -1    0    0    0  501 -0.00000000000E+00  0.00000000000E+00  0.12115894135E+03  0.12115894135E+03  0.00000000000E+00 0.  1.
          2   -1    0    0  501    0  0.00000000000E+00 -0.00000000000E+00 -0.23986524535E+03  0.23986524535E+03  0.00000000000E+00 0. -1.
          5    1    1    2  502    0 -0.19323138169E+02 -0.41034848021E+02 -0.58319116337E+02  0.74030073289E+02  0.47000000000E+01 0. -1.
         -5    1    1    2    0  502  0.27116650344E+01  0.88854045803E+02 -0.13310146343E+03  0.16012646299E+03  0.47000000000E+01 0. -1.
        -11    1    1    2    0    0  0.17453083056E+01 -0.66992407471E+02  0.77163225677E+02  0.10220172287E+03  0.00000000000E+00 0.  1.
         11    1    1    2    0    0  0.14866164829E+02  0.19173209689E+02 -0.44489499052E+01  0.24665927547E+02  0.00000000000E+00 0. -1.
<mgrwt>
<rscale>  0 0.12636672E+03</rscale>
<asrwt>0</asrwt>
<pdfrwt beam="2">  1        2 0.36902345E-01 0.13486084E+03</pdfrwt>
<pdfrwt beam="1">  1       -2 0.18639837E-01 0.13486084E+03</pdfrwt>
<totfact> 0.31971645E+03</totfact>
</mgrwt>
</event>
<event>
 6    1  0.1190675E-005  0.1273171E+03  0.7546771E-02  0.1246259E+00
         -2   -1    0    0    0  501 -0.00000000000E+00  0.00000000000E+00  0.42781724996E+02  0.42781724996E+02  0.00000000000E+00 0.  1.
          2   -1    0    0  501    0  0.00000000000E+00 -0.00000000000E+00 -0.31020755799E+03  0.31020755799E+03  0.00000000000E+00 0. -1.
          5    1    1    2  502    0 -0.42105676953E+02 -0.37787114735E+02 -0.56191690477E+02  0.79877094028E+02  0.47000000000E+01 0. -1.
         -5    1    1    2    0  502  0.27465928513E+02  0.57072583346E+02 -0.14380731928E+03  0.15720779904E+03  0.47000000000E+01 0. -1.
        -11    1    1    2    0    0  0.34210356280E+02  0.92980617269E+01  0.48240711544E+01  0.35778123080E+02  0.00000000000E+00 0.  1.
         11    1    1    2    0    0 -0.19570607839E+02 -0.28583530339E+02 -0.72250894386E+02  0.80126266838E+02  0.00000000000E+00 0. -1.
<mgrwt>
<rscale>  0 0.11810334E+03</rscale>
<asrwt>0</asrwt>
<pdfrwt beam="2">  1        2 0.47724242E-01 0.12731709E+03</pdfrwt>
<pdfrwt beam="1">  1       -2 0.65818036E-02 0.12731709E+03</pdfrwt>
<totfact> 0.12675391E+04</totfact>
</mgrwt>
</event>
<event>
 6    1  0.1190675E-005  0.1465328E+03  0.7546771E-02  0.1221109E+00
          1   -1    0    0  501    0  0.00000000000E+00  0.00000000000E+00  0.27831657268E+02  0.27831657268E+02  0.00000000000E+00 0. -1.
         -1   -1    0    0    0  501 -0.00000000000E+00 -0.00000000000E+00 -0.63152912176E+03  0.63152912176E+03  0.00000000000E+00 0.  1.
          5    1    1    2  502    0  0.20564271326E+02 -0.10873049475E+03 -0.18596153424E+03  0.21644627962E+03  0.47000000000E+01 0. -1.
         -5    1    1    2    0  502 -0.13786388978E+02  0.32565382902E+02 -0.54091925227E+02  0.64796566725E+02  0.47000000000E+01 0. -1.
        -11    1    1    2    0    0 -0.30441014024E+02  0.34247291812E+02 -0.25782742308E+03  0.26186735655E+03  0.00000000000E+00 0.  1.
         11    1    1    2    0    0  0.23663131676E+02  0.41917820040E+02 -0.10581658194E+03  0.11625057613E+03  0.00000000000E+00 0. -1.
<mgrwt>
<rscale>  0 0.13437164E+03</rscale>
<asrwt>0</asrwt>
<pdfrwt beam="1">  1        1 0.42817938E-02 0.14653285E+03</pdfrwt>
<pdfrwt beam="2">  1       -1 0.97158318E-01 0.14653285E+03</pdfrwt>
<totfact> 0.21618887E+03</totfact>
</mgrwt>
</event>
<event>
 6    1  0.1190675E-005  0.2487415E+03  0.7546771E-02  0.1114103E+00
         -1   -1    0    0    0  501 -0.00000000000E+00  0.00000000000E+00  0.87232669913E+02  0.87232669913E+02  0.00000000000E+00 0.  1.
          1   -1    0    0  501    0  0.00000000000E+00 -0.00000000000E+00 -0.17731980970E+03  0.17731980970E+03  0.00000000000E+00 0. -1.
          5    1    1    2  502    0  0.15491601089E+02 -0.81997776987E+01  0.27168852186E+02  0.32672045968E+02  0.47000000000E+01 0. -1.
         -5    1    1    2    0  502 -0.45582616941E+02  0.56514325907E+02 -0.97438259688E+02  0.12160570896E+03  0.47000000000E+01 0. -1.
        -11    1    1    2    0    0  0.62398985606E+02 -0.31447343968E+02 -0.23312332429E+02  0.73661616128E+02  0.00000000000E+00 0. -1.
         11    1    1    2    0    0 -0.32307969753E+02 -0.16867204240E+02  0.34946001420E+01  0.36613108562E+02  0.00000000000E+00 0.  1.
<mgrwt>
<rscale>  0 0.24874148E+03</rscale>
<asrwt>0</asrwt>
<pdfrwt beam="2">  1        1 0.27279971E-01 0.24874148E+03</pdfrwt>
<pdfrwt beam="1">  1       -1 0.13420411E-01 0.24874148E+03</pdfrwt>
<totfact> 0.64758598E+03</totfact>
</mgrwt>
</event>
<event>
 6    1  0.1190675E-005  0.2989849E+03  0.7546771E-02  0.1085749E+00
         -1   -1    0    0    0  501 -0.00000000000E+00  0.00000000000E+00  0.25377046790E+03  0.25377046790E+03  0.00000000000E+00 0.  1.
          1   -1    0    0  501    0  0.00000000000E+00 -0.00000000000E+00 -0.88063781537E+02  0.88063781537E+02  0.00000000000E+00 0. -1.
          5    1    1    2  502    0  0.22422953543E+02 -0.14353597500E+01 -0.28353824069E+02  0.36481206703E+02  0.47000000000E+01 0.  1.
         -5    1    1    2    0  502  0.55412889336E+02  0.67995570335E+02  0.12177825163E+03  0.15015331651E+03  0.47000000000E+01 0.  1.
        -11    1    1    2    0    0 -0.47000348049E+02 -0.46483872093E+02 -0.82911786424E+01  0.66622268985E+02  0.00000000000E+00 0. -1.
         11    1    1    2    0    0 -0.30835494831E+02 -0.20076338492E+02  0.80573437447E+02  0.88577457237E+02  0.00000000000E+00 0.  1.
<mgrwt>
<rscale>  0 0.29898486E+03</rscale>
<asrwt>0</asrwt>
<pdfrwt beam="2">  1        1 0.13548274E-01 0.29898486E+03</pdfrwt>
<pdfrwt beam="1">  1       -1 0.39041610E-01 0.29898486E+03</pdfrwt>
<totfact> 0.27476572E+03</totfact>
</mgrwt>
</event>
<event>
 6    1  0.1190675E-005  0.2713366E+03  0.7546771E-02  0.1102522E+00
         -2   -1    0    0    0  501 -0.00000000000E+00  0.00000000000E+00  0.39590104320E+02  0.39590104320E+02  0.00000000000E+00 0.  1.
          2   -1    0    0  501    0  0.00000000000E+00 -0.00000000000E+00 -0.19621375285E+04  0.19621375285E+04  0.00000000000E+00 0. -1.
          5    1    1    2  502    0  0.18454490044E+03 -0.10092556999E+03 -0.12285453216E+04  0.12464302981E+04  0.47000000000E+01 0.  1.
         -5    1    1    2    0  502  0.37946532178E+02  0.88189534901E+01 -0.70832913286E+02  0.80975952292E+02  0.47000000000E+01 0.  1.
        -11    1    1    2    0    0 -0.67528687584E+02 -0.15082541648E+02 -0.16504218134E+03  0.17895957178E+03  0.00000000000E+00 0. -1.
         11    1    1    2    0    0 -0.15496274503E+03  0.10718915815E+03 -0.45812700798E+03  0.49536181061E+03  0.00000000000E+00 0.  1.
<mgrwt>
<rscale>  0 0.26784118E+03</rscale>
<asrwt>0</asrwt>
<pdfrwt beam="2">  1        2 0.30186726E+00 0.27133661E+03</pdfrwt>
<pdfrwt beam="1">  1       -2 0.60907863E-02 0.27133661E+03</pdfrwt>
<totfact> 0.11249666E+03</totfact>
</mgrwt>
</event>
<event>
 6    1  0.1190675E-005  0.1329961E+03  0.7546771E-02  0.1235615E+00
         -1   -1    0    0    0  501 -0.00000000000E+00  0.00000000000E+00  0.39429501891E+03  0.39429501891E+03  0.00000000000E+00 0.  1.
          1   -1    0    0  501    0  0.00000000000E+00 -0.00000000000E+00 -0.35607950345E+02  0.35607950345E+02  0.00000000000E+00 0. -1.
          5    1    1    2  502    0 -0.88060917940E+02 -0.67774057912E+01  0.10490102332E+03  0.13721141786E+03  0.47000000000E+01 0. -1.
         -5    1    1    2    0  502  0.42743314755E+02  0.39377564998E+01  0.74517789265E+02  0.86124838458E+02  0.47000000000E+01 0. -1.
        -11    1    1    2    0    0  0.73274709031E+01 -0.26682740073E+02  0.14470335711E+03  0.14732522529E+03  0.00000000000E+00 0.  1.
         11    1    1    2    0    0  0.37990132282E+02  0.29522389365E+02  0.34564898868E+02  0.59241487645E+02  0.00000000000E+00 0. -1.
<mgrwt>
<rscale>  0 0.12465128E+03</rscale>
<asrwt>0</asrwt>
<pdfrwt beam="2">  1        1 0.54781465E-02 0.13299614E+03</pdfrwt>
<pdfrwt beam="1">  1       -1 0.60660769E-01 0.13299614E+03</pdfrwt>
<totfact> 0.39926651E+03</totfact>
</mgrwt>
</event>
<event>
 6    1  0.1190675E-005  0.2748733E+03  0.7546771E-02  0.1098522E+00
          1   -1    0    0  501    0  0.00000000000E+00  0.00000000000E+00  0.22625897631E+03  0.22625897631E+03  0.00000000000E+00 0. -1.
         -1   -1    0    0    0  501 -0.00000000000E+00 -0.00000000000E+00 -0.83483234418E+02  0.83483234418E+02  0.00000000000E+00 0.  1.
          5    1    1    2  502    0 -0.10061707971E+03 -0.12570958279E+02  0.30479853247E+02  0.10598555173E+03  0.47000000000E+01 0. -1.
         -5    1    1    2    0  502  0.19203904509E+02  0.32536332864E+02  0.55626501680E+02  0.67407719097E+02  0.47000000000E+01 0. -1.
        -11    1    1    2    0    0  0.34207429623E+02 -0.14776153972E+02  0.76338049492E+02  0.84946929126E+02  0.00000000000E+00 0. -1.
         11    1    1    2    0    0  0.47205745574E+02 -0.51892206135E+01 -0.19668662532E+02  0.51402010774E+02  0.00000000000E+00 0.  1.
<mgrwt>
<rscale>  0 0.27487329E+03</rscale>
<asrwt>0</asrwt>
<pdfrwt beam="1">  1        1 0.34809073E-01 0.27487329E+03</pdfrwt>
<pdfrwt beam="2">  1       -1 0.12843575E-01 0.27487329E+03</pdfrwt>
<totfact> 0.51227978E+03</totfact>
</mgrwt>
</event>
<event>
 6    1  0.1190675E-005  0.1271292E+03  0.7546771E-02  0.1245255E+00
         -1   -1    0    0    0  501 -0.00000000000E+00  0.00000000000E+00  0.27015269217E+03  0.27015269217E+03  0.00000000000E+00 0.  1.
          1   -1    0    0  501    0  0.00000000000E+00 -0.00000000000E+00 -0.47127772658E+02  0.47127772658E+02  0.00000000000E+00 0. -1.
          5    1    1    2  502    0 -0.15998544104E+02  0.31790300589E+02 -0.18033381808E+02  0.40172994467E+02  0.47000000000E+01 0.  1.
         -5    1    1    2    0  502  0.15158036465E+02 -0.86586687198E+01  0.12405035237E+03  0.12536075357E+03  0.47000000000E+01 0.  1.
        -11    1    1    2    0    0  0.84822638703E+01 -0.37933589151E+02  0.12666277496E+03  0.13249288489E+03  0.00000000000E+00 0.  1.
         11    1    1    2    0    0 -0.76417562315E+01  0.14801957282E+02 -0.96548260053E+01  0.19253831901E+02  0.00000000000E+00 0. -1.
<mgrwt>
<rscale>  0 0.11870122E+03</rscale>
<asrwt>0</asrwt>
<pdfrwt beam="2">  1        1 0.72504267E-02 0.12712916E+03</pdfrwt>
<pdfrwt beam="1">  1       -1 0.41561952E-01 0.12712916E+03</pdfrwt>
<totfact> 0.54357142E+03</totfact>
</mgrwt>
</event>
<event>
 6    1  0.1190675E-005  0.1329996E+03  0.7546771E-02  0.1235882E+00
          1   -1    0    0  501    0  0.00000000000E+00  0.00000000000E+00  0.17706587184E+03  0.17706587184E+03  0.00000000000E+00 0. -1.
         -1   -1    0    0    0  501 -0.00000000000E+00 -0.00000000000E+00 -0.78812683335E+02  0.78812683335E+02  0.00000000000E+00 0.  1.
          5    1    1    2  502    0  0.39748868464E+02 -0.19066968008E+02  0.37562973199E+02  0.58108422529E+02  0.47000000000E+01 0.  1.
         -5    1    1    2    0  502 -0.84856400053E+02  0.13673654850E+02  0.30730250341E+02  0.91400304993E+02  0.47000000000E+01 0.  1.
        -11    1    1    2    0    0  0.56307360541E+01 -0.12601817224E+02  0.54708327290E+02  0.56422620116E+02  0.00000000000E+00 0. -1.
         11    1    1    2    0    0  0.39476795534E+02  0.17995130383E+02 -0.24748362324E+02  0.49947207538E+02  0.00000000000E+00 0.  1.
<mgrwt>
<rscale>  0 0.12448164E+03</rscale>
<asrwt>0</asrwt>
<pdfrwt beam="1">  1        1 0.27240903E-01 0.13299961E+03</pdfrwt>
<pdfrwt beam="2">  1       -1 0.12125028E-01 0.13299961E+03</pdfrwt>
<totfact> 0.73109583E+03</totfact>
</mgrwt>
</event>
<event>
 6    1  0.1190675E-005  0.2749380E+03  0.7546771E-02  0.1136918E+00
          2   -1    0    0  501    0  0.00000000000E+00  0.00000000000E+00  0.81546822314E+03  0.81546822314E+03  0.00000000000E+00 0. -1.
         -2   -1    0    0    0  501 -0.00000000000E+00 -0.00000000000E+00 -0.46516092955E+02  0.46516092955E+02  0.00000000000E+00 0.  1.
          5    1    1    2  502    0  0.63216883336E+02 -0.66773027341E+02  0.47310269244E+03  0.48197848407E+03  0.47000000000E+01 0. -1.
         -5    1    1    2    0  502 -0.51581220795E+02  0.14966125769E+02 -0.11661935016E+02  0.55160656156E+02  0.47000000000E+01 0.  1.
        -11    1    1    2    0    0 -0.39012453041E+02  0.29046599461E+02  0.26485347031E+03  0.26928244868E+03  0.00000000000E+00 0. -1.
         11    1    1    2    0    0  0.27376790500E+02  0.22760302111E+02  0.42657902447E+02  0.55562727178E+02  0.00000000000E+00 0.  1.
<mgrwt>
<rscale>  0 0.21597726E+03</rscale>
<asrwt>0</asrwt>
<pdfrwt beam="1">  1        2 0.12545664E+00 0.27493796E+03</pdfrwt>
<pdfrwt beam="2">  1       -2 0.71563226E-02 0.27493796E+03</pdfrwt>
<totfact> 0.38870764E+03</totfact>
</mgrwt>
</event>
<event>
 6    1  0.1190675E-005  0.3487512E+03  0.7546771E-02  0.1063129E+00
         -2   -1    0    0    0  501 -0.00000000000E+00  0.00000000000E+00  0.33105194618E+02  0.33105194618E+02  0.00000000000E+00 0.  1.
          2   -1    0    0  501    0  0.00000000000E+00 -0.00000000000E+00 -0.91849167065E+03  0.91849167065E+03  0.00000000000E+00 0. -1.
          5    1    1    2  502    0 -0.38195952438E+02 -0.28526966826E+01 -0.44036169449E+02  0.58552052745E+02  0.47000000000E+01 0.  1.
         -5    1    1    2    0  502 -0.85857921876E+01 -0.11930566036E+03 -0.52874594223E+03  0.54212721555E+03  0.47000000000E+01 0.  1.
        -11    1    1    2    0    0  0.64151083525E+02  0.48395022718E+02 -0.12518331856E+03  0.14875585026E+03  0.00000000000E+00 0.  1.
         11    1    1    2    0    0 -0.17369338900E+02  0.73763334324E+02 -0.18742104580E+03  0.20216174671E+03  0.00000000000E+00 0. -1.
<mgrwt>
<rscale>  0 0.34875117E+03</rscale>
<asrwt>0</asrwt>
<pdfrwt beam="2">  1        2 0.14130638E+00 0.34875117E+03</pdfrwt>
<pdfrwt beam="1">  1       -2 0.50931080E-02 0.34875117E+03</pdfrwt>
<totfact> 0.56490261E+03</totfact>
</mgrwt>
</event>
<event>
 6    1  0.1190675E-005  0.1295390E+03  0.7546771E-02  0.1237971E+00
         -2   -1    0    0    0  501 -0.00000000000E+00  0.00000000000E+00  0.54771824805E+02  0.54771824805E+02  0.00000000000E+00 0. -1.
          2   -1    0    0  501    0  0.00000000000E+00 -0.00000000000E+00 -0.55687084772E+03  0.55687084772E+03  0.00000000000E+00 0.  1.
          5    1    1    2  502    0 -0.34287702564E+02  0.36593374359E+02 -0.42318208345E+03  0.42616884840E+03  0.47000000000E+01 0. -1.
         -5    1    1    2    0  502  0.44240899338E+02 -0.40953239686E+01 -0.64766260806E+02  0.78681556870E+02  0.47000000000E+01 0. -1.
        -11    1    1    2    0    0  0.35321093951E+00 -0.61224092161E+02 -0.34341694290E+02  0.70198761994E+02  0.00000000000E+00 0.  1.
         11    1    1    2    0    0 -0.10306407713E+02  0.28726041770E+02  0.20191015625E+02  0.36593505267E+02  0.00000000000E+00 0. -1.
<mgrwt>
<rscale>  0 0.12316113E+03</rscale>
<asrwt>0</asrwt>
<pdfrwt beam="2">  1        2 0.85672442E-01 0.12953897E+03</pdfrwt>
<pdfrwt beam="1">  1       -2 0.84264342E-02 0.12953897E+03</pdfrwt>
<totfact> 0.46269451E+03</totfact>
</mgrwt>
</event>
<event>
 6    1  0.1190675E-005  0.3970781E+03  0.7546771E-02  0.1044796E+00
         -2   -1    0    0    0  501 -0.00000000000E+00  0.00000000000E+00  0.34383829673E+02  0.34383829673E+02  0.00000000000E+00 0.  1.
          2   -1    0    0  501    0  0.00000000000E+00 -0.00000000000E+00 -0.11464038481E+04  0.11464038481E+04  0.00000000000E+00 0. -1.
          5    1    1    2  502    0  0.19308073909E+02 -0.13122179387E+02 -0.11405023718E+03  0.11650982753E+03  0.47000000000E+01 0. -1.
         -5    1    1    2    0  502 -0.17820635208E+03 -0.13335895138E+02 -0.59878304448E+03  0.62489885132E+03  0.47000000000E+01 0. -1.
        -11    1    1    2    0    0  0.73895842936E+02 -0.85068443455E+01 -0.89683604208E+02  0.11651656907E+03  0.00000000000E+00 0.  1.
         11    1    1    2    0    0  0.85002435240E+02  0.34964918871E+02 -0.30950313254E+03  0.32286242984E+03  0.00000000000E+00 0. -1.
<mgrwt>
<rscale>  0 0.39707810E+03</rscale>
<asrwt>0</asrwt>
<pdfrwt beam="2">  1        2 0.17636980E+00 0.39707810E+03</pdfrwt>
<pdfrwt beam="1">  1       -2 0.52898207E-02 0.39707810E+03</pdfrwt>
<totfact> 0.38682342E+03</totfact>
</mgrwt>
</event>
<event>
 6    1  0.1190675E-005  0.3338916E+03  0.7546771E-02  0.1069428E+00
         -2   -1    0    0    0  501 -0.00000000000E+00  0.00000000000E+00  0.27581633819E+03  0.27581633819E+03  0.00000000000E+00 0.  1.
          2   -1    0    0  501    0  0.00000000000E+00 -0.00000000000E+00 -0.10104878581E+03  0.10104878581E+03  0.00000000000E+00 0. -1.
          5    1    1    2  502    0  0.11489208819E+03 -0.97637712921E+02  0.91324639825E+02  0.17633943051E+03  0.47000000000E+01 0. -1.
         -5    1    1    2    0  502 -0.14388175462E+02  0.21255439774E+02  0.85347723492E+01  0.27454428644E+02  0.47000000000E+01 0. -1.
        -11    1    1    2    0    0 -0.81299555293E+02  0.39337104985E+02  0.35227172425E+01  0.90384927152E+02  0.00000000000E+00 0. -1.
         11    1    1    2    0    0 -0.19204357432E+02  0.37045168162E+02  0.71385422966E+02  0.82686337690E+02  0.00000000000E+00 0.  1.
<mgrwt>
<rscale>  0 0.33389164E+03</rscale>
<asrwt>0</asrwt>
<pdfrwt beam="2">  1        2 0.15545967E-01 0.33389164E+03</pdfrwt>
<pdfrwt beam="1">  1       -2 0.42433282E-01 0.33389164E+03</pdfrwt>
<totfact> 0.19917618E+03</totfact>
</mgrwt>
</event>
<event>
 6    1  0.1190675E-005  0.1540661E+03  0.7546771E-02  0.1203481E+00
          1   -1    0    0  501    0  0.00000000000E+00  0.00000000000E+00  0.72207584126E+02  0.72207584126E+02  0.00000000000E+00 0. -1.
         -1   -1    0    0    0  501 -0.00000000000E+00 -0.00000000000E+00 -0.33587599985E+03  0.33587599985E+03  0.00000000000E+00 0.  1.
          5    1    1    2  502    0 -0.42011786420E+02  0.95028139145E+02 -0.53912593532E+02  0.11714945655E+03  0.47000000000E+01 0.  1.
         -5    1    1    2    0  502  0.46615373122E+02 -0.50834143285E+01 -0.34641528632E+01  0.47253830189E+02  0.47000000000E+01 0.  1.
        -11    1    1    2    0    0 -0.33064857705E+02 -0.11413611445E+01 -0.80984036071E+02  0.87481435852E+02  0.00000000000E+00 0.  1.
         11    1    1    2    0    0  0.28461271004E+02 -0.88803363672E+02 -0.12530763325E+03  0.15619886139E+03  0.00000000000E+00 0. -1.
<mgrwt>
<rscale>  0 0.14757774E+03</rscale>
<asrwt>0</asrwt>
<pdfrwt beam="1">  1        1 0.11108859E-01 0.15406606E+03</pdfrwt>
<pdfrwt beam="2">  1       -1 0.51673231E-01 0.15406606E+03</pdfrwt>
<totfact> 0.21006118E+03</totfact>
</mgrwt>
</event>
<event>
 6    1  0.1190675E-005  0.1576634E+03  0.7546771E-02  0.1198800E+00
          3   -1    0    0  501    0  0.00000000000E+00  0.00000000000E+00  0.75078412429E+02  0.75078412429E+02  0.00000000000E+00 0. -1.
         -3   -1    0    0    0  501 -0.00000000000E+00 -0.00000000000E+00 -0.33260922019E+03  0.33260922019E+03  0.00000000000E+00 0.  1.
          5    1    1    2  502    0  0.22428875143E+01 -0.24749129386E+02  0.29206917215E+02  0.38635268382E+02  0.47000000000E+01 0.  1.
         -5    1    1    2    0  502  0.93475973795E+02  0.16008705123E+02 -0.88522740111E+02  0.12981680104E+03  0.47000000000E+01 0.  1.
        -11    1    1    2    0    0 -0.89161448530E+02  0.25428717520E+02 -0.20075030764E+03  0.22112681791E+03  0.00000000000E+00 0.  1.
         11    1    1    2    0    0 -0.65574127800E+01 -0.16688293258E+02  0.25353227787E+01  0.18108745285E+02  0.00000000000E+00 0. -1.
<mgrwt>
<rscale>  0 0.15136986E+03</rscale>
<asrwt>0</asrwt>
<pdfrwt beam="1">  1        3 0.11550525E-01 0.15766335E+03</pdfrwt>
<pdfrwt beam="2">  1       -3 0.51170650E-01 0.15766335E+03</pdfrwt>
<totfact> 0.52322097E+02</totfact>
</mgrwt>
</event>
<event>
 6    1  0.1190675E-005  0.1559327E+03  0.7546771E-02  0.1201253E+00
          1   -1    0    0  501    0  0.00000000000E+00  0.00000000000E+00  0.19102426418E+03  0.19102426418E+03  0.00000000000E+00 0. -1.
         -1   -1    0    0    0  501 -0.00000000000E+00 -0.00000000000E+00 -0.11440137337E+03  0.11440137337E+03  0.00000000000E+00 0.  1.
          5    1    1    2  502    0  0.81033474757E+01 -0.27179738660E+02 -0.25606944884E+02  0.38499455324E+02  0.47000000000E+01 0. -1.
         -5    1    1    2    0  502 -0.83573765624E+02 -0.27496943365E+02  0.10312858837E+03  0.13564015605E+03  0.47000000000E+01 0. -1.
        -11    1    1    2    0    0  0.93174776059E+02  0.55284195561E+02  0.12520259473E+02  0.10906254201E+03  0.00000000000E+00 0. -1.
         11    1    1    2    0    0 -0.17704357910E+02 -0.60751353489E+00 -0.13419012138E+02  0.22223484165E+02  0.00000000000E+00 0.  1.
<mgrwt>
<rscale>  0 0.14936709E+03</rscale>
<asrwt>0</asrwt>
<pdfrwt beam="1">  1        1 0.29388348E-01 0.15593267E+03</pdfrwt>
<pdfrwt beam="2">  1       -1 0.17600211E-01 0.15593267E+03</pdfrwt>
<totfact> 0.37447035E+03</totfact>
</mgrwt>
</event>
<event>
 6    1  0.1190675E-005  0.1756281E+03  0.7546771E-02  0.1178799E+00
          4   -1    0    0  501    0  0.00000000000E+00  0.00000000000E+00  0.13194107864E+04  0.13194107864E+04  0.00000000000E+00 0. -1.
         -4   -1    0    0    0  501 -0.00000000000E+00 -0.00000000000E+00 -0.20675177927E+02  0.20675177927E+02  0.00000000000E+00 0.  1.
          5    1    1    2  502    0  0.38160363778E+02 -0.56120894506E+02  0.13002537363E+03  0.14674622977E+03  0.47000000000E+01 0.  1.
         -5    1    1    2    0  502  0.40119317167E+02 -0.39231992565E+02  0.66837566184E+03  0.67074348613E+03  0.47000000000E+01 0.  1.
        -11    1    1    2    0    0 -0.75335050674E+02  0.10984138427E+03  0.41091164358E+03  0.43195934808E+03  0.00000000000E+00 0.  1.
         11    1    1    2    0    0 -0.29446302708E+01 -0.14488497204E+02  0.89422929442E+02  0.90636900370E+02  0.00000000000E+00 0. -1.
<mgrwt>
<rscale>  0 0.16909119E+03</rscale>
<asrwt>0</asrwt>
<pdfrwt beam="1">  1        4 0.20298621E+00 0.17562808E+03</pdfrwt>
<pdfrwt beam="2">  1       -4 0.31807976E-02 0.17562808E+03</pdfrwt>
<totfact> 0.11988011E+02</totfact>
</mgrwt>
</event>
<event>
 6    1  0.1190675E-005  0.1390278E+03  0.7546771E-02  0.1225750E+00
          1   -1    0    0  501    0  0.00000000000E+00  0.00000000000E+00  0.14471052470E+03  0.14471052470E+03  0.00000000000E+00 0. -1.
         -1   -1    0    0    0  501 -0.00000000000E+00 -0.00000000000E+00 -0.11955435057E+03  0.11955435057E+03  0.00000000000E+00 0.  1.
          5    1    1    2  502    0  0.28955402328E+02 -0.56091351680E+02  0.24790821669E+02  0.67980364049E+02  0.47000000000E+01 0.  1.
         -5    1    1    2    0  502 -0.74032861531E+02  0.15196225851E+02  0.31253017527E+02  0.81918440971E+02  0.47000000000E+01 0.  1.
        -11    1    1    2    0    0  0.58590862673E+02  0.73152184777E+01  0.98595129708E+01  0.59863274269E+02  0.00000000000E+00 0. -1.
         11    1    1    2    0    0 -0.13513403470E+02  0.33579907352E+02 -0.40747178042E+02  0.54502795979E+02  0.00000000000E+00 0.  1.
<mgrwt>
<rscale>  0 0.13115626E+03</rscale>
<asrwt>0</asrwt>
<pdfrwt beam="1">  1        1 0.22263158E-01 0.13902784E+03</pdfrwt>
<pdfrwt beam="2">  1       -1 0.18392977E-01 0.13902784E+03</pdfrwt>
<totfact> 0.49169280E+03</totfact>
</mgrwt>
</event>
<event>
 6    1  0.1190675E-005  0.3534301E+03  0.7546771E-02  0.1062285E+00
         -2   -1    0    0    0  501 -0.00000000000E+00  0.00000000000E+00  0.99896873594E+03  0.99896873594E+03  0.00000000000E+00 0.  1.
          2   -1    0    0  501    0  0.00000000000E+00 -0.00000000000E+00 -0.17676679445E+03  0.17676679445E+03  0.00000000000E+00 0. -1.
          5    1    1    2  502    0  0.56428689404E+02  0.15952382527E+03  0.97259465783E+02  0.19522689748E+03  0.47000000000E+01 0.  1.
         -5    1    1    2    0  502  0.11361475431E+03  0.12398685715E+03 -0.10943052882E+02  0.16859090589E+03  0.47000000000E+01 0.  1.
        -11    1    1    2    0    0 -0.14304155002E+03 -0.20859157019E+03  0.46215682298E+03  0.52683987816E+03  0.00000000000E+00 0. -1.
         11    1    1    2    0    0 -0.27001893694E+02 -0.74919112223E+02  0.27372870560E+03  0.28507784886E+03  0.00000000000E+00 0.  1.
<mgrwt>
<rscale>  0 0.35080588E+03</rscale>
<asrwt>0</asrwt>
<pdfrwt beam="2">  1        2 0.27194892E-01 0.35343015E+03</pdfrwt>
<pdfrwt beam="1">  1       -2 0.15368749E+00 0.35343015E+03</pdfrwt>
<totfact> 0.58088894E+01</totfact>
</mgrwt>
</event>
<event>
 6    1  0.1190675E-005  0.1333075E+03  0.7546771E-02  0.1235303E+00
         -2   -1    0    0    0  501 -0.00000000000E+00  0.00000000000E+00  0.48068265491E+02  0.48068265491E+02  0.00000000000E+00 0.  1.
          2   -1    0    0  501    0  0.00000000000E+00 -0.00000000000E+00 -0.30246374727E+03  0.30246374727E+03  0.00000000000E+00 0. -1.
          5    1    1    2  502    0 -0.14237092403E+02 -0.16679191904E+02  0.15344970361E+02  0.27174406305E+02  0.47000000000E+01 0.  1.
         -5    1    1    2    0  502 -0.19914701408E+02 -0.14623390882E+02 -0.19458671279E+03  0.19620529475E+03  0.47000000000E+01 0.  1.
        -11    1    1    2    0    0 -0.27303085328E+02  0.25921620404E+02 -0.44427120461E+02  0.58233649252E+02  0.00000000000E+00 0. -1.
         11    1    1    2    0    0  0.61454879139E+02  0.53809623822E+01 -0.30726618890E+02  0.68918662455E+02  0.00000000000E+00 0.  1.
<mgrwt>
<rscale>  0 0.12485070E+03</rscale>
<asrwt>0</asrwt>
<pdfrwt beam="2">  1        2 0.46532883E-01 0.13330750E+03</pdfrwt>
<pdfrwt beam="1">  1       -2 0.73951179E-02 0.13330750E+03</pdfrwt>
<totfact> 0.10935395E+04</totfact>
</mgrwt>
</event>
<event>
 6    1  0.1190675E-005  0.1283088E+03  0.7546771E-02  0.1243856E+00
          2   -1    0    0  501    0  0.00000000000E+00  0.00000000000E+00  0.63717816379E+03  0.63717816379E+03  0.00000000000E+00 0. -1.
         -2   -1    0    0    0  501 -0.00000000000E+00 -0.00000000000E+00 -0.33257226230E+02  0.33257226230E+02  0.00000000000E+00 0.  1.
          5    1    1    2  502    0  0.25469314277E+02  0.15870956703E+02  0.48441473674E+03  0.48536615086E+03  0.47000000000E+01 0. -1.
         -5    1    1    2    0  502 -0.40418786409E+02  0.89103802875E+01  0.54408163967E+02  0.68523072595E+02  0.47000000000E+01 0. -1.
        -11    1    1    2    0    0  0.50986701720E+01  0.18916080069E+02 -0.15067131052E+02  0.24715035116E+02  0.00000000000E+00 0.  1.
         11    1    1    2    0    0  0.98508019599E+01 -0.43697417059E+02  0.80165167911E+02  0.91831131449E+02  0.00000000000E+00 0. -1.
<mgrwt>
<rscale>  0 0.11954083E+03</rscale>
<asrwt>0</asrwt>
<pdfrwt beam="1">  1        2 0.98027401E-01 0.12830882E+03</pdfrwt>
<pdfrwt beam="2">  1       -2 0.51164968E-02 0.12830882E+03</pdfrwt>
<totfact> 0.84865858E+03</totfact>
</mgrwt>
</event>
<event>
 6    1  0.1190675E-005  0.8754604E+03  0.7546771E-02  0.1012157E+00
         -2   -1    0    0    0  501 -0.00000000000E+00  0.00000000000E+00  0.18133350968E+03  0.18133350968E+03  0.00000000000E+00 0.  1.
          2   -1    0    0  501    0  0.00000000000E+00 -0.00000000000E+00 -0.14995796077E+04  0.14995796077E+04  0.00000000000E+00 0. -1.
          5    1    1    2  502    0  0.12628411746E+02 -0.41731582974E+03 -0.76522888458E+03  0.87172777536E+03  0.47000000000E+01 0. -1.
         -5    1    1    2    0  502 -0.35749757784E+02  0.44505460855E+03 -0.55366667561E+03  0.71128090615E+03  0.47000000000E+01 0.  1.
        -11    1    1    2    0    0  0.48039037284E+02  0.45999891259E+01 -0.19898138666E+02  0.52200047179E+02  0.00000000000E+00 0. -1.
         11    1    1    2    0    0 -0.24917691246E+02 -0.32338767932E+02  0.20547600814E+02  0.45704388713E+02  0.00000000000E+00 0.  1.
<mgrwt>
<rscale>  0 0.50626231E+03</rscale>
<asrwt>0</asrwt>
<pdfrwt beam="2">  1        2 0.23070456E+00 0.87546044E+03</pdfrwt>
<pdfrwt beam="1">  1       -2 0.27897463E-01 0.87546044E+03</pdfrwt>
<totfact> 0.14995056E+02</totfact>
</mgrwt>
</event>
<event>
 6    1  0.1190675E-005  0.1813537E+03  0.7546771E-02  0.1188930E+00
          1   -1    0    0  501    0  0.00000000000E+00  0.00000000000E+00  0.14934931212E+04  0.14934931212E+04  0.00000000000E+00 0. -1.
         -1   -1    0    0    0  501 -0.00000000000E+00 -0.00000000000E+00 -0.21453511443E+02  0.21453511443E+02  0.00000000000E+00 0.  1.
          5    1    1    2  502    0  0.65209558942E+02  0.15920825668E+02  0.60602043613E+03  0.60974471566E+03  0.47000000000E+01 0. -1.
         -5    1    1    2    0  502 -0.90400219312E+02 -0.64357383709E+02  0.68340650975E+03  0.69237317977E+03  0.47000000000E+01 0.  1.
        -11    1    1    2    0    0 -0.19432746574E+02  0.19282299069E+02  0.55710262962E+01  0.27936983209E+02  0.00000000000E+00 0. -1.
         11    1    1    2    0    0  0.44623406944E+02  0.29154258972E+02  0.17704163759E+03  0.18489175402E+03  0.00000000000E+00 0.  1.
<mgrwt>
<rscale>  0 0.15979377E+03</rscale>
<asrwt>0</asrwt>
<pdfrwt beam="1">  1        1 0.22976809E+00 0.18135370E+03</pdfrwt>
<pdfrwt beam="2">  1       -1 0.33005414E-02 0.18135370E+03</pdfrwt>
<totfact> 0.23627670E+03</totfact>
</mgrwt>
</event>
<event>
 6    1  0.1190675E-005  0.1704825E+03  0.7546771E-02  0.1183618E+00
         -1   -1    0    0    0  501 -0.00000000000E+00  0.00000000000E+00  0.64237998990E+02  0.64237998990E+02  0.00000000000E+00 0.  1.
          1   -1    0    0  501    0  0.00000000000E+00 -0.00000000000E+00 -0.43210349351E+03  0.43210349351E+03  0.00000000000E+00 0. -1.
          5    1    1    2  502    0  0.13401474301E+02  0.88400197511E+02 -0.79578757938E+02  0.11978757510E+03  0.47000000000E+01 0.  1.
         -5    1    1    2    0  502 -0.56900044145E+02  0.19059884752E+02 -0.18878699945E+03  0.19815023440E+03  0.47000000000E+01 0.  1.
        -11    1    1    2    0    0 -0.47235839969E+01 -0.27468945321E+02 -0.77620756366E+02  0.82473250340E+02  0.00000000000E+00 0. -1.
         11    1    1    2    0    0  0.48222153841E+02 -0.79991136942E+02 -0.21878980758E+02  0.95930432655E+02  0.00000000000E+00 0.  1.
<mgrwt>
<rscale>  0 0.16458258E+03</rscale>
<asrwt>0</asrwt>
<pdfrwt beam="2">  1        1 0.66477461E-01 0.17048247E+03</pdfrwt>
<pdfrwt beam="1">  1       -1 0.98827690E-02 0.17048247E+03</pdfrwt>
<totfact> 0.33322963E+03</totfact>
</mgrwt>
</event>
<event>
 6    1  0.1190675E-005  0.1380176E+03  0.7546771E-02  0.1227151E+00
         -2   -1    0    0    0  501 -0.00000000000E+00  0.00000000000E+00  0.29117559057E+03  0.29117559057E+03  0.00000000000E+00 0. -1.
          2   -1    0    0  501    0  0.00000000000E+00 -0.00000000000E+00 -0.52851793461E+02  0.52851793461E+02  0.00000000000E+00 0.  1.
          5    1    1    2  502    0 -0.46302768365E+02 -0.49475893982E+02  0.15354974874E+02  0.69639612987E+02  0.47000000000E+01 0. -1.
         -5    1    1    2    0  502 -0.11702248004E+02  0.41792652369E+02  0.10414117693E+03  0.11292051688E+03  0.47000000000E+01 0. -1.
        -11    1    1    2    0    0  0.26848167659E+02 -0.28219238574E+02  0.64924109153E+01  0.39487984652E+02  0.00000000000E+00 0.  1.
         11    1    1    2    0    0  0.31156848710E+02  0.35902480187E+02  0.11233523439E+03  0.12197926951E+03  0.00000000000E+00 0. -1.
<mgrwt>
<rscale>  0 0.13020556E+03</rscale>
<asrwt>0</asrwt>
<pdfrwt beam="2">  1        2 0.81310453E-02 0.13801765E+03</pdfrwt>
<pdfrwt beam="1">  1       -2 0.44796244E-01 0.13801765E+03</pdfrwt>
<totfact> 0.38044546E+03</totfact>
</mgrwt>
</event>
<event>
 6    1  0.1190675E-005  0.4041426E+03  0.7546771E-02  0.1042355E+00
         -1   -1    0    0    0  501 -0.00000000000E+00  0.00000000000E+00  0.32750569919E+02  0.32750569919E+02  0.00000000000E+00 0.  1.
          1   -1    0    0  501    0  0.00000000000E+00 -0.00000000000E+00 -0.12467815711E+04  0.12467815711E+04  0.00000000000E+00 0. -1.
          5    1    1    2  502    0  0.73142949649E+02  0.12909017430E+03 -0.66287692450E+03  0.67929527543E+03  0.47000000000E+01 0.  1.
         -5    1    1    2    0  502  0.24548115218E+02 -0.26648484858E+02 -0.27400947373E+03  0.27643450111E+03  0.47000000000E+01 0.  1.
        -11    1    1    2    0    0 -0.67103447361E+02 -0.18950206655E+02 -0.72067208688E+02  0.10027794148E+03  0.00000000000E+00 0.  1.
         11    1    1    2    0    0 -0.30587617506E+02 -0.83491482787E+02 -0.20507739428E+03  0.22352442302E+03  0.00000000000E+00 0. -1.
<mgrwt>
<rscale>  0 0.40414258E+03</rscale>
<asrwt>0</asrwt>
<pdfrwt beam="2">  1        1 0.19181253E+00 0.40414258E+03</pdfrwt>
<pdfrwt beam="1">  1       -1 0.50385497E-02 0.40414258E+03</pdfrwt>
<totfact> 0.18456619E+03</totfact>
</mgrwt>
</event>
<event>
 6    1  0.1190675E-005  0.1252783E+03  0.7546771E-02  0.1250564E+00
          1   -1    0    0  501    0  0.00000000000E+00  0.00000000000E+00  0.68058288252E+03  0.68058288252E+03  0.00000000000E+00 0. -1.
         -1   -1    0    0    0  501 -0.00000000000E+00 -0.00000000000E+00 -0.22086276742E+02  0.22086276742E+02  0.00000000000E+00 0.  1.
          5    1    1    2  502    0  0.98120578132E+01  0.51896883717E+02  0.37269785924E+03  0.37645098925E+03  0.47000000000E+01 0.  1.
         -5    1    1    2    0  502 -0.15797452780E+02 -0.57595620333E+02  0.16186181089E+03  0.17259244137E+03  0.47000000000E+01 0.  1.
        -11    1    1    2    0    0  0.33859981133E+02 -0.30164092507E+02  0.60883228643E+02  0.75915336587E+02  0.00000000000E+00 0. -1.
         11    1    1    2    0    0 -0.27874586166E+02  0.35862829124E+02  0.63053707002E+02  0.77710392055E+02  0.00000000000E+00 0.  1.
<mgrwt>
<rscale>  0 0.11558488E+03</rscale>
<asrwt>0</asrwt>
<pdfrwt beam="1">  1        1 0.10470504E+00 0.12527828E+03</pdfrwt>
<pdfrwt beam="2">  1       -1 0.33978893E-02 0.12527828E+03</pdfrwt>
<totfact> 0.87935713E+03</totfact>
</mgrwt>
</event>
<event>
 6    1  0.1190675E-005  0.1212359E+03  0.7546771E-02  0.1248291E+00
          1   -1    0    0  501    0  0.00000000000E+00  0.00000000000E+00  0.11089812935E+03  0.11089812935E+03  0.00000000000E+00 0. -1.
         -1   -1    0    0    0  501 -0.00000000000E+00 -0.00000000000E+00 -0.13592604494E+03  0.13592604494E+03  0.00000000000E+00 0.  1.
          5    1    1    2  502    0  0.50956585748E+02  0.54264053141E+02  0.23701606784E+02  0.78262489473E+02  0.47000000000E+01 0. -1.
         -5    1    1    2    0  502 -0.45861084914E+02 -0.65533863330E+01  0.11097726701E+02  0.47868941077E+02  0.47000000000E+01 0.  1.
        -11    1    1    2    0    0 -0.19291612978E+02 -0.10688836937E+02 -0.75047827344E+02  0.78221441788E+02  0.00000000000E+00 0.  1.
         11    1    1    2    0    0  0.14196112144E+02 -0.37021829871E+02  0.15220578263E+02  0.42471301954E+02  0.00000000000E+00 0. -1.
<mgrwt>
<rscale>  0 0.11690565E+03</rscale>
<asrwt>0</asrwt>
<pdfrwt beam="1">  1        1 0.17061251E-01 0.12123590E+03</pdfrwt>
<pdfrwt beam="2">  1       -1 0.20911699E-01 0.12123590E+03</pdfrwt>
<totfact> 0.55661913E+03</totfact>
</mgrwt>
</event>
<event>
 6    1  0.1190675E-005  0.1513460E+03  0.7546771E-02  0.1204831E+00
         -1   -1    0    0    0  501 -0.00000000000E+00  0.00000000000E+00  0.33181688362E+02  0.33181688362E+02  0.00000000000E+00 0.  1.
          1   -1    0    0  501    0  0.00000000000E+00 -0.00000000000E+00 -0.76069280171E+03  0.76069280171E+03  0.00000000000E+00 0. -1.
          5    1    1    2  502    0  0.68986253382E+02 -0.93958351406E+02 -0.44918686539E+03  0.46408857451E+03  0.47000000000E+01 0. -1.
         -5    1    1    2    0  502 -0.33955435862E+02  0.11679022559E+01 -0.11056170440E+03  0.11575973437E+03  0.47000000000E+01 0.  1.
        -11    1    1    2    0    0 -0.21275731147E+02 -0.97669868351E+01 -0.61042297633E+02  0.65377464527E+02  0.00000000000E+00 0. -1.
         11    1    1    2    0    0 -0.13755086374E+02  0.10255743599E+03 -0.10672024593E+03  0.14864871667E+03  0.00000000000E+00 0.  1.
<mgrwt>
<rscale>  0 0.14650788E+03</rscale>
<asrwt>0</asrwt>
<pdfrwt beam="2">  1        1 0.11702966E+00 0.15134596E+03</pdfrwt>
<pdfrwt beam="1">  1       -1 0.51048754E-02 0.15134596E+03</pdfrwt>
<totfact> 0.41544882E+03</totfact>
</mgrwt>
</event>
<event>
 6    1  0.1912094E-005  0.3066831E+03  0.7546771E-02  0.1081947E+00
         -1   -1    0    0    0  501 -0.00000000000E+00  0.00000000000E+00  0.37434173423E+03  0.37434173423E+03  0.00000000000E+00 0.  1.
          1   -1    0    0  501    0  0.00000000000E+00 -0.00000000000E+00 -0.62813295821E+02  0.62813295821E+02  0.00000000000E+00 0. -1.
          5    1    1    2  502    0  0.12608391947E+02 -0.13033924062E+02  0.85041727307E+02  0.87080652887E+02  0.47000000000E+01 0.  1.
         -5    1    1    2    0  502 -0.12071323385E+03  0.13504022510E+02  0.74171094660E+02  0.14239903347E+03  0.47000000000E+01 0.  1.
        -11    1    1    2    0    0  0.63563262890E+02  0.23833194345E+02  0.13980573624E+03  0.15541542211E+03  0.00000000000E+00 0.  1.
         11    1    1    2    0    0  0.44541579013E+02 -0.24303292794E+02  0.12509880198E+02  0.52259921586E+02  0.00000000000E+00 0. -1.
<mgrwt>
<rscale>  0 0.30668315E+03</rscale>
<asrwt>0</asrwt>
<pdfrwt beam="2">  1        1 0.96635842E-02 0.30668315E+03</pdfrwt>
<pdfrwt beam="1">  1       -1 0.57591035E-01 0.30668315E+03</pdfrwt>
<totfact> 0.21152894E+03</totfact>
</mgrwt>
</event>
<event>
 6    1  0.1190675E-005  0.1853151E+03  0.7546771E-02  0.1167989E+00
         -2   -1    0    0    0  501 -0.00000000000E+00  0.00000000000E+00  0.23894580022E+02  0.23894580022E+02  0.00000000000E+00 0.  1.
          2   -1    0    0  501    0  0.00000000000E+00 -0.00000000000E+00 -0.12808818010E+04  0.12808818010E+04  0.00000000000E+00 0. -1.
          5    1    1    2  502    0  0.58986701582E+02  0.83208005484E+02 -0.60689775721E+03  0.61542666570E+03  0.47000000000E+01 0. -1.
         -5    1    1    2    0  502  0.62484329798E+01  0.37045138853E+02 -0.31275593434E+02  0.49108430763E+02  0.47000000000E+01 0. -1.
        -11    1    1    2    0    0 -0.82671212383E+02 -0.11034081027E+03 -0.58407978589E+03  0.60013233545E+03  0.00000000000E+00 0.  1.
         11    1    1    2    0    0  0.17436077822E+02 -0.99123340640E+01 -0.34734084402E+02  0.40108949072E+02  0.00000000000E+00 0. -1.
<mgrwt>
<rscale>  0 0.17980834E+03</rscale>
<asrwt>0</asrwt>
<pdfrwt beam="2">  1        2 0.19705871E+00 0.18531505E+03</pdfrwt>
<pdfrwt beam="1">  1       -2 0.36760898E-02 0.18531505E+03</pdfrwt>
<totfact> 0.55565121E+03</totfact>
</mgrwt>
</event>
<event>
 6    1  0.1190675E-005  0.3855086E+03  0.7546771E-02  0.1048916E+00
          2   -1    0    0  501    0  0.00000000000E+00  0.00000000000E+00  0.70653753557E+03  0.70653753557E+03  0.00000000000E+00 0. -1.
         -2   -1    0    0    0  501 -0.00000000000E+00 -0.00000000000E+00 -0.52586341509E+02  0.52586341509E+02  0.00000000000E+00 0.  1.
          5    1    1    2  502    0  0.10255299647E+03 -0.12382759621E+03  0.23991377689E+03  0.28884442354E+03  0.47000000000E+01 0.  1.
         -5    1    1    2    0  502  0.21182824931E+02  0.24954779222E+02  0.11229728966E+03  0.11706504322E+03  0.47000000000E+01 0.  1.
        -11    1    1    2    0    0 -0.61688710585E+02 -0.42674172644E+01  0.12385744670E+03  0.13843545415E+03  0.00000000000E+00 0.  1.
         11    1    1    2    0    0 -0.62047110814E+02  0.10314023425E+03  0.17788268081E+03  0.21477895617E+03  0.00000000000E+00 0. -1.
<mgrwt>
<rscale>  0 0.38550862E+03</rscale>
<asrwt>0</asrwt>
<pdfrwt beam="1">  1        2 0.10869808E+00 0.38550862E+03</pdfrwt>
<pdfrwt beam="2">  1       -2 0.80902069E-02 0.38550862E+03</pdfrwt>
<totfact> 0.38724797E+03</totfact>
</mgrwt>
</event>
<event>
 6    1  0.1190675E-005  0.1276056E+03  0.7546771E-02  0.1241841E+00
          1   -1    0    0  501    0  0.00000000000E+00  0.00000000000E+00  0.77054235294E+03  0.77054235294E+03  0.00000000000E+00 0. -1.
         -1   -1    0    0    0  501 -0.00000000000E+00 -0.00000000000E+00 -0.26266784337E+02  0.26266784337E+02  0.00000000000E+00 0.  1.
          5    1    1    2  502    0 -0.54738455861E+02  0.16466833589E+02  0.24752383356E+03  0.25408186346E+03  0.47000000000E+01 0.  1.
         -5    1    1    2    0  502  0.68958611056E+02  0.48540439178E+01  0.38497580406E+03  0.39116149030E+03  0.47000000000E+01 0.  1.
        -11    1    1    2    0    0 -0.25542236629E+02 -0.74077502396E+01  0.12593539971E+03  0.12871288014E+03  0.00000000000E+00 0. -1.
         11    1    1    2    0    0  0.11322081433E+02 -0.13913127267E+02 -0.14159468721E+02  0.22852903378E+02  0.00000000000E+00 0.  1.
<mgrwt>
<rscale>  0 0.12076438E+03</rscale>
<asrwt>0</asrwt>
<pdfrwt beam="1">  1        1 0.11854496E+00 0.12760562E+03</pdfrwt>
<pdfrwt beam="2">  1       -1 0.40410443E-02 0.12760562E+03</pdfrwt>
<totfact> 0.57111900E+03</totfact>
</mgrwt>
</event>
<event>
 6    1  0.1190675E-005  0.1549848E+03  0.7546771E-02  0.1203302E+00
         -1   -1    0    0    0  501 -0.00000000000E+00  0.00000000000E+00  0.18262937099E+03  0.18262937099E+03  0.00000000000E+00 0.  1.
          1   -1    0    0  501    0  0.00000000000E+00 -0.00000000000E+00 -0.13687122396E+03  0.13687122396E+03  0.00000000000E+00 0. -1.
          5    1    1    2  502    0 -0.86961139882E+02 -0.56964403316E+01 -0.75681076867E+02  0.11551798422E+03  0.47000000000E+01 0.  1.
         -5    1    1    2    0  502  0.49907742074E+01 -0.35252171913E+02  0.29201326743E+02  0.46286401192E+02  0.47000000000E+01 0.  1.
        -11    1    1    2    0    0  0.59822131425E+02  0.26884503594E+02  0.40746891469E+01  0.65712000680E+02  0.00000000000E+00 0. -1.
         11    1    1    2    0    0  0.22148234249E+02  0.14064108650E+02  0.88163208007E+02  0.91984208854E+02  0.00000000000E+00 0.  1.
<mgrwt>
<rscale>  0 0.14772046E+03</rscale>
<asrwt>0</asrwt>
<pdfrwt beam="2">  1        1 0.21057111E-01 0.15498481E+03</pdfrwt>
<pdfrwt beam="1">  1       -1 0.28096826E-01 0.15498481E+03</pdfrwt>
<totfact> 0.26597125E+03</totfact>
</mgrwt>
</event>
<event>
 6    1  0.1190675E-005  0.1380413E+03  0.7546771E-02  0.1227328E+00
         -1   -1    0    0    0  501 -0.00000000000E+00  0.00000000000E+00  0.14389726649E+02  0.14389726649E+02  0.00000000000E+00 0.  1.
          1   -1    0    0  501    0  0.00000000000E+00 -0.00000000000E+00 -0.10871875444E+04  0.10871875444E+04  0.00000000000E+00 0. -1.
          5    1    1    2  502    0 -0.44336317528E+02  0.11210300355E+02 -0.66923460362E+03  0.67081176538E+03  0.47000000000E+01 0.  1.
         -5    1    1    2    0  502 -0.32195794862E+01  0.22876900510E+02 -0.16740001844E+02  0.28914285928E+02  0.47000000000E+01 0.  1.
        -11    1    1    2    0    0 -0.23060196917E+02 -0.23672006755E+02 -0.18124939943E+03  0.18423756777E+03  0.00000000000E+00 0. -1.
         11    1    1    2    0    0  0.70616093931E+02 -0.10415194109E+02 -0.20557381282E+03  0.21761365193E+03  0.00000000000E+00 0.  1.
<mgrwt>
<rscale>  0 0.13008630E+03</rscale>
<asrwt>0</asrwt>
<pdfrwt beam="2">  1        1 0.16725961E+00 0.13804125E+03</pdfrwt>
<pdfrwt beam="1">  1       -1 0.22138043E-02 0.13804125E+03</pdfrwt>
<totfact> 0.79043317E+03</totfact>
</mgrwt>
</event>
<event>
 6    1  0.1190675E-005  0.1980028E+03  0.7546771E-02  0.1155255E+00
          2   -1    0    0  501    0  0.00000000000E+00  0.00000000000E+00  0.11749283383E+03  0.11749283383E+03  0.00000000000E+00 0.  1.
         -2   -1    0    0    0  501 -0.00000000000E+00 -0.00000000000E+00 -0.34516063008E+03  0.34516063008E+03  0.00000000000E+00 0. -1.
          5    1    1    2  502    0 -0.27633600763E+02  0.84877587480E+02  0.68819897188E+01  0.89650836751E+02  0.47000000000E+01 0.  1.
         -5    1    1    2    0  502 -0.10193938785E+03 -0.24654477509E+01 -0.46987833248E+02  0.11237287796E+03  0.47000000000E+01 0.  1.
        -11    1    1    2    0    0  0.74298857776E+02 -0.92568731327E+02 -0.15648567771E+03  0.19641043153E+03  0.00000000000E+00 0. -1.
         11    1    1    2    0    0  0.55274130838E+02  0.10156591598E+02 -0.31076275014E+02  0.64219317666E+02  0.00000000000E+00 0.  1.
<mgrwt>
<rscale>  0 0.19359859E+03</rscale>
<asrwt>0</asrwt>
<pdfrwt beam="1">  1        2 0.18075820E-01 0.19800278E+03</pdfrwt>
<pdfrwt beam="2">  1       -2 0.53101636E-01 0.19800278E+03</pdfrwt>
<totfact> 0.10541966E+03</totfact>
</mgrwt>
</event>
<event>
 6    1  0.1190675E-005  0.2791784E+03  0.7546771E-02  0.1096139E+00
          1   -1    0    0  501    0  0.00000000000E+00  0.00000000000E+00  0.13125113171E+03  0.13125113171E+03  0.00000000000E+00 0. -1.
         -1   -1    0    0    0  501 -0.00000000000E+00 -0.00000000000E+00 -0.14845693079E+03  0.14845693079E+03  0.00000000000E+00 0.  1.
          5    1    1    2  502    0 -0.53096127264E+02 -0.10073861425E+02  0.21631302318E+02  0.58401067237E+02  0.47000000000E+01 0. -1.
         -5    1    1    2    0  502  0.50171507331E+02 -0.27119174058E+02 -0.47993132907E+02  0.74686414800E+02  0.47000000000E+01 0. -1.
        -11    1    1    2    0    0 -0.37826556793E+02  0.32591300061E+02 -0.52576573686E+02  0.72507498502E+02  0.00000000000E+00 0.  1.
         11    1    1    2    0    0  0.40751176727E+02  0.46017354223E+01  0.61732605190E+02  0.74113081956E+02  0.00000000000E+00 0. -1.
<mgrwt>
<rscale>  0 0.27917837E+03</rscale>
<asrwt>0</asrwt>
<pdfrwt beam="1">  1        1 0.20192482E-01 0.27917837E+03</pdfrwt>
<pdfrwt beam="2">  1       -1 0.22839528E-01 0.27917837E+03</pdfrwt>
<totfact> 0.40624576E+03</totfact>
</mgrwt>
</event>
<event>
 6    1  0.1190675E-005  0.3848622E+03  0.7546771E-02  0.1049151E+00
          2   -1    0    0  501    0  0.00000000000E+00  0.00000000000E+00  0.32846979985E+03  0.32846979985E+03  0.00000000000E+00 0.  1.
         -2   -1    0    0    0  501 -0.00000000000E+00 -0.00000000000E+00 -0.11273405912E+03  0.11273405912E+03  0.00000000000E+00 0. -1.
          5    1    1    2  502    0 -0.31750860163E+02  0.23459969979E+02 -0.13297071294E+02  0.41921228721E+02  0.47000000000E+01 0.  1.
         -5    1    1    2    0  502 -0.11118996107E+03  0.19191260738E+02  0.18957689626E+03  0.22066490779E+03  0.47000000000E+01 0.  1.
        -11    1    1    2    0    0  0.73164872330E+02 -0.64027528840E+02  0.35585994051E+01  0.97289704605E+02  0.00000000000E+00 0.  1.
         11    1    1    2    0    0  0.69775948903E+02  0.21376298123E+02  0.35897316353E+02  0.81328017855E+02  0.00000000000E+00 0. -1.
<mgrwt>
<rscale>  0 0.38486223E+03</rscale>
<asrwt>0</asrwt>
<pdfrwt beam="1">  1        2 0.50533815E-01 0.38486223E+03</pdfrwt>
<pdfrwt beam="2">  1       -2 0.17343702E-01 0.38486223E+03</pdfrwt>
<totfact> 0.26718440E+03</totfact>
</mgrwt>
</event>
<event>
 6    1  0.1190675E-005  0.1308422E+03  0.7546771E-02  0.1240189E+00
         -1   -1    0    0    0  501 -0.00000000000E+00  0.00000000000E+00  0.61985149638E+02  0.61985149638E+02  0.00000000000E+00 0.  1.
          1   -1    0    0  501    0  0.00000000000E+00 -0.00000000000E+00 -0.25804605999E+03  0.25804605999E+03  0.00000000000E+00 0. -1.
          5    1    1    2  502    0  0.59777257514E+02  0.86015804627E-01 -0.81653286531E+02  0.10130487212E+03  0.47000000000E+01 0.  1.
         -5    1    1    2    0  502 -0.59282793565E+02  0.38564162268E+02 -0.95180626894E+02  0.11867217854E+03  0.47000000000E+01 0.  1.
        -11    1    1    2    0    0 -0.14586890297E+02  0.89898173130E+01  0.27140981283E+02  0.32097150167E+02  0.00000000000E+00 0.  1.
         11    1    1    2    0    0  0.14092426348E+02 -0.47639995386E+02 -0.46367978210E+02  0.67957008792E+02  0.00000000000E+00 0. -1.
<mgrwt>
<rscale>  0 0.12178027E+03</rscale>
<asrwt>0</asrwt>
<pdfrwt beam="2">  1        1 0.39699395E-01 0.13084216E+03</pdfrwt>
<pdfrwt beam="1">  1       -1 0.95361766E-02 0.13084216E+03</pdfrwt>
<totfact> 0.66135463E+03</totfact>
</mgrwt>
</event>
<event>
 6    1  0.1190675E-005  0.1163739E+03  0.7546771E-02  0.1258694E+00
         -4   -1    0    0    0  501 -0.00000000000E+00  0.00000000000E+00  0.93987166139E+03  0.93987166139E+03  0.00000000000E+00 0.  1.
          4   -1    0    0  501    0  0.00000000000E+00 -0.00000000000E+00 -0.12091422228E+02  0.12091422228E+02  0.00000000000E+00 0. -1.
          5    1    1    2  502    0  0.68527504859E+00  0.65507551827E+02  0.16918721167E+03  0.18148859893E+03  0.47000000000E+01 0. -1.
         -5    1    1    2    0  502  0.62543596047E+01 -0.31404791596E+02  0.30748894049E+03  0.30918751022E+03  0.47000000000E+01 0.  1.
        -11    1    1    2    0    0 -0.10383439279E+02  0.30070199151E+02  0.16728596324E+03  0.17028395751E+03  0.00000000000E+00 0.  1.
         11    1    1    2    0    0  0.34438046257E+01 -0.64172959382E+02  0.28381812375E+03  0.29100301695E+03  0.00000000000E+00 0. -1.
<mgrwt>
<rscale>  0 0.11101924E+03</rscale>
<asrwt>0</asrwt>
<pdfrwt beam="2">  1        4 0.18602195E-02 0.11637392E+03</pdfrwt>
<pdfrwt beam="1">  1       -4 0.14459558E+00 0.11637392E+03</pdfrwt>
<totfact> 0.64075842E+02</totfact>
</mgrwt>
</event>
<event>
 6    1  0.1190675E-005  0.1332782E+03  0.7546771E-02  0.1233282E+00
          2   -1    0    0  501    0  0.00000000000E+00  0.00000000000E+00  0.18012870635E+03  0.18012870635E+03  0.00000000000E+00 0. -1.
         -2   -1    0    0    0  501 -0.00000000000E+00 -0.00000000000E+00 -0.80825572001E+02  0.80825572001E+02  0.00000000000E+00 0.  1.
          5    1    1    2  502    0 -0.50393044562E+02  0.51868634923E+02  0.85075699731E+02  0.11175767944E+03  0.47000000000E+01 0. -1.
         -5    1    1    2    0  502  0.31157848252E+02 -0.98264650846E+01 -0.17839906512E+02  0.37519637367E+02  0.47000000000E+01 0. -1.
        -11    1    1    2    0    0  0.83148517927E+01 -0.68722495113E+02  0.91164073435E+00  0.69229684267E+02  0.00000000000E+00 0.  1.
         11    1    1    2    0    0  0.10920344517E+02  0.26680325274E+02  0.31155700398E+02  0.42447277279E+02  0.00000000000E+00 0. -1.
<mgrwt>
<rscale>  0 0.12615043E+03</rscale>
<asrwt>0</asrwt>
<pdfrwt beam="1">  1        2 0.27712109E-01 0.13327815E+03</pdfrwt>
<pdfrwt beam="2">  1       -2 0.12434703E-01 0.13327815E+03</pdfrwt>
<totfact> 0.84391889E+03</totfact>
</mgrwt>
</event>
<event>
 6    1  0.1190675E-005  0.1432041E+03  0.7546771E-02  0.1223048E+00
          2   -1    0    0  501    0  0.00000000000E+00  0.00000000000E+00  0.11552997336E+04  0.11552997336E+04  0.00000000000E+00 0. -1.
         -2   -1    0    0    0  501 -0.00000000000E+00 -0.00000000000E+00 -0.14132354391E+02  0.14132354391E+02  0.00000000000E+00 0.  1.
          5    1    1    2  502    0  0.44085265308E+02  0.50283007342E+02  0.36300603886E+03  0.36914409882E+03  0.47000000000E+01 0. -1.
         -5    1    1    2    0  502  0.43693947603E+01 -0.75895245695E+02  0.40957932728E+03  0.41660112250E+03  0.47000000000E+01 0.  1.
        -11    1    1    2    0    0 -0.12623046977E+01  0.45559512352E+02  0.25558554374E+03  0.25961747389E+03  0.00000000000E+00 0. -1.
         11    1    1    2    0    0 -0.47192355371E+02 -0.19947273999E+02  0.11299646931E+03  0.12406939277E+03  0.00000000000E+00 0.  1.
<mgrwt>
<rscale>  0 0.13301564E+03</rscale>
<asrwt>0</asrwt>
<pdfrwt beam="1">  1        2 0.17773835E+00 0.14320407E+03</pdfrwt>
<pdfrwt beam="2">  1       -2 0.21742093E-02 0.14320407E+03</pdfrwt>
<totfact> 0.13993996E+04</totfact>
</mgrwt>
</event>
<event>
 6    1  0.1190675E-005  0.3844806E+03  0.7546771E-02  0.1069362E+00
          2   -1    0    0  501    0  0.00000000000E+00  0.00000000000E+00  0.90069071432E+03  0.90069071432E+03  0.00000000000E+00 0. -1.
         -2   -1    0    0    0  501 -0.00000000000E+00 -0.00000000000E+00 -0.12807964297E+03  0.12807964297E+03  0.00000000000E+00 0.  1.
          5    1    1    2  502    0 -0.11359350252E+03  0.18815127770E+03  0.72748783364E+03  0.75997698992E+03  0.47000000000E+01 0. -1.
         -5    1    1    2    0  502  0.13698460462E+01 -0.23883848136E+02 -0.28665102480E+02  0.37631008227E+02  0.47000000000E+01 0.  1.
        -11    1    1    2    0    0  0.25130684111E+02 -0.11137851913E+03  0.57956359320E+02  0.12804555984E+03  0.00000000000E+00 0. -1.
         11    1    1    2    0    0  0.87092972363E+02 -0.52888910426E+02  0.15831980865E+02  0.10311679931E+03  0.00000000000E+00 0.  1.
<mgrwt>
<rscale>  0 0.33404204E+03</rscale>
<asrwt>0</asrwt>
<pdfrwt beam="1">  1        2 0.13856780E+00 0.38448057E+03</pdfrwt>
<pdfrwt beam="2">  1       -2 0.19704561E-01 0.38448057E+03</pdfrwt>
<totfact> 0.65319816E+02</totfact>
</mgrwt>
</event>
<event>
 6    1  0.1190675E-005  0.3223439E+03  0.7546771E-02  0.1074576E+00
          1   -1    0    0  501    0  0.00000000000E+00  0.00000000000E+00  0.16836857791E+03  0.16836857791E+03  0.00000000000E+00 0. -1.
         -1   -1    0    0    0  501 -0.00000000000E+00 -0.00000000000E+00 -0.15428294575E+03  0.15428294575E+03  0.00000000000E+00 0.  1.
          5    1    1    2  502    0  0.13183869781E+03 -0.29542433498E+02  0.33629010813E+02  0.13930971964E+03  0.47000000000E+01 0. -1.
         -5    1    1    2    0  502 -0.18788154940E+02  0.27155191861E+02  0.92404524919E+01  0.34610333331E+02  0.47000000000E+01 0. -1.
        -11    1    1    2    0    0 -0.72952288902E+02 -0.40915397011E+02 -0.32173909407E+02  0.89617334345E+02  0.00000000000E+00 0.  1.
         11    1    1    2    0    0 -0.40098253968E+02  0.43302638648E+02  0.33900782573E+01  0.59114136344E+02  0.00000000000E+00 0. -1.
<mgrwt>
<rscale>  0 0.32234392E+03</rscale>
<asrwt>0</asrwt>
<pdfrwt beam="1">  1        1 0.25902858E-01 0.32234392E+03</pdfrwt>
<pdfrwt beam="2">  1       -1 0.23735838E-01 0.32234392E+03</pdfrwt>
<totfact> 0.27789052E+03</totfact>
</mgrwt>
</event>
<event>
 6    1  0.1190675E-005  0.1765090E+03  0.7546771E-02  0.1177032E+00
          2   -1    0    0  501    0  0.00000000000E+00  0.00000000000E+00  0.10621249677E+03  0.10621249677E+03  0.00000000000E+00 0. -1.
         -2   -1    0    0    0  501 -0.00000000000E+00 -0.00000000000E+00 -0.27144748996E+03  0.27144748996E+03  0.00000000000E+00 0.  1.
          5    1    1    2  502    0 -0.28184370190E+01  0.28445837584E+02 -0.83209002356E+01  0.30140282743E+02  0.47000000000E+01 0. -1.
         -5    1    1    2    0  502  0.93128860608E+02 -0.11432352076E+03 -0.37859615284E+02  0.15230985702E+03  0.47000000000E+01 0. -1.
        -11    1    1    2    0    0 -0.87925063950E+02  0.74503615755E+02 -0.50752543236E+02  0.12592627318E+03  0.00000000000E+00 0. -1.
         11    1    1    2    0    0 -0.23853596389E+01  0.11374067422E+02 -0.68301934431E+02  0.69283573792E+02  0.00000000000E+00 0.  1.
<mgrwt>
<rscale>  0 0.17078492E+03</rscale>
<asrwt>0</asrwt>
<pdfrwt beam="1">  1        2 0.16340384E-01 0.17650896E+03</pdfrwt>
<pdfrwt beam="2">  1       -2 0.41761152E-01 0.17650896E+03</pdfrwt>
<totfact> 0.18937632E+03</totfact>
</mgrwt>
</event>
<event>
 6    1  0.1190675E-005  0.4029296E+03  0.7546771E-02  0.1042770E+00
          1   -1    0    0  501    0  0.00000000000E+00  0.00000000000E+00  0.32011299833E+03  0.32011299833E+03  0.00000000000E+00 0. -1.
         -1   -1    0    0    0  501 -0.00000000000E+00 -0.00000000000E+00 -0.12679290682E+03  0.12679290682E+03  0.00000000000E+00 0.  1.
          5    1    1    2  502    0 -0.25922097895E+02  0.27607187077E+02  0.53287757932E+02  0.65542254180E+02  0.47000000000E+01 0. -1.
         -5    1    1    2    0  502 -0.88223642385E+02 -0.13030124568E+03  0.12787718758E+03  0.20282132729E+03  0.47000000000E+01 0. -1.
        -11    1    1    2    0    0  0.70364295860E+02  0.15621509298E+02 -0.21855934878E+02  0.75318308359E+02  0.00000000000E+00 0.  1.
         11    1    1    2    0    0  0.43781444420E+02  0.87072549302E+02  0.34011080878E+02  0.10322401533E+03  0.00000000000E+00 0. -1.
<mgrwt>
<rscale>  0 0.40292956E+03</rscale>
<asrwt>0</asrwt>
<pdfrwt beam="1">  1        1 0.49248153E-01 0.40292956E+03</pdfrwt>
<pdfrwt beam="2">  1       -1 0.19506601E-01 0.40292956E+03</pdfrwt>
<totfact> 0.17029009E+03</totfact>
</mgrwt>
</event>
<event>
 6    1  0.1190675E-005  0.3504305E+03  0.7546771E-02  0.1062438E+00
          2   -1    0    0  501    0  0.00000000000E+00  0.00000000000E+00  0.12682566063E+04  0.12682566063E+04  0.00000000000E+00 0. -1.
         -2   -1    0    0    0  501 -0.00000000000E+00 -0.00000000000E+00 -0.24206765762E+02  0.24206765762E+02  0.00000000000E+00 0.  1.
          5    1    1    2  502    0  0.25874554984E+02  0.13781627329E+02  0.28300041159E+02  0.41017169296E+02  0.47000000000E+01 0.  1.
         -5    1    1    2    0  502  0.10381345999E+03 -0.49872892597E+02  0.74134726629E+03  0.75025488944E+03  0.47000000000E+01 0.  1.
        -11    1    1    2    0    0 -0.60315650191E+02  0.47029474897E+02  0.35070105899E+03  0.35894426022E+03  0.00000000000E+00 0. -1.
         11    1    1    2    0    0 -0.69372364779E+02 -0.10938209629E+02  0.12370147413E+03  0.14224705314E+03  0.00000000000E+00 0.  1.
<mgrwt>
<rscale>  0 0.35043054E+03</rscale>
<asrwt>0</asrwt>
<pdfrwt beam="1">  1        2 0.19511635E+00 0.35043054E+03</pdfrwt>
<pdfrwt beam="2">  1       -2 0.37241188E-02 0.35043054E+03</pdfrwt>
<totfact> 0.56165556E+03</totfact>
</mgrwt>
</event>
<event>
 6    1  0.1190675E-005  0.1394268E+03  0.7546771E-02  0.1245696E+00
         -1   -1    0    0    0  501 -0.00000000000E+00  0.00000000000E+00  0.17339622056E+02  0.17339622056E+02  0.00000000000E+00 0.  1.
          1   -1    0    0  501    0  0.00000000000E+00 -0.00000000000E+00 -0.70187153158E+03  0.70187153158E+03  0.00000000000E+00 0. -1.
          5    1    1    2  502    0 -0.50485873610E+02 -0.41310510151E+01 -0.36656783592E+03  0.37008101457E+03  0.47000000000E+01 0.  1.
         -5    1    1    2    0  502  0.32473576957E+02  0.63200574461E+02 -0.17013522335E+03  0.18443679144E+03  0.47000000000E+01 0.  1.
        -11    1    1    2    0    0  0.67752675839E+01 -0.32689257730E+02 -0.12065674896E+03  0.12519002712E+03  0.00000000000E+00 0. -1.
         11    1    1    2    0    0  0.11237029069E+02 -0.26380265717E+02 -0.27172101293E+02  0.39503320496E+02  0.00000000000E+00 0.  1.
<mgrwt>
<rscale>  0 0.11843809E+03</rscale>
<asrwt>0</asrwt>
<pdfrwt beam="2">  1        1 0.10798025E+00 0.13942677E+03</pdfrwt>
<pdfrwt beam="1">  1       -1 0.26676338E-02 0.13942677E+03</pdfrwt>
<totfact> 0.12055121E+04</totfact>
</mgrwt>
</event>
<event>
 6    1  0.1190675E-005  0.2587651E+03  0.7546771E-02  0.1110963E+00
          1   -1    0    0  501    0  0.00000000000E+00  0.00000000000E+00  0.31251005786E+03  0.31251005786E+03  0.00000000000E+00 0. -1.
         -1   -1    0    0    0  501 -0.00000000000E+00 -0.00000000000E+00 -0.20344133604E+03  0.20344133604E+03  0.00000000000E+00 0.  1.
          5    1    1    2  502    0 -0.15725704269E+03 -0.25206726177E+02  0.70725747203E+02  0.17432549394E+03  0.47000000000E+01 0.  1.
         -5    1    1    2    0  502 -0.37112916771E+02 -0.91224431617E+02  0.26434898142E+02  0.10207918179E+03  0.47000000000E+01 0.  1.
        -11    1    1    2    0    0  0.73955593821E+02  0.17652144265E+02 -0.23968855616E+02  0.79721603685E+02  0.00000000000E+00 0.  1.
         11    1    1    2    0    0  0.12041436564E+03  0.98779013530E+02  0.35876932098E+02  0.15982511449E+03  0.00000000000E+00 0. -1.
<mgrwt>
<rscale>  0 0.25374206E+03</rscale>
<asrwt>0</asrwt>
<pdfrwt beam="1">  1        1 0.48078471E-01 0.25876506E+03</pdfrwt>
<pdfrwt beam="2">  1       -1 0.31298667E-01 0.25876506E+03</pdfrwt>
<totfact> 0.79207757E+02</totfact>
</mgrwt>
</event>
<event>
 6    1  0.1190675E-005  0.1640943E+03  0.7546771E-02  0.1190968E+00
          3   -1    0    0  501    0  0.00000000000E+00  0.00000000000E+00  0.54795592196E+03  0.54795592196E+03  0.00000000000E+00 0. -1.
         -3   -1    0    0    0  501 -0.00000000000E+00 -0.00000000000E+00 -0.43311918499E+02  0.43311918499E+02  0.00000000000E+00 0.  1.
          5    1    1    2  502    0  0.41760705243E+02 -0.49017486407E+01  0.10056730660E+03  0.10910479732E+03  0.47000000000E+01 0.  1.
         -5    1    1    2    0  502 -0.56991508410E+02 -0.10030809331E+03  0.12969072919E+03  0.17364193287E+03  0.47000000000E+01 0.  1.
        -11    1    1    2    0    0  0.21988570445E+01  0.86055780682E+02  0.27192285181E+03  0.28522354338E+03  0.00000000000E+00 0. -1.
         11    1    1    2    0    0  0.13031946123E+02  0.19154061265E+02  0.24631158520E+01  0.23297566877E+02  0.00000000000E+00 0.  1.
<mgrwt>
<rscale>  0 0.15800481E+03</rscale>
<asrwt>0</asrwt>
<pdfrwt beam="1">  1        3 0.84300906E-01 0.16409433E+03</pdfrwt>
<pdfrwt beam="2">  1       -3 0.66633725E-02 0.16409433E+03</pdfrwt>
<totfact> 0.45563348E+02</totfact>
</mgrwt>
</event>
<event>
 6    1  0.1190675E-005  0.1371950E+03  0.7546771E-02  0.1225573E+00
          1   -1    0    0  501    0  0.00000000000E+00  0.00000000000E+00  0.50131485470E+02  0.50131485470E+02  0.00000000000E+00 0. -1.
         -1   -1    0    0    0  501 -0.00000000000E+00 -0.00000000000E+00 -0.34950075709E+03  0.34950075709E+03  0.00000000000E+00 0.  1.
          5    1    1    2  502    0 -0.76759834444E-01  0.95349463059E+02 -0.83074044751E+02  0.12655004113E+03  0.47000000000E+01 0. -1.
         -5    1    1    2    0  502 -0.64849190828E+01 -0.39189381185E+02 -0.18034155280E+02  0.43876902008E+02  0.47000000000E+01 0. -1.
        -11    1    1    2    0    0  0.29350851502E+02 -0.47812226484E+02 -0.19707651694E+03  0.20490640549E+03  0.00000000000E+00 0.  1.
         11    1    1    2    0    0 -0.22789172585E+02 -0.83478553897E+01 -0.11845546577E+01  0.24298893935E+02  0.00000000000E+00 0. -1.
<mgrwt>
<rscale>  0 0.13127710E+03</rscale>
<asrwt>0</asrwt>
<pdfrwt beam="1">  1        1 0.77125365E-02 0.13719502E+03</pdfrwt>
<pdfrwt beam="2">  1       -1 0.53769346E-01 0.13719502E+03</pdfrwt>
<totfact> 0.31576868E+03</totfact>
</mgrwt>
</event>
<event>
 6    1  0.1190675E-005  0.1255450E+03  0.7546771E-02  0.1248483E+00
         -1   -1    0    0    0  501 -0.00000000000E+00  0.00000000000E+00  0.13385920336E+02  0.13385920336E+02  0.00000000000E+00 0.  1.
          1   -1    0    0  501    0  0.00000000000E+00 -0.00000000000E+00 -0.91162934498E+03  0.91162934498E+03  0.00000000000E+00 0. -1.
          5    1    1    2  502    0  0.15322010926E+01  0.48931906930E+02 -0.39748822118E+03  0.40051923191E+03  0.47000000000E+01 0. -1.
         -5    1    1    2    0  502 -0.23614830866E+01 -0.60572747625E+02 -0.16597561553E+03  0.17676150404E+03  0.47000000000E+01 0. -1.
        -11    1    1    2    0    0  0.45433822742E+02 -0.45639777380E+01 -0.18838025592E+03  0.19383545332E+03  0.00000000000E+00 0.  1.
         11    1    1    2    0    0 -0.44604540748E+02  0.16204818434E+02 -0.14639933201E+03  0.15389907605E+03  0.00000000000E+00 0. -1.
<mgrwt>
<rscale>  0 0.11679332E+03</rscale>
<asrwt>0</asrwt>
<pdfrwt beam="2">  1        1 0.14025063E+00 0.12554502E+03</pdfrwt>
<pdfrwt beam="1">  1       -1 0.20593730E-02 0.12554502E+03</pdfrwt>
<totfact> 0.11732535E+04</totfact>
</mgrwt>
</event>
<event>
 6    1  0.1190675E-005  0.1446230E+03  0.7546771E-02  0.1227804E+00
         -1   -1    0    0    0  501 -0.00000000000E+00  0.00000000000E+00  0.34373243131E+02  0.34373243131E+02  0.00000000000E+00 0.  1.
          1   -1    0    0  501    0  0.00000000000E+00 -0.00000000000E+00 -0.11698189014E+04  0.11698189014E+04  0.00000000000E+00 0. -1.
          5    1    1    2  502    0 -0.17754391979E+02 -0.28606197808E+02 -0.10805895393E+04  0.10811241258E+04  0.47000000000E+01 0. -1.
         -5    1    1    2    0  502  0.21977576933E-01  0.15609267230E+02 -0.10240300060E+02  0.19251063653E+02  0.47000000000E+01 0.  1.
        -11    1    1    2    0    0 -0.14317112297E+02  0.27351694583E+02  0.15233070910E+02  0.34425881984E+02  0.00000000000E+00 0.  1.
         11    1    1    2    0    0  0.32049526699E+02 -0.14354764004E+02 -0.59848889897E+02  0.69391073152E+02  0.00000000000E+00 0. -1.
<mgrwt>
<rscale>  0 0.12976589E+03</rscale>
<asrwt>0</asrwt>
<pdfrwt beam="2">  1        1 0.17997216E+00 0.14462302E+03</pdfrwt>
<pdfrwt beam="1">  1       -1 0.52881906E-02 0.14462302E+03</pdfrwt>
<totfact> 0.19369956E+03</totfact>
</mgrwt>
</event>
<event>
 6    1  0.1190675E-005  0.1318982E+03  0.7546771E-02  0.1238077E+00
          2   -1    0    0  501    0  0.00000000000E+00  0.00000000000E+00  0.16761523253E+03  0.16761523253E+03  0.00000000000E+00 0. -1.
         -2   -1    0    0    0  501 -0.00000000000E+00 -0.00000000000E+00 -0.88956086767E+02  0.88956086767E+02  0.00000000000E+00 0.  1.
          5    1    1    2  502    0 -0.23213046713E+02 -0.46690346706E+02  0.19868589760E+02  0.55997186289E+02  0.47000000000E+01 0. -1.
         -5    1    1    2    0  502  0.64998825424E+02  0.41424943510E+02  0.64126601963E+02  0.10037521771E+03  0.47000000000E+01 0. -1.
        -11    1    1    2    0    0 -0.11957138099E+02 -0.11199391507E+02  0.40152084029E+02  0.43365762688E+02  0.00000000000E+00 0. -1.
         11    1    1    2    0    0 -0.29828640612E+02  0.16464794703E+02 -0.45488129990E+02  0.56833152608E+02  0.00000000000E+00 0.  1.
<mgrwt>
<rscale>  0 0.12309509E+03</rscale>
<asrwt>0</asrwt>
<pdfrwt beam="1">  1        2 0.25786959E-01 0.13189821E+03</pdfrwt>
<pdfrwt beam="2">  1       -2 0.13685552E-01 0.13189821E+03</pdfrwt>
<totfact> 0.78201056E+03</totfact>
</mgrwt>
</event>
<event>
 6    1  0.1962740E-005  0.3780895E+03  0.7546771E-02  0.1051642E+00
         -3   -1    0    0    0  501 -0.00000000000E+00  0.00000000000E+00  0.66405823911E+02  0.66405823911E+02  0.00000000000E+00 0.  1.
          3   -1    0    0  501    0  0.00000000000E+00 -0.00000000000E+00 -0.53817439776E+03  0.53817439776E+03  0.00000000000E+00 0. -1.
          5    1    1    2  502    0  0.12469771780E+02 -0.69505210672E+01  0.37311337612E+01  0.15486003697E+02  0.47000000000E+01 0. -1.
         -5    1    1    2    0  502 -0.10300559212E+03  0.13142997271E+03 -0.25021883395E+03  0.30085801402E+03  0.47000000000E+01 0. -1.
        -11    1    1    2    0    0  0.56835270912E+02 -0.92204069098E+02 -0.77288215412E+02  0.13306128896E+03  0.00000000000E+00 0.  1.
         11    1    1    2    0    0  0.33700549424E+02 -0.32275382546E+02 -0.14799265825E+03  0.15517491500E+03  0.00000000000E+00 0. -1.
<mgrwt>
<rscale>  0 0.37808948E+03</rscale>
<asrwt>0</asrwt>
<pdfrwt beam="2">  1        3 0.82796061E-01 0.37808948E+03</pdfrwt>
<pdfrwt beam="1">  1       -3 0.10216281E-01 0.37808948E+03</pdfrwt>
<totfact> 0.25562195E+02</totfact>
</mgrwt>
</event>
<event>
 6    1  0.1190675E-005  0.1300973E+03  0.7546771E-02  0.1247123E+00
         -2   -1    0    0    0  501 -0.00000000000E+00  0.00000000000E+00  0.10622791472E+03  0.10622791472E+03  0.00000000000E+00 0.  1.
          2   -1    0    0  501    0  0.00000000000E+00 -0.00000000000E+00 -0.13688912131E+03  0.13688912131E+03  0.00000000000E+00 0. -1.
          5    1    1    2  502    0  0.45424975605E+02  0.65803895222E+01 -0.88001252336E+02  0.99363174001E+02  0.47000000000E+01 0.  1.
         -5    1    1    2    0  502 -0.34910533725E+02  0.27920453585E+02  0.17943783551E+02  0.48398000594E+02  0.47000000000E+01 0.  1.
        -11    1    1    2    0    0 -0.27542218266E+02 -0.51815502640E+02  0.40079138850E+02  0.71061645575E+02  0.00000000000E+00 0.  1.
         11    1    1    2    0    0  0.17027776386E+02  0.17314659533E+02 -0.68287665550E+00  0.24294215853E+02  0.00000000000E+00 0. -1.
<mgrwt>
<rscale>  0 0.11759194E+03</rscale>
<asrwt>0</asrwt>
<pdfrwt beam="2">  1        2 0.21059865E-01 0.13009733E+03</pdfrwt>
<pdfrwt beam="1">  1       -2 0.16342756E-01 0.13009733E+03</pdfrwt>
<totfact> 0.73219498E+03</totfact>
</mgrwt>
</event>
<event>
 6    1  0.1190675E-005  0.2597534E+03  0.7546771E-02  0.1107291E+00
          4   -1    0    0  501    0  0.00000000000E+00  0.00000000000E+00  0.48580487226E+03  0.48580487226E+03  0.00000000000E+00 0. -1.
         -4   -1    0    0    0  501 -0.00000000000E+00 -0.00000000000E+00 -0.34721681607E+02  0.34721681607E+02  0.00000000000E+00 0.  1.
          5    1    1    2  502    0  0.31584313603E+02 -0.21030657043E+02  0.36597755439E+03  0.36796945215E+03  0.47000000000E+01 0. -1.
         -5    1    1    2    0  502  0.79337127658E+01  0.28847179849E+01 -0.87203147893E+01  0.13015348099E+02  0.47000000000E+01 0. -1.
        -11    1    1    2    0    0  0.58769480659E+01  0.33482356161E+02 -0.21779470585E+00  0.33994913255E+02  0.00000000000E+00 0.  1.
         11    1    1    2    0    0 -0.45394974435E+02 -0.15336417103E+02  0.94043745758E+02  0.10554684036E+03  0.00000000000E+00 0. -1.
<mgrwt>
<rscale>  0 0.25975344E+03</rscale>
<asrwt>0</asrwt>
<pdfrwt beam="1">  1        4 0.74739206E-01 0.25975344E+03</pdfrwt>
<pdfrwt beam="2">  1       -4 0.53417975E-02 0.25975344E+03</pdfrwt>
<totfact> 0.65888114E+02</totfact>
</mgrwt>
</event>
<event>
 6    1  0.1190675E-005  0.3962895E+03  0.7546771E-02  0.1045072E+00
         -1   -1    0    0    0  501 -0.00000000000E+00  0.00000000000E+00  0.66045430776E+03  0.66045430776E+03  0.00000000000E+00 0.  1.
          1   -1    0    0  501    0  0.00000000000E+00 -0.00000000000E+00 -0.59445968651E+02  0.59445968651E+02  0.00000000000E+00 0. -1.
          5    1    1    2  502    0  0.22127379521E+02  0.27493007075E+02  0.10198302206E+03  0.10801904069E+03  0.47000000000E+01 0. -1.
         -5    1    1    2    0  502 -0.86255781482E+02  0.10807165018E+03  0.85396600154E+02  0.16258601025E+03  0.47000000000E+01 0. -1.
        -11    1    1    2    0    0 -0.91365049629E+01 -0.66203550897E+02  0.23306073835E+03  0.24245348757E+03  0.00000000000E+00 0.  1.
         11    1    1    2    0    0  0.73264906924E+02 -0.69361106359E+02  0.18056797854E+03  0.20684173790E+03  0.00000000000E+00 0. -1.
<mgrwt>
<rscale>  0 0.39628952E+03</rscale>
<asrwt>0</asrwt>
<pdfrwt beam="2">  1        1 0.91455341E-02 0.39628952E+03</pdfrwt>
<pdfrwt beam="1">  1       -1 0.10160835E+00 0.39628952E+03</pdfrwt>
<totfact> 0.70572964E+02</totfact>
</mgrwt>
</event>
<event>
 6    1  0.1190675E-005  0.1756075E+03  0.7546771E-02  0.1178165E+00
          2   -1    0    0  501    0  0.00000000000E+00  0.00000000000E+00  0.15184399371E+04  0.15184399371E+04  0.00000000000E+00 0.  1.
         -2   -1    0    0    0  501 -0.00000000000E+00 -0.00000000000E+00 -0.17795659456E+02  0.17795659456E+02  0.00000000000E+00 0. -1.
          5    1    1    2  502    0  0.30052717658E+02  0.87339293461E+02  0.72903086309E+03  0.73487373566E+03  0.47000000000E+01 0. -1.
         -5    1    1    2    0  502  0.40549863840E+02  0.13780162224E+02  0.62553471812E+02  0.75955323474E+02  0.47000000000E+01 0. -1.
        -11    1    1    2    0    0 -0.46171725291E+02  0.25989698474E+01  0.19339157261E+03  0.19884386643E+03  0.00000000000E+00 0. -1.
         11    1    1    2    0    0 -0.24430856206E+02 -0.10371842553E+03  0.51566837016E+03  0.52656267102E+03  0.00000000000E+00 0.  1.
<mgrwt>
<rscale>  0 0.16969618E+03</rscale>
<asrwt>0</asrwt>
<pdfrwt beam="1">  1        2 0.23360604E+00 0.17560753E+03</pdfrwt>
<pdfrwt beam="2">  1       -2 0.27377950E-02 0.17560753E+03</pdfrwt>
<totfact> 0.64075689E+03</totfact>
</mgrwt>
</event>
<event>
 6    1  0.1190675E-005  0.1326839E+03  0.7546771E-02  0.1235992E+00
         -1   -1    0    0    0  501 -0.00000000000E+00  0.00000000000E+00  0.19533466560E+02  0.19533466560E+02  0.00000000000E+00 0.  1.
          1   -1    0    0  501    0  0.00000000000E+00 -0.00000000000E+00 -0.12566806824E+04  0.12566806824E+04  0.00000000000E+00 0. -1.
          5    1    1    2  502    0  0.15180109998E+02  0.69909634608E+01 -0.91437256940E+03  0.91453736664E+03  0.47000000000E+01 0. -1.
         -5    1    1    2    0  502 -0.45678808183E+02  0.25039571334E+02 -0.16842430935E+03  0.17635864490E+03  0.47000000000E+01 0. -1.
        -11    1    1    2    0    0 -0.18239719605E+02  0.20306417531E+02 -0.22717527247E+02  0.35512307845E+02  0.00000000000E+00 0.  1.
         11    1    1    2    0    0  0.48738417791E+02 -0.52336952326E+02 -0.13163280981E+03  0.14980582954E+03  0.00000000000E+00 0. -1.
<mgrwt>
<rscale>  0 0.12441120E+03</rscale>
<asrwt>0</asrwt>
<pdfrwt beam="2">  1        1 0.19333550E+00 0.13268394E+03</pdfrwt>
<pdfrwt beam="1">  1       -1 0.30051486E-02 0.13268394E+03</pdfrwt>
<totfact> 0.38704808E+03</totfact>
</mgrwt>
</event>
<event>
 6    1  0.1190675E-005  0.4370399E+03  0.7546771E-02  0.1031659E+00
         -2   -1    0    0    0  501 -0.00000000000E+00  0.00000000000E+00  0.14169131339E+03  0.14169131339E+03  0.00000000000E+00 0.  1.
          2   -1    0    0  501    0  0.00000000000E+00 -0.00000000000E+00 -0.33700702462E+03  0.33700702462E+03  0.00000000000E+00 0. -1.
          5    1    1    2  502    0 -0.11409052413E+02 -0.78928363788E+01  0.10948295940E+02  0.18287113689E+02  0.47000000000E+01 0.  1.
         -5    1    1    2    0  502  0.19758772860E+03 -0.23247912377E+02 -0.12756655741E+03  0.23638251308E+03  0.47000000000E+01 0.  1.
        -11    1    1    2    0    0 -0.20968495136E+02 -0.14082667858E+02 -0.41757894201E+02  0.48802879529E+02  0.00000000000E+00 0. -1.
         11    1    1    2    0    0 -0.16521018105E+03  0.45223416614E+02 -0.36939555554E+02  0.17522583171E+03  0.00000000000E+00 0.  1.
<mgrwt>
<rscale>  0 0.43703990E+03</rscale>
<asrwt>0</asrwt>
<pdfrwt beam="2">  1        2 0.51847235E-01 0.43703990E+03</pdfrwt>
<pdfrwt beam="1">  1       -2 0.21798664E-01 0.43703990E+03</pdfrwt>
<totfact> 0.17553779E+03</totfact>
</mgrwt>
</event>
<event>
 6    1  0.1190675E-005  0.3027328E+03  0.7546771E-02  0.1085430E+00
          1   -1    0    0  501    0  0.00000000000E+00  0.00000000000E+00  0.11619731125E+03  0.11619731125E+03  0.00000000000E+00 0. -1.
         -1   -1    0    0    0  501 -0.00000000000E+00 -0.00000000000E+00 -0.76157269141E+03  0.76157269141E+03  0.00000000000E+00 0.  1.
          5    1    1    2  502    0 -0.10725317270E+02  0.82237952344E+01  0.14973134620E+01  0.14387327278E+02  0.47000000000E+01 0.  1.
         -5    1    1    2    0  502 -0.71565767791E+02 -0.27137683029E+03 -0.29720836524E+03  0.40880551061E+03  0.47000000000E+01 0.  1.
        -11    1    1    2    0    0  0.45590810233E+02  0.59026534386E+02 -0.14574702877E+03  0.16372186823E+03  0.00000000000E+00 0.  1.
         11    1    1    2    0    0  0.36700274828E+02  0.20412650067E+03 -0.20391729960E+03  0.29085529654E+03  0.00000000000E+00 0. -1.
<mgrwt>
<rscale>  0 0.29962049E+03</rscale>
<asrwt>0</asrwt>
<pdfrwt beam="1">  1        1 0.17876509E-01 0.30273281E+03</pdfrwt>
<pdfrwt beam="2">  1       -1 0.11716503E+00 0.30273281E+03</pdfrwt>
<totfact> 0.20732657E+02</totfact>
</mgrwt>
</event>
<event>
 6    1  0.1190675E-005  0.1336788E+03  0.7546771E-02  0.1233492E+00
         -2   -1    0    0    0  501 -0.00000000000E+00  0.00000000000E+00  0.43026355384E+03  0.43026355384E+03  0.00000000000E+00 0.  1.
          2   -1    0    0  501    0  0.00000000000E+00 -0.00000000000E+00 -0.38772265482E+02  0.38772265482E+02  0.00000000000E+00 0. -1.
          5    1    1    2  502    0  0.20787742935E+01 -0.49227390972E+02  0.34061303530E+02  0.60082607488E+02  0.47000000000E+01 0. -1.
         -5    1    1    2    0  502 -0.56931164559E+02  0.59523069234E+02  0.93485082453E+02  0.12468241219E+03  0.47000000000E+01 0.  1.
        -11    1    1    2    0    0  0.54045079629E+02 -0.28306110779E+02  0.25825838661E+03  0.26536672888E+03  0.00000000000E+00 0.  1.
         11    1    1    2    0    0  0.80731063717E+00  0.18010432517E+02  0.56865157649E+01  0.18904070764E+02  0.00000000000E+00 0. -1.
<mgrwt>
<rscale>  0 0.12601497E+03</rscale>
<asrwt>0</asrwt>
<pdfrwt beam="2">  1        2 0.59649642E-02 0.13367884E+03</pdfrwt>
<pdfrwt beam="1">  1       -2 0.66194390E-01 0.13367884E+03</pdfrwt>
<totfact> 0.25641950E+03</totfact>
</mgrwt>
</event>
<event>
 6    1  0.1190675E-005  0.1256441E+03  0.7546771E-02  0.1246211E+00
          1   -1    0    0  501    0  0.00000000000E+00  0.00000000000E+00  0.71797914186E+03  0.71797914186E+03  0.00000000000E+00 0. -1.
         -1   -1    0    0    0  501 -0.00000000000E+00 -0.00000000000E+00 -0.24367224510E+02  0.24367224510E+02  0.00000000000E+00 0.  1.
          5    1    1    2  502    0  0.22960068318E+02 -0.69178021163E+02  0.37000503449E+03  0.37714530210E+03  0.47000000000E+01 0. -1.
         -5    1    1    2    0  502  0.59816440271E+01  0.51141136752E+02  0.20402798277E+03  0.21047732345E+03  0.47000000000E+01 0.  1.
        -11    1    1    2    0    0  0.22475055835E+01  0.24392132109E+02  0.12041639180E+03  0.12288260578E+03  0.00000000000E+00 0. -1.
         11    1    1    2    0    0 -0.31189217929E+02 -0.63552476977E+01 -0.83749170476E+00  0.31841135040E+02  0.00000000000E+00 0.  1.
<mgrwt>
<rscale>  0 0.11813214E+03</rscale>
<asrwt>0</asrwt>
<pdfrwt beam="1">  1        1 0.11045831E+00 0.12564412E+03</pdfrwt>
<pdfrwt beam="2">  1       -1 0.37488043E-02 0.12564412E+03</pdfrwt>
<totfact> 0.70604115E+03</totfact>
</mgrwt>
</event>
<event>
 6    1  0.1190675E-005  0.1359726E+03  0.7546771E-02  0.1231242E+00
          1   -1    0    0  501    0  0.00000000000E+00  0.00000000000E+00  0.20156357246E+03  0.20156357246E+03  0.00000000000E+00 0. -1.
         -1   -1    0    0    0  501 -0.00000000000E+00 -0.00000000000E+00 -0.73621728757E+02  0.73621728757E+02  0.00000000000E+00 0.  1.
          5    1    1    2  502    0 -0.42785254281E+01 -0.27643463075E+02 -0.19524889725E+02  0.34435129583E+02  0.47000000000E+01 0.  1.
         -5    1    1    2    0  502 -0.45007045045E+02  0.48516282822E+02  0.11142668587E+03  0.12968215037E+03  0.47000000000E+01 0.  1.
        -11    1    1    2    0    0 -0.55339390622E+01  0.28798949330E+02  0.19642587664E+02  0.35296390951E+02  0.00000000000E+00 0.  1.
         11    1    1    2    0    0  0.54819509536E+02 -0.49671769076E+02  0.16397459901E+02  0.75771630312E+02  0.00000000000E+00 0. -1.
<mgrwt>
<rscale>  0 0.12748115E+03</rscale>
<asrwt>0</asrwt>
<pdfrwt beam="1">  1        1 0.31009780E-01 0.13597258E+03</pdfrwt>
<pdfrwt beam="2">  1       -1 0.11326420E-01 0.13597258E+03</pdfrwt>
<totfact> 0.69204603E+03</totfact>
</mgrwt>
</event>
<event>
 6    1  0.1190675E-005  0.1647468E+03  0.7546771E-02  0.1191513E+00
          2   -1    0    0  501    0  0.00000000000E+00  0.00000000000E+00  0.27475464998E+03  0.27475464998E+03  0.00000000000E+00 0. -1.
         -2   -1    0    0    0  501 -0.00000000000E+00 -0.00000000000E+00 -0.83652729392E+02  0.83652729392E+02  0.00000000000E+00 0.  1.
          5    1    1    2  502    0 -0.42300485324E+02 -0.53846488721E+02  0.34672154077E+02  0.76896187646E+02  0.47000000000E+01 0. -1.
         -5    1    1    2    0  502 -0.63514690052E+02  0.71821718554E+02  0.56918777680E+02  0.11159889050E+03  0.47000000000E+01 0. -1.
        -11    1    1    2    0    0  0.19274115037E+02  0.14562560721E+02 -0.10387527581E+02  0.26295634894E+02  0.00000000000E+00 0.  1.
         11    1    1    2    0    0  0.86541060339E+02 -0.32537790554E+02  0.10989851641E+03  0.14361666633E+03  0.00000000000E+00 0. -1.
<mgrwt>
<rscale>  0 0.15753050E+03</rscale>
<asrwt>0</asrwt>
<pdfrwt beam="1">  1        2 0.42269946E-01 0.16474676E+03</pdfrwt>
<pdfrwt beam="2">  1       -2 0.12869651E-01 0.16474676E+03</pdfrwt>
<totfact> 0.51384482E+03</totfact>
</mgrwt>
</event>
<event>
 6    1  0.1190675E-005  0.2521470E+03  0.7546771E-02  0.1111955E+00
         -1   -1    0    0    0  501 -0.00000000000E+00  0.00000000000E+00  0.21956296487E+02  0.21956296487E+02  0.00000000000E+00 0.  1.
          1   -1    0    0  501    0  0.00000000000E+00 -0.00000000000E+00 -0.72391649004E+03  0.72391649004E+03  0.00000000000E+00 0. -1.
          5    1    1    2  502    0  0.85299893045E+02 -0.36249530302E+02 -0.38819004196E+03  0.39912867459E+03  0.47000000000E+01 0.  1.
         -5    1    1    2    0  502 -0.34787346429E+02 -0.90392792602E+00 -0.52046709254E+02  0.62784763290E+02  0.47000000000E+01 0.  1.
        -11    1    1    2    0    0 -0.13630203803E+02  0.46409878603E+02 -0.22818751740E+03  0.23325780241E+03  0.00000000000E+00 0. -1.
         11    1    1    2    0    0 -0.36882342813E+02 -0.92564203756E+01 -0.33535924937E+02  0.50701546238E+02  0.00000000000E+00 0.  1.
<mgrwt>
<rscale>  0 0.25214698E+03</rscale>
<asrwt>0</asrwt>
<pdfrwt beam="2">  1        1 0.11137176E+00 0.25214698E+03</pdfrwt>
<pdfrwt beam="1">  1       -1 0.33778920E-02 0.25214698E+03</pdfrwt>
<totfact> 0.84300418E+03</totfact>
</mgrwt>
</event>
<event>
 6    1  0.1190675E-005  0.1841574E+03  0.7546771E-02  0.1168818E+00
          1   -1    0    0  501    0  0.00000000000E+00  0.00000000000E+00  0.87103955398E+02  0.87103955398E+02  0.00000000000E+00 0. -1.
         -1   -1    0    0    0  501 -0.00000000000E+00 -0.00000000000E+00 -0.38798067872E+03  0.38798067872E+03  0.00000000000E+00 0.  1.
          5    1    1    2  502    0  0.13448537169E+03  0.77934634053E+02 -0.65688229067E+02  0.16881100622E+03  0.47000000000E+01 0. -1.
         -5    1    1    2    0  502 -0.27571828099E+02  0.48865121102E+01 -0.16653958430E+02  0.32916987054E+02  0.47000000000E+01 0. -1.
        -11    1    1    2    0    0 -0.12337447415E+03 -0.68902462390E+02 -0.17634297683E+03  0.22597711316E+03  0.00000000000E+00 0.  1.
         11    1    1    2    0    0  0.16460930561E+02 -0.13918683774E+02 -0.42191558994E+02  0.47379527681E+02  0.00000000000E+00 0. -1.
<mgrwt>
<rscale>  0 0.17895547E+03</rscale>
<asrwt>0</asrwt>
<pdfrwt beam="1">  1        1 0.13400608E-01 0.18415740E+03</pdfrwt>
<pdfrwt beam="2">  1       -1 0.59689336E-01 0.18415740E+03</pdfrwt>
<totfact> 0.12587260E+03</totfact>
</mgrwt>
</event>
<event>
 6    1  0.1190675E-005  0.2803652E+03  0.7546771E-02  0.1095490E+00
          1   -1    0    0  501    0  0.00000000000E+00  0.00000000000E+00  0.83616249901E+03  0.83616249901E+03  0.00000000000E+00 0. -1.
         -1   -1    0    0    0  501 -0.00000000000E+00 -0.00000000000E+00 -0.23501610421E+02  0.23501610421E+02  0.00000000000E+00 0.  1.
          5    1    1    2  502    0  0.19223916570E+01 -0.74342901977E+01  0.30168490353E+03  0.30181920959E+03  0.47000000000E+01 0. -1.
         -5    1    1    2    0  502  0.16720469383E+02  0.94263341624E+02  0.18359127802E+03  0.20710625060E+03  0.47000000000E+01 0. -1.
        -11    1    1    2    0    0 -0.45166948421E+02 -0.71608871517E+02  0.16450374641E+03  0.18501180042E+03  0.00000000000E+00 0.  1.
         11    1    1    2    0    0  0.26524087381E+02 -0.15220179910E+02  0.16288096062E+03  0.16572684882E+03  0.00000000000E+00 0. -1.
<mgrwt>
<rscale>  0 0.28036523E+03</rscale>
<asrwt>0</asrwt>
<pdfrwt beam="1">  1        1 0.12864036E+00 0.28036523E+03</pdfrwt>
<pdfrwt beam="2">  1       -1 0.36156330E-02 0.28036523E+03</pdfrwt>
<totfact> 0.61407666E+03</totfact>
</mgrwt>
</event>
<event>
 6    1  0.1190675E-005  0.1276832E+03  0.7546771E-02  0.1247446E+00
         -1   -1    0    0    0  501 -0.00000000000E+00  0.00000000000E+00  0.64217255475E+03  0.64217255475E+03  0.00000000000E+00 0.  1.
          1   -1    0    0  501    0  0.00000000000E+00 -0.00000000000E+00 -0.19446994614E+02  0.19446994614E+02  0.00000000000E+00 0. -1.
          5    1    1    2  502    0  0.19905044355E+02 -0.36595591573E+02  0.41437336910E+02  0.58945661448E+02  0.47000000000E+01 0. -1.
         -5    1    1    2    0  502 -0.33828103777E+02  0.58597072919E+02  0.25406590462E+03  0.26296298495E+03  0.47000000000E+01 0. -1.
        -11    1    1    2    0    0  0.20143473210E+02  0.28719667728E+02  0.19151475694E+03  0.19470100399E+03  0.00000000000E+00 0.  1.
         11    1    1    2    0    0 -0.62204137870E+01 -0.50721149075E+02  0.13570756167E+03  0.14500989899E+03  0.00000000000E+00 0. -1.
<mgrwt>
<rscale>  0 0.11740183E+03</rscale>
<asrwt>0</asrwt>
<pdfrwt beam="2">  1        1 0.29918458E-02 0.12768324E+03</pdfrwt>
<pdfrwt beam="1">  1       -1 0.98795761E-01 0.12768324E+03</pdfrwt>
<totfact> 0.33926220E+03</totfact>
</mgrwt>
</event>
<event>
 6    1  0.1190675E-005  0.2567419E+03  0.7546771E-02  0.1109117E+00
         -1   -1    0    0    0  501 -0.00000000000E+00  0.00000000000E+00  0.37511074998E+03  0.37511074998E+03  0.00000000000E+00 0.  1.
          1   -1    0    0  501    0  0.00000000000E+00 -0.00000000000E+00 -0.43931300213E+02  0.43931300213E+02  0.00000000000E+00 0. -1.
          5    1    1    2  502    0 -0.85526631984E+01 -0.11390801181E+01  0.13493204657E+03  0.13528929279E+03  0.47000000000E+01 0. -1.
         -5    1    1    2    0  502 -0.13094795597E+02 -0.57248491169E+02  0.19988135383E-01  0.58914801302E+02  0.47000000000E+01 0. -1.
        -11    1    1    2    0    0 -0.22092125553E+02  0.12979749140E+02  0.13337149338E+03  0.13581049718E+03  0.00000000000E+00 0.  1.
         11    1    1    2    0    0  0.43739584348E+02  0.45407822147E+02  0.62855921678E+02  0.89027458916E+02  0.00000000000E+00 0. -1.
<mgrwt>
<rscale>  0 0.25674192E+03</rscale>
<asrwt>0</asrwt>
<pdfrwt beam="2">  1        1 0.67586618E-02 0.25674192E+03</pdfrwt>
<pdfrwt beam="1">  1       -1 0.57709344E-01 0.25674192E+03</pdfrwt>
<totfact> 0.34119550E+03</totfact>
</mgrwt>
</event>
<event>
 6    1  0.1190675E-005  0.1475725E+03  0.7546771E-02  0.1213061E+00
          1   -1    0    0  501    0  0.00000000000E+00  0.00000000000E+00  0.14627910689E+03  0.14627910689E+03  0.00000000000E+00 0. -1.
         -1   -1    0    0    0  501 -0.00000000000E+00 -0.00000000000E+00 -0.12619864842E+03  0.12619864842E+03  0.00000000000E+00 0.  1.
          5    1    1    2  502    0  0.73004786493E+00  0.66295203374E+02 -0.77778652634E+01  0.66919146351E+02  0.47000000000E+01 0. -1.
         -5    1    1    2    0  502 -0.68355250710E+02 -0.26478827344E+02  0.41832421437E+02  0.84531710502E+02  0.47000000000E+01 0. -1.
        -11    1    1    2    0    0  0.23342720936E+02 -0.36943047506E+02 -0.48144454991E+02  0.65019688757E+02  0.00000000000E+00 0.  1.
         11    1    1    2    0    0  0.44282481909E+02 -0.28733285231E+01  0.34170357290E+02  0.56007209698E+02  0.00000000000E+00 0. -1.
<mgrwt>
<rscale>  0 0.14019935E+03</rscale>
<asrwt>0</asrwt>
<pdfrwt beam="1">  1        1 0.22504478E-01 0.14757252E+03</pdfrwt>
<pdfrwt beam="2">  1       -1 0.19415177E-01 0.14757252E+03</pdfrwt>
<totfact> 0.44640042E+03</totfact>
</mgrwt>
</event>
<event>
 6    1  0.1190675E-005  0.1503501E+03  0.7546771E-02  0.1209356E+00
          2   -1    0    0  501    0  0.00000000000E+00  0.00000000000E+00  0.55945926268E+03  0.55945926268E+03  0.00000000000E+00 0. -1.
         -2   -1    0    0    0  501 -0.00000000000E+00 -0.00000000000E+00 -0.35469806136E+02  0.35469806136E+02  0.00000000000E+00 0.  1.
          5    1    1    2  502    0 -0.81576160523E+02 -0.97567149963E+01  0.11979061092E+03  0.14533321684E+03  0.47000000000E+01 0.  1.
         -5    1    1    2    0  502  0.17673825237E+02 -0.44062208106E+02  0.23850371840E+03  0.24322819732E+03  0.47000000000E+01 0.  1.
        -11    1    1    2    0    0  0.61671646091E+02  0.12100904555E+02  0.14838534766E+03  0.16114600591E+03  0.00000000000E+00 0.  1.
         11    1    1    2    0    0  0.22306891946E+01  0.41718018547E+02  0.17309779565E+02  0.45221648735E+02  0.00000000000E+00 0. -1.
<mgrwt>
<rscale>  0 0.14299387E+03</rscale>
<asrwt>0</asrwt>
<pdfrwt beam="1">  1        2 0.86070650E-01 0.15035008E+03</pdfrwt>
<pdfrwt beam="2">  1       -2 0.54568936E-02 0.15035008E+03</pdfrwt>
<totfact> 0.90187351E+03</totfact>
</mgrwt>
</event>
<event>
 6    1  0.1190675E-005  0.2809097E+03  0.7546771E-02  0.1095193E+00
         -1   -1    0    0    0  501 -0.00000000000E+00  0.00000000000E+00  0.20770684802E+03  0.20770684802E+03  0.00000000000E+00 0.  1.
          1   -1    0    0  501    0  0.00000000000E+00 -0.00000000000E+00 -0.94977889938E+02  0.94977889938E+02  0.00000000000E+00 0. -1.
          5    1    1    2  502    0  0.49820544635E+01 -0.11523144736E+01 -0.34261814633E+02  0.34958699022E+02  0.47000000000E+01 0.  1.
         -5    1    1    2    0  502 -0.85015656281E+02  0.38381297405E+02  0.84932032611E+02  0.12623916178E+03  0.47000000000E+01 0.  1.
        -11    1    1    2    0    0  0.52342341011E+02 -0.49485396342E+02  0.78901097727E+02  0.10683589442E+03  0.00000000000E+00 0.  1.
         11    1    1    2    0    0  0.27691260807E+02  0.12256413410E+02 -0.16842357619E+02  0.34650982741E+02  0.00000000000E+00 0. -1.
<mgrwt>
<rscale>  0 0.28090965E+03</rscale>
<asrwt>0</asrwt>
<pdfrwt beam="2">  1        1 0.14611983E-01 0.28090965E+03</pdfrwt>
<pdfrwt beam="1">  1       -1 0.31954900E-01 0.28090965E+03</pdfrwt>
<totfact> 0.35209546E+03</totfact>
</mgrwt>
</event>
<event>
 6    1  0.1190675E-005  0.1666276E+03  0.7546771E-02  0.1188107E+00
         -1   -1    0    0    0  501 -0.00000000000E+00  0.00000000000E+00  0.52067092268E+03  0.52067092268E+03  0.00000000000E+00 0.  1.
          1   -1    0    0  501    0  0.00000000000E+00 -0.00000000000E+00 -0.46285690867E+02  0.46285690867E+02  0.00000000000E+00 0. -1.
          5    1    1    2  502    0  0.22726950893E+02  0.11607128265E+02  0.10080233356E+03  0.10408861693E+03  0.47000000000E+01 0.  1.
         -5    1    1    2    0  502 -0.12020686198E+03  0.39756497768E+02  0.14093487095E+03  0.18951252368E+03  0.47000000000E+01 0.  1.
        -11    1    1    2    0    0 -0.62896625436E+01 -0.38160180117E+02  0.69981459922E+02  0.79957263174E+02  0.00000000000E+00 0.  1.
         11    1    1    2    0    0  0.10376957363E+03 -0.13203445916E+02  0.16266656738E+03  0.19339820976E+03  0.00000000000E+00 0. -1.
<mgrwt>
<rscale>  0 0.16052349E+03</rscale>
<asrwt>0</asrwt>
<pdfrwt beam="2">  1        1 0.71208759E-02 0.16662759E+03</pdfrwt>
<pdfrwt beam="1">  1       -1 0.80103215E-01 0.16662759E+03</pdfrwt>
<totfact> 0.16314427E+03</totfact>
</mgrwt>
</event>
<event>
 6    1  0.1190675E-005  0.3443718E+03  0.7546771E-02  0.1064949E+00
         -2   -1    0    0    0  501 -0.00000000000E+00  0.00000000000E+00  0.17338203556E+02  0.17338203556E+02  0.00000000000E+00 0.  1.
          2   -1    0    0  501    0  0.00000000000E+00 -0.00000000000E+00 -0.17099801566E+04  0.17099801566E+04  0.00000000000E+00 0. -1.
          5    1    1    2  502    0  0.14689361278E+01 -0.11408009927E+03 -0.58541141510E+03  0.59644366184E+03  0.47000000000E+01 0.  1.
         -5    1    1    2    0  502 -0.23515720317E+02  0.24343987546E+02 -0.10914121837E+03  0.11436570456E+03  0.47000000000E+01 0.  1.
        -11    1    1    2    0    0  0.76434824145E+02 -0.11039043939E+02 -0.35496104080E+03  0.36326503179E+03  0.00000000000E+00 0.  1.
         11    1    1    2    0    0 -0.54388039956E+02  0.10077515566E+03 -0.64312827873E+03  0.65324396192E+03  0.00000000000E+00 0. -1.
<mgrwt>
<rscale>  0 0.34437180E+03</rscale>
<asrwt>0</asrwt>
<pdfrwt beam="2">  1        2 0.26307393E+00 0.34437180E+03</pdfrwt>
<pdfrwt beam="1">  1       -2 0.26674153E-02 0.34437180E+03</pdfrwt>
<totfact> 0.53331957E+03</totfact>
</mgrwt>
</event>
<event>
 6    1  0.1190675E-005  0.1504763E+03  0.7546771E-02  0.1208268E+00
          1   -1    0    0  501    0  0.00000000000E+00  0.00000000000E+00  0.35542926218E+03  0.35542926218E+03  0.00000000000E+00 0. -1.
         -1   -1    0    0    0  501 -0.00000000000E+00 -0.00000000000E+00 -0.95140783338E+02  0.95140783338E+02  0.00000000000E+00 0.  1.
          5    1    1    2  502    0 -0.73514436479E+02  0.20309869744E+02  0.80967253898E+02  0.11133125969E+03  0.47000000000E+01 0.  1.
         -5    1    1    2    0  502 -0.35370862175E+01 -0.53185847103E+02  0.20429289228E+03  0.21118456655E+03  0.47000000000E+01 0.  1.
        -11    1    1    2    0    0  0.14440538666E+02  0.95296837834E+01  0.34503017747E+02  0.38597956729E+02  0.00000000000E+00 0. -1.
         11    1    1    2    0    0  0.62610984030E+02  0.23346293576E+02 -0.59474685083E+02  0.89456262557E+02  0.00000000000E+00 0.  1.
<mgrwt>
<rscale>  0 0.14382844E+03</rscale>
<asrwt>0</asrwt>
<pdfrwt beam="1">  1        1 0.54681424E-01 0.15047627E+03</pdfrwt>
<pdfrwt beam="2">  1       -1 0.14637044E-01 0.15047627E+03</pdfrwt>
<totfact> 0.23107640E+03</totfact>
</mgrwt>
</event>
<event>
 6    1  0.1190675E-005  0.2060882E+03  0.7546771E-02  0.1148549E+00
          2   -1    0    0  501    0  0.00000000000E+00  0.00000000000E+00  0.12044303233E+03  0.12044303233E+03  0.00000000000E+00 0. -1.
         -2   -1    0    0    0  501 -0.00000000000E+00 -0.00000000000E+00 -0.41040049210E+03  0.41040049210E+03  0.00000000000E+00 0.  1.
          5    1    1    2  502    0 -0.11696429395E+03  0.21707097990E+02 -0.72738756227E+02  0.13951652526E+03  0.47000000000E+01 0.  1.
         -5    1    1    2    0  502 -0.46868776024E+02 -0.20053089296E+02  0.45339044838E+02  0.68385141245E+02  0.47000000000E+01 0.  1.
        -11    1    1    2    0    0  0.86227019479E+02 -0.46694668271E+02 -0.14525031881E+03  0.17525166490E+03  0.00000000000E+00 0.  1.
         11    1    1    2    0    0  0.77606050493E+02  0.45040659576E+02 -0.11730742956E+03  0.14769019303E+03  0.00000000000E+00 0. -1.
<mgrwt>
<rscale>  0 0.20141697E+03</rscale>
<asrwt>0</asrwt>
<pdfrwt beam="1">  1        2 0.18529697E-01 0.20608823E+03</pdfrwt>
<pdfrwt beam="2">  1       -2 0.63138539E-01 0.20608823E+03</pdfrwt>
<totfact> 0.71855021E+02</totfact>
</mgrwt>
</event>
<event>
 6    1  0.1190675E-005  0.1428940E+03  0.7546771E-02  0.1219907E+00
         -3   -1    0    0    0  501 -0.00000000000E+00  0.00000000000E+00  0.22298704990E+03  0.22298704990E+03  0.00000000000E+00 0.  1.
          3   -1    0    0  501    0  0.00000000000E+00 -0.00000000000E+00 -0.85517133216E+02  0.85517133216E+02  0.00000000000E+00 0. -1.
          5    1    1    2  502    0  0.88127221612E+02  0.40879078851E+02  0.29501613836E+02  0.10163631977E+03  0.47000000000E+01 0. -1.
         -5    1    1    2    0  502 -0.19025872270E+02 -0.36586599536E+02 -0.96997616956E+01  0.42623215015E+02  0.47000000000E+01 0. -1.
        -11    1    1    2    0    0 -0.15044313308E+02 -0.19770261306E+02 -0.83839061533E+01  0.26219925199E+02  0.00000000000E+00 0.  1.
         11    1    1    2    0    0 -0.54057036034E+02  0.15477781991E+02  0.12605197070E+03  0.13802472314E+03  0.00000000000E+00 0. -1.
<mgrwt>
<rscale>  0 0.13522152E+03</rscale>
<asrwt>0</asrwt>
<pdfrwt beam="2">  1        3 0.13156482E-01 0.14289402E+03</pdfrwt>
<pdfrwt beam="1">  1       -3 0.34305700E-01 0.14289402E+03</pdfrwt>
<totfact> 0.90179248E+02</totfact>
</mgrwt>
</event>
<event>
 6    1  0.1190675E-005  0.1521228E+03  0.7546771E-02  0.1206525E+00
          2   -1    0    0  501    0  0.00000000000E+00  0.00000000000E+00  0.96860184953E+03  0.96860184953E+03  0.00000000000E+00 0. -1.
         -2   -1    0    0    0  501 -0.00000000000E+00 -0.00000000000E+00 -0.20097992845E+02  0.20097992845E+02  0.00000000000E+00 0.  1.
          5    1    1    2  502    0  0.56654595011E+02 -0.18275265944E+02  0.53622198321E+03  0.53953668435E+03  0.47000000000E+01 0. -1.
         -5    1    1    2    0  502  0.20347862164E+02 -0.21553257766E+02  0.17585548474E+02  0.34783903319E+02  0.47000000000E+01 0. -1.
        -11    1    1    2    0    0  0.11393544635E+02  0.35762574470E+02  0.10790213330E+03  0.11424379617E+03  0.00000000000E+00 0.  1.
         11    1    1    2    0    0 -0.88396001810E+02  0.40659492397E+01  0.28679419169E+03  0.30013545853E+03  0.00000000000E+00 0. -1.
<mgrwt>
<rscale>  0 0.14517962E+03</rscale>
<asrwt>0</asrwt>
<pdfrwt beam="1">  1        2 0.14901563E+00 0.15212283E+03</pdfrwt>
<pdfrwt beam="2">  1       -2 0.30919997E-02 0.15212283E+03</pdfrwt>
<totfact> 0.10772180E+04</totfact>
</mgrwt>
</event>
<event>
 6    1  0.1190675E-005  0.1883527E+03  0.7546771E-02  0.1165116E+00
          2   -1    0    0  501    0  0.00000000000E+00  0.00000000000E+00  0.27329892051E+03  0.27329892051E+03  0.00000000000E+00 0. -1.
         -2   -1    0    0    0  501 -0.00000000000E+00 -0.00000000000E+00 -0.11788405528E+03  0.11788405528E+03  0.00000000000E+00 0.  1.
          5    1    1    2  502    0 -0.23022130028E+02 -0.52811735245E+02  0.11684402025E+03  0.13035993602E+03  0.47000000000E+01 0. -1.
         -5    1    1    2    0  502  0.49985606181E+01 -0.86931036361E+02 -0.73426451445E+01  0.87509971597E+02  0.47000000000E+01 0. -1.
        -11    1    1    2    0    0  0.25747661953E+02  0.50862673388E+02  0.60258519760E+02  0.82952051475E+02  0.00000000000E+00 0. -1.
         11    1    1    2    0    0 -0.77240925429E+01  0.88880098219E+02 -0.14345029634E+02  0.90361016706E+02  0.00000000000E+00 0.  1.
<mgrwt>
<rscale>  0 0.18280436E+03</rscale>
<asrwt>0</asrwt>
<pdfrwt beam="1">  1        2 0.42045988E-01 0.18835272E+03</pdfrwt>
<pdfrwt beam="2">  1       -2 0.18136009E-01 0.18835272E+03</pdfrwt>
<totfact> 0.29551327E+03</totfact>
</mgrwt>
</event>
<event>
 6    1  0.1190675E-005  0.2902376E+03  0.7546771E-02  0.1091858E+00
          2   -1    0    0  501    0  0.00000000000E+00  0.00000000000E+00  0.15578739300E+03  0.15578739300E+03  0.00000000000E+00 0. -1.
         -2   -1    0    0    0  501 -0.00000000000E+00 -0.00000000000E+00 -0.51831347650E+03  0.51831347650E+03  0.00000000000E+00 0.  1.
          5    1    1    2  502    0  0.17936697304E+02 -0.68219611180E+02 -0.10547979228E+03  0.12697919924E+03  0.47000000000E+01 0.  1.
         -5    1    1    2    0  502 -0.69603211643E+02 -0.18857821866E+03 -0.73908162482E+02  0.21422151644E+03  0.47000000000E+01 0.  1.
        -11    1    1    2    0    0  0.16923918428E+02  0.17044530558E+03 -0.66655231019E+02  0.18379592223E+03  0.00000000000E+00 0. -1.
         11    1    1    2    0    0  0.34742595911E+02  0.86352524267E+02 -0.11648289771E+03  0.14910423159E+03  0.00000000000E+00 0.  1.
<mgrwt>
<rscale>  0 0.28712814E+03</rscale>
<asrwt>0</asrwt>
<pdfrwt beam="1">  1        2 0.23967292E-01 0.29023764E+03</pdfrwt>
<pdfrwt beam="2">  1       -2 0.79740534E-01 0.29023764E+03</pdfrwt>
<totfact> 0.32493675E+02</totfact>
</mgrwt>
</event>
<event>
 6    1  0.1190675E-005  0.2953523E+03  0.7546771E-02  0.1087587E+00
         -1   -1    0    0    0  501 -0.00000000000E+00  0.00000000000E+00  0.65282082841E+02  0.65282082841E+02  0.00000000000E+00 0.  1.
          1   -1    0    0  501    0  0.00000000000E+00 -0.00000000000E+00 -0.33406173929E+03  0.33406173929E+03  0.00000000000E+00 0. -1.
          5    1    1    2  502    0 -0.99060378653E+02  0.11357399724E+02 -0.18999717676E+03  0.21462284670E+03  0.47000000000E+01 0. -1.
         -5    1    1    2    0  502  0.76937027912E+01  0.98532239194E+01  0.14959104468E+02  0.20053525644E+02  0.47000000000E+01 0. -1.
        -11    1    1    2    0    0  0.28987793087E+02 -0.54206307920E+01  0.18839972191E+02  0.34994570127E+02  0.00000000000E+00 0.  1.
         11    1    1    2    0    0  0.62378882774E+02 -0.15789992852E+02 -0.11258155635E+03  0.12967287967E+03  0.00000000000E+00 0. -1.
<mgrwt>
<rscale>  0 0.29535231E+03</rscale>
<asrwt>0</asrwt>
<pdfrwt beam="2">  1        1 0.51394113E-01 0.29535231E+03</pdfrwt>
<pdfrwt beam="1">  1       -1 0.10043398E-01 0.29535231E+03</pdfrwt>
<totfact> 0.46120703E+03</totfact>
</mgrwt>
</event>
<event>
 6    1  0.1190675E-005  0.1516945E+03  0.7546771E-02  0.1207245E+00
          2   -1    0    0  501    0  0.00000000000E+00  0.00000000000E+00  0.60248997427E+03  0.60248997427E+03  0.00000000000E+00 0. -1.
         -2   -1    0    0    0  501 -0.00000000000E+00 -0.00000000000E+00 -0.50571924828E+02  0.50571924828E+02  0.00000000000E+00 0.  1.
          5    1    1    2  502    0  0.29882779490E+02 -0.43971908447E+02  0.11202687043E+03  0.12409117189E+03  0.47000000000E+01 0.  1.
         -5    1    1    2    0  502  0.49695017628E+02  0.76434405838E+02  0.37863953256E+03  0.38948915105E+03  0.47000000000E+01 0.  1.
        -11    1    1    2    0    0 -0.44250475396E+02  0.17091051677E+02  0.62681538018E+02  0.78607784783E+02  0.00000000000E+00 0. -1.
         11    1    1    2    0    0 -0.35327321722E+02 -0.49553549068E+02 -0.14298915703E+01  0.60873791365E+02  0.00000000000E+00 0.  1.
<mgrwt>
<rscale>  0 0.14461937E+03</rscale>
<asrwt>0</asrwt>
<pdfrwt beam="1">  1        2 0.92690760E-01 0.15169453E+03</pdfrwt>
<pdfrwt beam="2">  1       -2 0.77802966E-02 0.15169453E+03</pdfrwt>
<totfact> 0.48245627E+03</totfact>
</mgrwt>
</event>
<event>
 6    1  0.1190675E-005  0.1358627E+03  0.7546771E-02  0.1235231E+00
          2   -1    0    0  501    0  0.00000000000E+00  0.00000000000E+00  0.26177299040E+03  0.26177299040E+03  0.00000000000E+00 0. -1.
         -2   -1    0    0    0  501 -0.00000000000E+00 -0.00000000000E+00 -0.52028483219E+02  0.52028483219E+02  0.00000000000E+00 0.  1.
          5    1    1    2  502    0  0.65489687663E+02  0.26889969374E+02  0.12789002146E+03  0.14625292214E+03  0.47000000000E+01 0. -1.
         -5    1    1    2    0  502 -0.12513096120E+02 -0.21419538021E+02 -0.15882059821E+02  0.29827906525E+02  0.47000000000E+01 0. -1.
        -11    1    1    2    0    0 -0.22985687929E+02  0.13867942171E+02  0.98433730609E+02  0.10202872630E+03  0.00000000000E+00 0. -1.
         11    1    1    2    0    0 -0.29990903615E+02 -0.19338373524E+02 -0.69718507259E+00  0.35691918654E+02  0.00000000000E+00 0.  1.
<mgrwt>
<rscale>  0 0.12489645E+03</rscale>
<asrwt>0</asrwt>
<pdfrwt beam="1">  1        2 0.40272767E-01 0.13586271E+03</pdfrwt>
<pdfrwt beam="2">  1       -2 0.80043822E-02 0.13586271E+03</pdfrwt>
<totfact> 0.11298715E+04</totfact>
</mgrwt>
</event>
<event>
 6    1  0.1190675E-005  0.2321377E+03  0.7546771E-02  0.1128075E+00
         -2   -1    0    0    0  501 -0.00000000000E+00  0.00000000000E+00  0.12421469615E+03  0.12421469615E+03  0.00000000000E+00 0. -1.
          2   -1    0    0  501    0  0.00000000000E+00 -0.00000000000E+00 -0.47079649515E+03  0.47079649515E+03  0.00000000000E+00 0.  1.
          5    1    1    2  502    0 -0.98796101920E+02  0.83739612489E+02 -0.12621392076E+03  0.18090062534E+03  0.47000000000E+01 0. -1.
         -5    1    1    2    0  502  0.19737149158E+02  0.95178699460E+02 -0.16442054549E+03  0.19106215132E+03  0.47000000000E+01 0. -1.
        -11    1    1    2    0    0 -0.45907606647E+01 -0.23291346987E+02  0.19702834147E+02  0.30850666142E+02  0.00000000000E+00 0.  1.
         11    1    1    2    0    0  0.83649713426E+02 -0.15562696496E+03 -0.75650166890E+02  0.19219774850E+03  0.00000000000E+00 0. -1.
<mgrwt>
<rscale>  0 0.22797193E+03</rscale>
<asrwt>0</asrwt>
<pdfrwt beam="2">  1        2 0.72430229E-01 0.23213771E+03</pdfrwt>
<pdfrwt beam="1">  1       -2 0.19109953E-01 0.23213771E+03</pdfrwt>
<totfact> 0.15103128E+03</totfact>
</mgrwt>
</event>
<event>
 6    1  0.1190675E-005  0.1336239E+03  0.7546771E-02  0.1234390E+00
          1   -1    0    0  501    0  0.00000000000E+00  0.00000000000E+00  0.48370808954E+03  0.48370808954E+03  0.00000000000E+00 0. -1.
         -1   -1    0    0    0  501 -0.00000000000E+00 -0.00000000000E+00 -0.30924504361E+02  0.30924504361E+02  0.00000000000E+00 0.  1.
          5    1    1    2  502    0  0.46213597234E+02 -0.54339101770E+01  0.20257765840E+03  0.20790628089E+03  0.47000000000E+01 0. -1.
         -5    1    1    2    0  502 -0.61897290339E+02 -0.39125719900E+02  0.11225282250E+03  0.13410772785E+03  0.47000000000E+01 0. -1.
        -11    1    1    2    0    0  0.82634602111E+01  0.71994742183E+02  0.11570483940E+03  0.13652522674E+03  0.00000000000E+00 0.  1.
         11    1    1    2    0    0  0.74202328936E+01 -0.27435112106E+02  0.22248264883E+02  0.36093358430E+02  0.00000000000E+00 0. -1.
<mgrwt>
<rscale>  0 0.12543552E+03</rscale>
<asrwt>0</asrwt>
<pdfrwt beam="1">  1        1 0.74416624E-01 0.13362391E+03</pdfrwt>
<pdfrwt beam="2">  1       -1 0.47576164E-02 0.13362391E+03</pdfrwt>
<totfact> 0.85357233E+03</totfact>
</mgrwt>
</event>
<event>
 6    1  0.1190675E-005  0.2953128E+03  0.7546771E-02  0.1089198E+00
          2   -1    0    0  501    0  0.00000000000E+00  0.00000000000E+00  0.15204801653E+04  0.15204801653E+04  0.00000000000E+00 0. -1.
         -2   -1    0    0    0  501 -0.00000000000E+00 -0.00000000000E+00 -0.79215995506E+02  0.79215995506E+02  0.00000000000E+00 0.  1.
          5    1    1    2  502    0  0.20971819307E+03  0.14020188046E+03  0.95603829092E+03  0.98877175905E+03  0.47000000000E+01 0.  1.
         -5    1    1    2    0  502 -0.11296068605E+02  0.39280114280E+02  0.21719118993E+03  0.22105345853E+03  0.47000000000E+01 0.  1.
        -11    1    1    2    0    0 -0.20256215655E+02 -0.67143234143E+02  0.46252755417E+02  0.84010984684E+02  0.00000000000E+00 0. -1.
         11    1    1    2    0    0 -0.17816590881E+03 -0.11233876060E+03  0.22178193348E+03  0.30585995850E+03  0.00000000000E+00 0.  1.
<mgrwt>
<rscale>  0 0.29221615E+03</rscale>
<asrwt>0</asrwt>
<pdfrwt beam="1">  1        2 0.23392000E+00 0.29531279E+03</pdfrwt>
<pdfrwt beam="2">  1       -2 0.12187077E-01 0.29531279E+03</pdfrwt>
<totfact> 0.64157155E+02</totfact>
</mgrwt>
</event>
<event>
 6    1  0.1190675E-005  0.1290382E+03  0.7546771E-02  0.1242797E+00
         -2   -1    0    0    0  501 -0.00000000000E+00  0.00000000000E+00  0.22507931184E+02  0.22507931184E+02  0.00000000000E+00 0.  1.
          2   -1    0    0  501    0  0.00000000000E+00 -0.00000000000E+00 -0.63231003447E+03  0.63231003447E+03  0.00000000000E+00 0. -1.
          5    1    1    2  502    0 -0.19041114752E+02  0.79762555444E+01 -0.43307236838E+03  0.43358961122E+03  0.47000000000E+01 0. -1.
         -5    1    1    2    0  502  0.15073776148E+02  0.23698375156E+02 -0.13999330643E+02  0.31731734445E+02  0.47000000000E+01 0. -1.
        -11    1    1    2    0    0  0.11337022089E+02  0.31056180713E+02 -0.44310062152E+02  0.55284681769E+02  0.00000000000E+00 0.  1.
         11    1    1    2    0    0 -0.73696834851E+01 -0.62730811414E+02 -0.11842034211E+03  0.13421193822E+03  0.00000000000E+00 0. -1.
<mgrwt>
<rscale>  0 0.12018212E+03</rscale>
<asrwt>0</asrwt>
<pdfrwt beam="2">  1        2 0.97278465E-01 0.12903818E+03</pdfrwt>
<pdfrwt beam="1">  1       -2 0.34627587E-02 0.12903818E+03</pdfrwt>
<totfact> 0.15309856E+04</totfact>
</mgrwt>
</event>
<event>
 6    1  0.1190675E-005  0.1288016E+03  0.7546771E-02  0.1243806E+00
          3   -1    0    0  501    0  0.00000000000E+00  0.00000000000E+00  0.71989295634E+02  0.71989295634E+02  0.00000000000E+00 0.  1.
         -3   -1    0    0    0  501 -0.00000000000E+00 -0.00000000000E+00 -0.23594154131E+03  0.23594154131E+03  0.00000000000E+00 0. -1.
          5    1    1    2  502    0 -0.75233681675E+01 -0.62693097517E+02 -0.59248190960E+01  0.63594174468E+02  0.47000000000E+01 0.  1.
         -5    1    1    2    0  502 -0.23513697501E+02  0.60929425740E+02 -0.73950477005E+01  0.65894351971E+02  0.47000000000E+01 0.  1.
        -11    1    1    2    0    0  0.75237765191E+01 -0.39611451099E+02 -0.34969853124E+02  0.53371948613E+02  0.00000000000E+00 0.  1.
         11    1    1    2    0    0  0.23513289149E+02  0.41375122876E+02 -0.11566252576E+03  0.12507036190E+03  0.00000000000E+00 0. -1.
<mgrwt>
<rscale>  0 0.11957154E+03</rscale>
<asrwt>0</asrwt>
<pdfrwt beam="1">  1        3 0.11075276E-01 0.12880163E+03</pdfrwt>
<pdfrwt beam="2">  1       -3 0.36298698E-01 0.12880163E+03</pdfrwt>
<totfact> 0.10644124E+03</totfact>
</mgrwt>
</event>
<event>
 6    1  0.1190675E-005  0.1356781E+03  0.7546771E-02  0.1230304E+00
         -2   -1    0    0    0  501 -0.00000000000E+00  0.00000000000E+00  0.32313459870E+02  0.32313459870E+02  0.00000000000E+00 0.  1.
          2   -1    0    0  501    0  0.00000000000E+00 -0.00000000000E+00 -0.51964504539E+03  0.51964504539E+03  0.00000000000E+00 0. -1.
          5    1    1    2  502    0 -0.38515716079E+02 -0.68139222368E+02 -0.32831960255E+03  0.33755335197E+03  0.47000000000E+01 0.  1.
         -5    1    1    2    0  502  0.31695134561E+02  0.15815605328E+02 -0.33945865757E+02  0.49286171779E+02  0.47000000000E+01 0.  1.
        -11    1    1    2    0    0 -0.28711419459E+02 -0.38417082400E+01 -0.72672267618E+01  0.29864978058E+02  0.00000000000E+00 0.  1.
         11    1    1    2    0    0  0.35532000978E+02  0.56165325280E+02 -0.11779889045E+03  0.13525400345E+03  0.00000000000E+00 0. -1.
<mgrwt>
<rscale>  0 0.12809905E+03</rscale>
<asrwt>0</asrwt>
<pdfrwt beam="2">  1        2 0.79945384E-01 0.13567810E+03</pdfrwt>
<pdfrwt beam="1">  1       -2 0.49713020E-02 0.13567810E+03</pdfrwt>
<totfact> 0.11191904E+04</totfact>
</mgrwt>
</event>
<event>
 6    1  0.1190675E-005  0.1473917E+03  0.7546771E-02  0.1213463E+00
          3   -1    0    0  501    0  0.00000000000E+00  0.00000000000E+00  0.81082830716E+02  0.81082830716E+02  0.00000000000E+00 0. -1.
         -3   -1    0    0    0  501 -0.00000000000E+00 -0.00000000000E+00 -0.22636863080E+03  0.22636863080E+03  0.00000000000E+00 0.  1.
          5    1    1    2  502    0 -0.61632029592E+02 -0.14798348280E+02 -0.63615753491E+02  0.89925259387E+02  0.47000000000E+01 0. -1.
         -5    1    1    2    0  502  0.26808664347E+01  0.66141626569E+02  0.95982656078E+01  0.67053102186E+02  0.47000000000E+01 0. -1.
        -11    1    1    2    0    0  0.44683956315E+02  0.35184075917E+01 -0.21751052379E+01  0.44875006705E+02  0.00000000000E+00 0. -1.
         11    1    1    2    0    0  0.14267206843E+02 -0.54861685880E+02 -0.89093206961E+02  0.10559809324E+03  0.00000000000E+00 0.  1.
<mgrwt>
<rscale>  0 0.13990018E+03</rscale>
<asrwt>0</asrwt>
<pdfrwt beam="1">  1        3 0.12474282E-01 0.14739171E+03</pdfrwt>
<pdfrwt beam="2">  1       -3 0.34825943E-01 0.14739171E+03</pdfrwt>
<totfact> 0.96350646E+02</totfact>
</mgrwt>
</event>
<event>
 6    1  0.1190675E-005  0.1264019E+03  0.7546771E-02  0.1248127E+00
         -2   -1    0    0    0  501 -0.00000000000E+00  0.00000000000E+00  0.43231054054E+03  0.43231054054E+03  0.00000000000E+00 0.  1.
          2   -1    0    0  501    0  0.00000000000E+00 -0.00000000000E+00 -0.28316663578E+02  0.28316663578E+02  0.00000000000E+00 0. -1.
          5    1    1    2  502    0  0.28504353859E+02  0.30956233046E+02  0.16635224715E+03  0.17165647872E+03  0.47000000000E+01 0. -1.
         -5    1    1    2    0  502 -0.47267980079E+02 -0.29628861101E+02  0.34814800385E+02  0.65926411071E+02  0.47000000000E+01 0. -1.
        -11    1    1    2    0    0  0.86238339251E+01 -0.41992375088E+02  0.14769952490E+03  0.15379492752E+03  0.00000000000E+00 0. -1.
         11    1    1    2    0    0  0.10139792295E+02  0.40665003143E+02  0.55127304533E+02  0.69249386810E+02  0.00000000000E+00 0.  1.
<mgrwt>
<rscale>  0 0.11700137E+03</rscale>
<asrwt>0</asrwt>
<pdfrwt beam="2">  1        2 0.43564101E-02 0.12640193E+03</pdfrwt>
<pdfrwt beam="1">  1       -2 0.66509309E-01 0.12640193E+03</pdfrwt>
<totfact> 0.38067107E+03</totfact>
</mgrwt>
</event>
<event>
 6    1  0.1190675E-005  0.4353898E+03  0.7546771E-02  0.1032171E+00
          2   -1    0    0  501    0  0.00000000000E+00  0.00000000000E+00  0.20824591282E+03  0.20824591282E+03  0.00000000000E+00 0. -1.
         -2   -1    0    0    0  501 -0.00000000000E+00 -0.00000000000E+00 -0.22757267044E+03  0.22757267044E+03  0.00000000000E+00 0.  1.
          5    1    1    2  502    0 -0.88217531038E+02 -0.13072737680E+03  0.86888426166E+02  0.18012126035E+03  0.47000000000E+01 0. -1.
         -5    1    1    2    0  502 -0.11340298833E+02 -0.10758001403E+02 -0.47081062634E+02  0.49830246142E+02  0.47000000000E+01 0.  1.
        -11    1    1    2    0    0  0.48175663717E+02  0.24522928752E+02  0.17589190433E+02  0.56847587717E+02  0.00000000000E+00 0. -1.
         11    1    1    2    0    0  0.51382166154E+02  0.11696244945E+03 -0.76723311586E+02  0.14901948906E+03  0.00000000000E+00 0.  1.
<mgrwt>
<rscale>  0 0.43538984E+03</rscale>
<asrwt>0</asrwt>
<pdfrwt beam="1">  1        2 0.32037833E-01 0.43538984E+03</pdfrwt>
<pdfrwt beam="2">  1       -2 0.35011180E-01 0.43538984E+03</pdfrwt>
<totfact> 0.12610230E+03</totfact>
</mgrwt>
</event>
<event>
 6    1  0.1190675E-005  0.1290154E+03  0.7546771E-02  0.1242723E+00
         -1   -1    0    0    0  501 -0.00000000000E+00  0.00000000000E+00  0.19882819516E+02  0.19882819516E+02  0.00000000000E+00 0.  1.
          1   -1    0    0  501    0  0.00000000000E+00 -0.00000000000E+00 -0.76269974566E+03  0.76269974566E+03  0.00000000000E+00 0. -1.
          5    1    1    2  502    0 -0.33787704988E+02 -0.19963914850E+02 -0.74489159693E+02  0.84326104003E+02  0.47000000000E+01 0.  1.
         -5    1    1    2    0  502  0.65502581296E+02  0.16508666500E+02 -0.49397537703E+03  0.49859491307E+03  0.47000000000E+01 0.  1.
        -11    1    1    2    0    0  0.51674288794E+01 -0.39344093033E+02 -0.57452130883E+02  0.69824117043E+02  0.00000000000E+00 0.  1.
         11    1    1    2    0    0 -0.36882305187E+02  0.42799341383E+02 -0.11690025854E+03  0.12983743106E+03  0.00000000000E+00 0. -1.
<mgrwt>
<rscale>  0 0.12022698E+03</rscale>
<asrwt>0</asrwt>
<pdfrwt beam="2">  1        1 0.11733839E+00 0.12901544E+03</pdfrwt>
<pdfrwt beam="1">  1       -1 0.30588962E-02 0.12901544E+03</pdfrwt>
<totfact> 0.87129570E+03</totfact>
</mgrwt>
</event>
<event>
 6    1  0.1190675E-005  0.1622591E+03  0.7546771E-02  0.1193642E+00
         -1   -1    0    0    0  501 -0.00000000000E+00  0.00000000000E+00  0.15116157907E+03  0.15116157907E+03  0.00000000000E+00 0.  1.
          1   -1    0    0  501    0  0.00000000000E+00 -0.00000000000E+00 -0.18068553693E+03  0.18068553693E+03  0.00000000000E+00 0. -1.
          5    1    1    2  502    0  0.57387437529E+02 -0.19033734792E+02  0.19923607004E+02  0.63832915978E+02  0.47000000000E+01 0.  1.
         -5    1    1    2    0  502  0.44999050346E+02  0.33845715841E+02 -0.10533686078E+03  0.11953405896E+03  0.47000000000E+01 0.  1.
        -11    1    1    2    0    0 -0.40240854792E+02  0.27881717566E+02  0.54237104282E+02  0.73064218669E+02  0.00000000000E+00 0.  1.
         11    1    1    2    0    0 -0.62145633083E+02 -0.42693698615E+02  0.16521916378E+01  0.75415922390E+02  0.00000000000E+00 0. -1.
<mgrwt>
<rscale>  0 0.15569686E+03</rscale>
<asrwt>0</asrwt>
<pdfrwt beam="2">  1        1 0.27797775E-01 0.16225912E+03</pdfrwt>
<pdfrwt beam="1">  1       -1 0.23255628E-01 0.16225912E+03</pdfrwt>
<totfact> 0.25652763E+03</totfact>
</mgrwt>
</event>
<event>
 6    1  0.1190675E-005  0.1431211E+03  0.7546771E-02  0.1219859E+00
         -2   -1    0    0    0  501 -0.00000000000E+00  0.00000000000E+00  0.16253959890E+03  0.16253959890E+03  0.00000000000E+00 0.  1.
          2   -1    0    0  501    0  0.00000000000E+00 -0.00000000000E+00 -0.10221068134E+03  0.10221068134E+03  0.00000000000E+00 0. -1.
          5    1    1    2  502    0 -0.40050189368E+02 -0.22098587988E+00  0.14002047164E+02  0.42687396594E+02  0.47000000000E+01 0.  1.
         -5    1    1    2    0  502  0.91100049631E+02 -0.47218129732E+02  0.27769178660E+02  0.10640483119E+03  0.47000000000E+01 0.  1.
        -11    1    1    2    0    0 -0.72762485111E+02  0.16326585454E+02  0.29402736944E+01  0.74629631123E+02  0.00000000000E+00 0.  1.
         11    1    1    2    0    0  0.21712624848E+02  0.31112530158E+02  0.15617418041E+02  0.41028421331E+02  0.00000000000E+00 0. -1.
<mgrwt>
<rscale>  0 0.13525579E+03</rscale>
<asrwt>0</asrwt>
<pdfrwt beam="2">  1        2 0.15724720E-01 0.14312113E+03</pdfrwt>
<pdfrwt beam="1">  1       -2 0.25006092E-01 0.14312113E+03</pdfrwt>
<totfact> 0.50044318E+03</totfact>
</mgrwt>
</event>
<event>
 6    1  0.1190675E-005  0.1180675E+03  0.7546771E-02  0.1252079E+00
         -1   -1    0    0    0  501 -0.00000000000E+00  0.00000000000E+00  0.84491272227E+02  0.84491272227E+02  0.00000000000E+00 0.  1.
          1   -1    0    0  501    0  0.00000000000E+00 -0.00000000000E+00 -0.14939115350E+03  0.14939115350E+03  0.00000000000E+00 0. -1.
          5    1    1    2  502    0  0.33024520303E+02  0.39474696758E+02 -0.95983359451E+01  0.52565089919E+02  0.47000000000E+01 0. -1.
         -5    1    1    2    0  502 -0.12898060477E+02 -0.62910309279E+02 -0.37765196637E+02  0.74648289027E+02  0.47000000000E+01 0.  1.
        -11    1    1    2    0    0  0.13469835240E+02  0.40860403989E+02 -0.43178584550E+02  0.60954074837E+02  0.00000000000E+00 0. -1.
         11    1    1    2    0    0 -0.33596295066E+02 -0.17424791467E+02  0.25642235860E+02  0.45714971942E+02  0.00000000000E+00 0.  1.
<mgrwt>
<rscale>  0 0.11471495E+03</rscale>
<asrwt>0</asrwt>
<pdfrwt beam="2">  1        1 0.22983254E-01 0.11806752E+03</pdfrwt>
<pdfrwt beam="1">  1       -1 0.12998657E-01 0.11806752E+03</pdfrwt>
<totfact> 0.80509476E+03</totfact>
</mgrwt>
</event>
<event>
 6    1  0.1190675E-005  0.1267260E+03  0.7546771E-02  0.1248312E+00
          1   -1    0    0  501    0  0.00000000000E+00  0.00000000000E+00  0.14129663178E+03  0.14129663178E+03  0.00000000000E+00 0. -1.
         -1   -1    0    0    0  501 -0.00000000000E+00 -0.00000000000E+00 -0.84971036121E+02  0.84971036121E+02  0.00000000000E+00 0.  1.
          5    1    1    2  502    0  0.50196881366E+02  0.43859751113E+02  0.52604339187E+02  0.85045347715E+02  0.47000000000E+01 0. -1.
         -5    1    1    2    0  502 -0.38358459412E+02 -0.26689772665E+02 -0.11181650303E+02  0.48278718675E+02  0.47000000000E+01 0. -1.
        -11    1    1    2    0    0  0.17945033219E+02  0.28485607277E+02  0.18313943558E+02  0.38325638518E+02  0.00000000000E+00 0.  1.
         11    1    1    2    0    0 -0.29783455174E+02 -0.45655585724E+02 -0.34110367794E+01  0.54617962996E+02  0.00000000000E+00 0. -1.
<mgrwt>
<rscale>  0 0.11689342E+03</rscale>
<asrwt>0</asrwt>
<pdfrwt beam="1">  1        1 0.21737943E-01 0.12672595E+03</pdfrwt>
<pdfrwt beam="2">  1       -1 0.13072467E-01 0.12672595E+03</pdfrwt>
<totfact> 0.86079714E+03</totfact>
</mgrwt>
</event>
<event>
 6    1  0.1190675E-005  0.2960250E+03  0.7546771E-02  0.1087245E+00
         -2   -1    0    0    0  501 -0.00000000000E+00  0.00000000000E+00  0.41227413602E+02  0.41227413602E+02  0.00000000000E+00 0.  1.
          2   -1    0    0  501    0  0.00000000000E+00 -0.00000000000E+00 -0.53138674271E+03  0.53138674271E+03  0.00000000000E+00 0. -1.
          5    1    1    2  502    0 -0.42070317337E+02  0.53921400365E+02 -0.39682612498E+03  0.40270397624E+03  0.47000000000E+01 0.  1.
         -5    1    1    2    0  502 -0.16670526694E+02 -0.45684296779E+01  0.24314987152E+01  0.18077035044E+02  0.47000000000E+01 0.  1.
        -11    1    1    2    0    0  0.96496588685E+01 -0.45997823751E+02 -0.33293472777E+01  0.47116878710E+02  0.00000000000E+00 0.  1.
         11    1    1    2    0    0  0.49091185162E+02 -0.33551469367E+01 -0.92435355569E+02  0.10471626631E+03  0.00000000000E+00 0. -1.
<mgrwt>
<rscale>  0 0.29602501E+03</rscale>
<asrwt>0</asrwt>
<pdfrwt beam="2">  1        2 0.81751801E-01 0.29602501E+03</pdfrwt>
<pdfrwt beam="1">  1       -2 0.63426794E-02 0.29602501E+03</pdfrwt>
<totfact> 0.78746238E+03</totfact>
</mgrwt>
</event>
<event>
 6    1  0.1190675E-005  0.1283273E+03  0.7546771E-02  0.1243760E+00
          3   -1    0    0  501    0  0.00000000000E+00  0.00000000000E+00  0.27457414726E+03  0.27457414726E+03  0.00000000000E+00 0. -1.
         -3   -1    0    0    0  501 -0.00000000000E+00 -0.00000000000E+00 -0.47401748511E+02  0.47401748511E+02  0.00000000000E+00 0.  1.
          5    1    1    2  502    0  0.50488103528E+02  0.20433608595E+02  0.19473490209E+02  0.58033505658E+02  0.47000000000E+01 0. -1.
         -5    1    1    2    0  502 -0.26888773757E+02 -0.37355562696E+02  0.13546367597E+03  0.14314657427E+03  0.47000000000E+01 0. -1.
        -11    1    1    2    0    0  0.30890589780E+02 -0.65411414823E+01  0.46313657588E+02  0.56053277763E+02  0.00000000000E+00 0.  1.
         11    1    1    2    0    0 -0.54489919550E+02  0.23463095583E+02  0.25921574980E+02  0.64742538075E+02  0.00000000000E+00 0. -1.
<mgrwt>
<rscale>  0 0.11959918E+03</rscale>
<asrwt>0</asrwt>
<pdfrwt beam="1">  1        3 0.42242176E-01 0.12832731E+03</pdfrwt>
<pdfrwt beam="2">  1       -3 0.72925769E-02 0.12832731E+03</pdfrwt>
<totfact> 0.15774661E+03</totfact>
</mgrwt>
</event>
<event>
 6    1  0.1190675E-005  0.1276047E+03  0.7546771E-02  0.1245354E+00
         -2   -1    0    0    0  501 -0.00000000000E+00  0.00000000000E+00  0.15830680839E+02  0.15830680839E+02  0.00000000000E+00 0.  1.
          2   -1    0    0  501    0  0.00000000000E+00 -0.00000000000E+00 -0.79524637026E+03  0.79524637026E+03  0.00000000000E+00 0. -1.
          5    1    1    2  502    0  0.31706212338E+02  0.44946504865E+02 -0.16940039494E+03  0.17816861678E+03  0.47000000000E+01 0.  1.
         -5    1    1    2    0  502 -0.57336570319E+02 -0.43924123017E+02 -0.23054395377E+03  0.24163901899E+03  0.47000000000E+01 0.  1.
        -11    1    1    2    0    0  0.42848747828E+02 -0.33511714303E+02 -0.27964227336E+03  0.28488392590E+03  0.00000000000E+00 0. -1.
         11    1    1    2    0    0 -0.17218389847E+02  0.32489332455E+02 -0.99829067359E+02  0.10638548943E+03  0.00000000000E+00 0.  1.
<mgrwt>
<rscale>  0 0.11864243E+03</rscale>
<asrwt>0</asrwt>
<pdfrwt beam="2">  1        2 0.12234557E+00 0.12760474E+03</pdfrwt>
<pdfrwt beam="1">  1       -2 0.24354899E-02 0.12760474E+03</pdfrwt>
<totfact> 0.19502539E+04</totfact>
</mgrwt>
</event>
<event>
 6    1  0.1190675E-005  0.1286940E+03  0.7546771E-02  0.1244236E+00
         -1   -1    0    0    0  501 -0.00000000000E+00  0.00000000000E+00  0.22700628028E+02  0.22700628028E+02  0.00000000000E+00 0.  1.
          1   -1    0    0  501    0  0.00000000000E+00 -0.00000000000E+00 -0.59923935544E+03  0.59923935544E+03  0.00000000000E+00 0. -1.
          5    1    1    2  502    0 -0.47471562610E+02  0.20910536885E+02 -0.10045285373E+03  0.11315328378E+03  0.47000000000E+01 0. -1.
         -5    1    1    2    0  502  0.41317779925E+02 -0.50909938227E+02 -0.31457569131E+03  0.32137040360E+03  0.47000000000E+01 0. -1.
        -11    1    1    2    0    0 -0.31614634869E+02  0.24469669568E+02 -0.13537662112E+03  0.14115622343E+03  0.00000000000E+00 0. -1.
         11    1    1    2    0    0  0.37768417554E+02  0.55297317738E+01 -0.26133561257E+02  0.46260072655E+02  0.00000000000E+00 0.  1.
<mgrwt>
<rscale>  0 0.11931244E+03</rscale>
<asrwt>0</asrwt>
<pdfrwt beam="2">  1        1 0.92190664E-01 0.12869398E+03</pdfrwt>
<pdfrwt beam="1">  1       -1 0.34924046E-02 0.12869398E+03</pdfrwt>
<totfact> 0.10093471E+04</totfact>
</mgrwt>
</event>
<event>
 6    1  0.1190675E-005  0.3034556E+03  0.7546771E-02  0.1119037E+00
         -1   -1    0    0    0  501 -0.00000000000E+00  0.00000000000E+00  0.15258708888E+03  0.15258708888E+03  0.00000000000E+00 0.  1.
          1   -1    0    0  501    0  0.00000000000E+00 -0.00000000000E+00 -0.39375349113E+03  0.39375349113E+03  0.00000000000E+00 0. -1.
          5    1    1    2  502    0 -0.13422273814E+03 -0.89114342843E+02 -0.25939618024E+03  0.30539413527E+03  0.47000000000E+01 0. -1.
         -5    1    1    2    0  502  0.10560308247E+03  0.24540020291E+02 -0.26907317024E+02  0.11180481802E+03  0.47000000000E+01 0.  1.
        -11    1    1    2    0    0  0.14072888496E+02 -0.25084700032E+02  0.19540815502E+02  0.34772573054E+02  0.00000000000E+00 0. -1.
         11    1    1    2    0    0  0.14546767164E+02  0.89659022583E+02  0.25596279514E+02  0.94369053670E+02  0.00000000000E+00 0.  1.
<mgrwt>
<rscale>  0 0.24113747E+03</rscale>
<asrwt>0</asrwt>
<pdfrwt beam="2">  1        1 0.60577460E-01 0.30345556E+03</pdfrwt>
<pdfrwt beam="1">  1       -1 0.23474937E-01 0.30345556E+03</pdfrwt>
<totfact> 0.95870514E+02</totfact>
</mgrwt>
</event>
<event>
 6    1  0.1190675E-005  0.1325775E+03  0.7546771E-02  0.1238315E+00
         -2   -1    0    0    0  501 -0.00000000000E+00  0.00000000000E+00  0.33355990455E+02  0.33355990455E+02  0.00000000000E+00 0.  1.
          2   -1    0    0  501    0  0.00000000000E+00 -0.00000000000E+00 -0.39872363287E+03  0.39872363287E+03  0.00000000000E+00 0. -1.
          5    1    1    2  502    0 -0.56455534923E+02 -0.41821132497E+02 -0.18076246808E+03  0.19399328445E+03  0.47000000000E+01 0.  1.
         -5    1    1    2    0  502  0.12384324467E+02  0.44999548260E+02 -0.32313540529E+02  0.56961265239E+02  0.47000000000E+01 0.  1.
        -11    1    1    2    0    0  0.14888775536E+02 -0.10542097800E+02  0.66058762489E+01  0.19402295328E+02  0.00000000000E+00 0.  1.
         11    1    1    2    0    0  0.29182434920E+02  0.73636820374E+01 -0.15889751006E+03  0.16172277831E+03  0.00000000000E+00 0. -1.
<mgrwt>
<rscale>  0 0.12294558E+03</rscale>
<asrwt>0</asrwt>
<pdfrwt beam="2">  1        2 0.61342098E-01 0.13257753E+03</pdfrwt>
<pdfrwt beam="1">  1       -2 0.51316908E-02 0.13257753E+03</pdfrwt>
<totfact> 0.14195234E+04</totfact>
</mgrwt>
</event>
<event>
 6    1  0.1190675E-005  0.1832834E+03  0.7546771E-02  0.1169878E+00
         -1   -1    0    0    0  501 -0.00000000000E+00  0.00000000000E+00  0.92188571976E+02  0.92188571976E+02  0.00000000000E+00 0. -1.
          1   -1    0    0  501    0  0.00000000000E+00 -0.00000000000E+00 -0.32440835125E+03  0.32440835125E+03  0.00000000000E+00 0.  1.
          5    1    1    2  502    0  0.81858995721E+02 -0.94850308865E+02 -0.66749575853E+02  0.14203898109E+03  0.47000000000E+01 0. -1.
         -5    1    1    2    0  502 -0.42999804049E+02 -0.33441142707E+02 -0.57774028150E+02  0.79543833844E+02  0.47000000000E+01 0. -1.
        -11    1    1    2    0    0 -0.30937423501E+02  0.96216985632E+02 -0.12249943986E+03  0.15881103634E+03  0.00000000000E+00 0.  1.
         11    1    1    2    0    0 -0.79217681704E+01  0.32074465940E+02  0.14803264591E+02  0.36203071953E+02  0.00000000000E+00 0. -1.
<mgrwt>
<rscale>  0 0.17787247E+03</rscale>
<asrwt>0</asrwt>
<pdfrwt beam="2">  1        1 0.49908977E-01 0.18328343E+03</pdfrwt>
<pdfrwt beam="1">  1       -1 0.14182857E-01 0.18328343E+03</pdfrwt>
<totfact> 0.27412726E+03</totfact>
</mgrwt>
</event>
<event>
 6    1  0.1190675E-005  0.1268036E+03  0.7546771E-02  0.1245849E+00
          2   -1    0    0  501    0  0.00000000000E+00  0.00000000000E+00  0.25844155920E+03  0.25844155920E+03  0.00000000000E+00 0.  1.
         -2   -1    0    0    0  501 -0.00000000000E+00 -0.00000000000E+00 -0.53604182325E+02  0.53604182325E+02  0.00000000000E+00 0. -1.
          5    1    1    2  502    0  0.27545171040E+02  0.42392005362E+02  0.11894809186E+03  0.12933119161E+03  0.47000000000E+01 0.  1.
         -5    1    1    2    0  502 -0.17605588221E+02 -0.61124283218E+02  0.45596952029E+02  0.78404762419E+02  0.47000000000E+01 0.  1.
        -11    1    1    2    0    0  0.40350279794E+01  0.38474448599E+02  0.61157730892E+02  0.72365963641E+02  0.00000000000E+00 0.  1.
         11    1    1    2    0    0 -0.13974610798E+02 -0.19742170743E+02 -0.20865397908E+02  0.31943823854E+02  0.00000000000E+00 0. -1.
<mgrwt>
<rscale>  0 0.11834716E+03</rscale>
<asrwt>0</asrwt>
<pdfrwt beam="1">  1        2 0.39760239E-01 0.12680361E+03</pdfrwt>
<pdfrwt beam="2">  1       -2 0.82467974E-02 0.12680361E+03</pdfrwt>
<totfact> 0.10877544E+04</totfact>
</mgrwt>
</event>
<event>
 6    1  0.1190675E-005  0.2111340E+03  0.7546771E-02  0.1144398E+00
          2   -1    0    0  501    0  0.00000000000E+00  0.00000000000E+00  0.26780808547E+03  0.26780808547E+03  0.00000000000E+00 0.  1.
         -2   -1    0    0    0  501 -0.00000000000E+00 -0.00000000000E+00 -0.15261304735E+03  0.15261304735E+03  0.00000000000E+00 0. -1.
          5    1    1    2  502    0  0.29043061345E+01 -0.92635805240E+02  0.42013754034E+02  0.10186791906E+03  0.47000000000E+01 0.  1.
         -5    1    1    2    0  502  0.11208012679E+03 -0.32789245545E+02  0.23650669930E+02  0.11924149291E+03  0.47000000000E+01 0.  1.
        -11    1    1    2    0    0 -0.14327533384E+02  0.50720350834E+00 -0.19883453187E+02  0.24513000203E+02  0.00000000000E+00 0.  1.
         11    1    1    2    0    0 -0.10065689954E+03  0.12491784728E+03  0.69414067346E+02  0.17479872064E+03  0.00000000000E+00 0. -1.
<mgrwt>
<rscale>  0 0.20646254E+03</rscale>
<asrwt>0</asrwt>
<pdfrwt beam="1">  1        2 0.41201244E-01 0.21113398E+03</pdfrwt>
<pdfrwt beam="2">  1       -2 0.23478930E-01 0.21113398E+03</pdfrwt>
<totfact> 0.19476810E+03</totfact>
</mgrwt>
</event>
<event>
 6    1  0.1190675E-005  0.1756070E+03  0.7546771E-02  0.1199457E+00
          1   -1    0    0  501    0  0.00000000000E+00  0.00000000000E+00  0.39869537299E+02  0.39869537299E+02  0.00000000000E+00 0. -1.
         -1   -1    0    0    0  501 -0.00000000000E+00 -0.00000000000E+00 -0.48752401515E+03  0.48752401515E+03  0.00000000000E+00 0.  1.
          5    1    1    2  502    0  0.75140468925E+02  0.51256123344E+02 -0.84116136294E+02  0.12397941214E+03  0.47000000000E+01 0. -1.
         -5    1    1    2    0  502 -0.75913324400E+02 -0.18956992843E+02 -0.14339799966E+03  0.16342361123E+03  0.47000000000E+01 0.  1.
        -11    1    1    2    0    0  0.25119470235E+02 -0.49021133473E+02 -0.82373862108E+02  0.99093453217E+02  0.00000000000E+00 0. -1.
         11    1    1    2    0    0 -0.24346614760E+02  0.16722002971E+02 -0.13776647979E+03  0.14089707586E+03  0.00000000000E+00 0.  1.
<mgrwt>
<rscale>  0 0.15082978E+03</rscale>
<asrwt>0</asrwt>
<pdfrwt beam="1">  1        1 0.61337749E-02 0.17560699E+03</pdfrwt>
<pdfrwt beam="2">  1       -1 0.75003695E-01 0.17560699E+03</pdfrwt>
<totfact> 0.22905794E+03</totfact>
</mgrwt>
</event>
<event>
 6    1  0.1190675E-005  0.1282480E+03  0.7546771E-02  0.1245266E+00
         -2   -1    0    0    0  501 -0.00000000000E+00  0.00000000000E+00  0.24233828943E+02  0.24233828943E+02  0.00000000000E+00 0.  1.
          2   -1    0    0  501    0  0.00000000000E+00 -0.00000000000E+00 -0.51354210004E+03  0.51354210004E+03  0.00000000000E+00 0. -1.
          5    1    1    2  502    0 -0.21713849025E+02 -0.74750113776E+02 -0.18642583091E+03  0.20207857674E+03  0.47000000000E+01 0. -1.
         -5    1    1    2    0  502  0.19337706278E+02  0.46152523426E+02 -0.11760919080E+03  0.12789845215E+03  0.47000000000E+01 0. -1.
        -11    1    1    2    0    0 -0.15617787759E+02  0.47897696768E+02 -0.17000540848E+03  0.17731312293E+03  0.00000000000E+00 0. -1.
         11    1    1    2    0    0  0.17993930507E+02 -0.19300106419E+02 -0.15267840912E+02  0.30485777159E+02  0.00000000000E+00 0.  1.
<mgrwt>
<rscale>  0 0.11869478E+03</rscale>
<asrwt>0</asrwt>
<pdfrwt beam="2">  1        2 0.79006479E-01 0.12824798E+03</pdfrwt>
<pdfrwt beam="1">  1       -2 0.37282813E-02 0.12824798E+03</pdfrwt>
<totfact> 0.17331824E+04</totfact>
</mgrwt>
</event>
<event>
 6    1  0.1190675E-005  0.1512409E+03  0.7546771E-02  0.1208048E+00
          1   -1    0    0  501    0  0.00000000000E+00  0.00000000000E+00  0.76019655743E+02  0.76019655743E+02  0.00000000000E+00 0. -1.
         -1   -1    0    0    0  501 -0.00000000000E+00 -0.00000000000E+00 -0.25292742799E+03  0.25292742799E+03  0.00000000000E+00 0.  1.
          5    1    1    2  502    0 -0.76624417377E+01  0.23611752035E+02 -0.78933102067E+02  0.82877937049E+02  0.47000000000E+01 0. -1.
         -5    1    1    2    0  502  0.87041695552E+02  0.71751712165E+01  0.55627423238E+00  0.87465074673E+02  0.47000000000E+01 0. -1.
        -11    1    1    2    0    0 -0.83044420063E+02  0.81035003727E+01 -0.54097569553E+02  0.99441387025E+02  0.00000000000E+00 0.  1.
         11    1    1    2    0    0  0.36651662483E+01 -0.38890423624E+02 -0.44433374855E+02  0.59162684983E+02  0.00000000000E+00 0. -1.
<mgrwt>
<rscale>  0 0.14399823E+03</rscale>
<asrwt>0</asrwt>
<pdfrwt beam="1">  1        1 0.11695331E-01 0.15124092E+03</pdfrwt>
<pdfrwt beam="2">  1       -1 0.38911913E-01 0.15124092E+03</pdfrwt>
<totfact> 0.32621475E+03</totfact>
</mgrwt>
</event>
<event>
 6    1  0.1190675E-005  0.3791457E+03  0.7546771E-02  0.1051250E+00
          2   -1    0    0  501    0  0.00000000000E+00  0.00000000000E+00  0.93734618389E+03  0.93734618389E+03  0.00000000000E+00 0. -1.
         -2   -1    0    0    0  501 -0.00000000000E+00 -0.00000000000E+00 -0.38340013715E+02  0.38340013715E+02  0.00000000000E+00 0.  1.
          5    1    1    2  502    0  0.77236386068E+02 -0.10062885244E+03  0.52289268729E+03  0.53808036360E+03  0.47000000000E+01 0.  1.
         -5    1    1    2    0  502  0.40655029616E+02  0.71115360901E+01  0.39335965606E+02  0.57208509583E+02  0.47000000000E+01 0.  1.
        -11    1    1    2    0    0 -0.62284655776E+02  0.65360571214E+02  0.96427891760E+02  0.13209739181E+03  0.00000000000E+00 0.  1.
         11    1    1    2    0    0 -0.55606759908E+02  0.28156745132E+02  0.24034962552E+03  0.24829993261E+03  0.00000000000E+00 0. -1.
<mgrwt>
<rscale>  0 0.37914570E+03</rscale>
<asrwt>0</asrwt>
<pdfrwt beam="1">  1        2 0.14420709E+00 0.37914570E+03</pdfrwt>
<pdfrwt beam="2">  1       -2 0.58984644E-02 0.37914570E+03</pdfrwt>
<totfact> 0.43876070E+03</totfact>
</mgrwt>
</event>
<event>
 6    1  0.1190675E-005  0.1312543E+03  0.7546771E-02  0.1239070E+00
          4   -1    0    0  501    0  0.00000000000E+00  0.00000000000E+00  0.10881279590E+03  0.10881279590E+03  0.00000000000E+00 0. -1.
         -4   -1    0    0    0  501 -0.00000000000E+00 -0.00000000000E+00 -0.12917774821E+03  0.12917774821E+03  0.00000000000E+00 0.  1.
          5    1    1    2  502    0  0.17585234501E+02 -0.65232152590E+02  0.45725641131E+02  0.81715350216E+02  0.47000000000E+01 0.  1.
         -5    1    1    2    0  502  0.12162521613E+02  0.38343393280E+02 -0.30107600136E+02  0.50464842477E+02  0.47000000000E+01 0.  1.
        -11    1    1    2    0    0  0.84032811741E+00  0.48558210425E+02 -0.46123036356E+02  0.66977163524E+02  0.00000000000E+00 0.  1.
         11    1    1    2    0    0 -0.30588084232E+02 -0.21669451116E+02  0.10140043057E+02  0.38833187892E+02  0.00000000000E+00 0. -1.
<mgrwt>
<rscale>  0 0.12247438E+03</rscale>
<asrwt>0</asrwt>
<pdfrwt beam="1">  1        4 0.16740430E-01 0.13125426E+03</pdfrwt>
<pdfrwt beam="2">  1       -4 0.19873500E-01 0.13125426E+03</pdfrwt>
<totfact> 0.11600699E+03</totfact>
</mgrwt>
</event>
<event>
 6    1  0.1190675E-005  0.2841029E+03  0.7546771E-02  0.1093469E+00
         -1   -1    0    0    0  501 -0.00000000000E+00  0.00000000000E+00  0.21713540720E+03  0.21713540720E+03  0.00000000000E+00 0.  1.
          1   -1    0    0  501    0  0.00000000000E+00 -0.00000000000E+00 -0.92931018476E+02  0.92931018476E+02  0.00000000000E+00 0. -1.
          5    1    1    2  502    0 -0.86666661044E+02  0.85021504226E+00  0.56736694228E+02  0.10369655478E+03  0.47000000000E+01 0.  1.
         -5    1    1    2    0  502  0.89899793985E+01 -0.25093846356E+01 -0.42874446047E+02  0.44129637033E+02  0.47000000000E+01 0.  1.
        -11    1    1    2    0    0  0.82447818191E+02  0.26080499135E+02  0.10629986900E+03  0.13703100857E+03  0.00000000000E+00 0.  1.
         11    1    1    2    0    0 -0.47711365451E+01 -0.24421329541E+02  0.40422715402E+01  0.25209225289E+02  0.00000000000E+00 0. -1.
<mgrwt>
<rscale>  0 0.28410290E+03</rscale>
<asrwt>0</asrwt>
<pdfrwt beam="2">  1        1 0.14297080E-01 0.28410290E+03</pdfrwt>
<pdfrwt beam="1">  1       -1 0.33405447E-01 0.28410290E+03</pdfrwt>
<totfact> 0.33576457E+03</totfact>
</mgrwt>
</event>
<event>
 6    1  0.1190675E-005  0.1862321E+03  0.7546771E-02  0.1172872E+00
         -1   -1    0    0    0  501 -0.00000000000E+00  0.00000000000E+00  0.28583130797E+03  0.28583130797E+03  0.00000000000E+00 0.  1.
          1   -1    0    0  501    0  0.00000000000E+00 -0.00000000000E+00 -0.13067808075E+03  0.13067808075E+03  0.00000000000E+00 0. -1.
          5    1    1    2  502    0 -0.12604588613E+03  0.67873462025E+01  0.11352275428E+02  0.12682506706E+03  0.47000000000E+01 0. -1.
         -5    1    1    2    0  502  0.20816030645E+02 -0.45872681000E+02 -0.33592734284E+02  0.60730320192E+02  0.47000000000E+01 0.  1.
        -11    1    1    2    0    0  0.84911487561E+02  0.90735085438E+01  0.17237150337E+03  0.19236482124E+03  0.00000000000E+00 0.  1.
         11    1    1    2    0    0  0.20318367920E+02  0.30011826254E+02  0.50221827091E+01  0.36589180220E+02  0.00000000000E+00 0. -1.
<mgrwt>
<rscale>  0 0.17486083E+03</rscale>
<asrwt>0</asrwt>
<pdfrwt beam="2">  1        1 0.20104320E-01 0.18623207E+03</pdfrwt>
<pdfrwt beam="1">  1       -1 0.43974047E-01 0.18623207E+03</pdfrwt>
<totfact> 0.13085890E+03</totfact>
</mgrwt>
</event>
<event>
 6    1  0.1190675E-005  0.1378053E+03  0.7546771E-02  0.1228773E+00
         -2   -1    0    0    0  501 -0.00000000000E+00  0.00000000000E+00  0.14950462460E+02  0.14950462460E+02  0.00000000000E+00 0. -1.
          2   -1    0    0  501    0  0.00000000000E+00 -0.00000000000E+00 -0.15309325767E+04  0.15309325767E+04  0.00000000000E+00 0.  1.
          5    1    1    2  502    0 -0.31955010547E+02 -0.38696797948E+02 -0.33629343051E+03  0.34004988792E+03  0.47000000000E+01 0.  1.
         -5    1    1    2    0  502  0.82317324548E+02  0.99292347301E+01 -0.94011549500E+03  0.94377643834E+03  0.47000000000E+01 0.  1.
        -11    1    1    2    0    0  0.22939858797E+02 -0.35615628550E+01 -0.31793549405E+02  0.39366885010E+02  0.00000000000E+00 0.  1.
         11    1    1    2    0    0 -0.73302172798E+02  0.32329126072E+02 -0.20777963935E+03  0.22268982792E+03  0.00000000000E+00 0. -1.
<mgrwt>
<rscale>  0 0.12911608E+03</rscale>
<asrwt>0</asrwt>
<pdfrwt beam="2">  1        2 0.23552796E+00 0.13780526E+03</pdfrwt>
<pdfrwt beam="1">  1       -2 0.23000724E-02 0.13780526E+03</pdfrwt>
<totfact> 0.80880286E+03</totfact>
</mgrwt>
</event>
<event>
 6    1  0.1190675E-005  0.1293768E+03  0.7546771E-02  0.1241610E+00
          1   -1    0    0  501    0  0.00000000000E+00  0.00000000000E+00  0.74689649739E+02  0.74689649739E+02  0.00000000000E+00 0. -1.
         -1   -1    0    0    0  501 -0.00000000000E+00 -0.00000000000E+00 -0.17986172468E+03  0.17986172468E+03  0.00000000000E+00 0.  1.
          5    1    1    2  502    0 -0.23509088333E+02  0.65500140804E+02 -0.25186041417E+02  0.74157753215E+02  0.47000000000E+01 0.  1.
         -5    1    1    2    0  502  0.44109531325E+02 -0.39241164987E+02 -0.11640242008E+02  0.60358139611E+02  0.47000000000E+01 0.  1.
        -11    1    1    2    0    0 -0.55485877525E+02 -0.30853013653E+02 -0.43421018413E+02  0.76915381402E+02  0.00000000000E+00 0. -1.
         11    1    1    2    0    0  0.34885434533E+02  0.45940378356E+01 -0.24924773099E+02  0.43120100188E+02  0.00000000000E+00 0.  1.
<mgrwt>
<rscale>  0 0.12090589E+03</rscale>
<asrwt>0</asrwt>
<pdfrwt beam="1">  1        1 0.11490715E-01 0.12937678E+03</pdfrwt>
<pdfrwt beam="2">  1       -1 0.27671034E-01 0.12937678E+03</pdfrwt>
<totfact> 0.59093408E+03</totfact>
</mgrwt>
</event>
<event>
 6    1  0.1190675E-005  0.1511303E+03  0.7546771E-02  0.1208324E+00
         -3   -1    0    0    0  501 -0.00000000000E+00  0.00000000000E+00  0.12177691388E+03  0.12177691388E+03  0.00000000000E+00 0.  1.
          3   -1    0    0  501    0  0.00000000000E+00 -0.00000000000E+00 -0.18176884043E+03  0.18176884043E+03  0.00000000000E+00 0. -1.
          5    1    1    2  502    0  0.50657567372E+02 -0.10471776143E+02 -0.11594405850E+03  0.12704708548E+03  0.47000000000E+01 0.  1.
         -5    1    1    2    0  502  0.20261069486E+02 -0.36235305680E+02  0.25627384033E+02  0.49013887081E+02  0.47000000000E+01 0.  1.
        -11    1    1    2    0    0 -0.45601636835E+02  0.26048974151E+02  0.62494262562E+02  0.81630822546E+02  0.00000000000E+00 0.  1.
         11    1    1    2    0    0 -0.25317000023E+02  0.20658107672E+02 -0.32169514639E+02  0.45853959206E+02  0.00000000000E+00 0. -1.
<mgrwt>
<rscale>  0 0.14378588E+03</rscale>
<asrwt>0</asrwt>
<pdfrwt beam="2">  1        3 0.27964437E-01 0.15113029E+03</pdfrwt>
<pdfrwt beam="1">  1       -3 0.18734910E-01 0.15113029E+03</pdfrwt>
<totfact> 0.72397743E+02</totfact>
</mgrwt>
</event>
<event>
 6    1  0.1190675E-005  0.2340035E+03  0.7546771E-02  0.1123853E+00
         -2   -1    0    0    0  501 -0.00000000000E+00  0.00000000000E+00  0.34803107626E+02  0.34803107626E+02  0.00000000000E+00 0.  1.
          2   -1    0    0  501    0  0.00000000000E+00 -0.00000000000E+00 -0.39333883675E+03  0.39333883675E+03  0.00000000000E+00 0. -1.
          5    1    1    2  502    0  0.43341050021E+01  0.43741335999E+02 -0.13142138882E+02  0.46118269216E+02  0.47000000000E+01 0. -1.
         -5    1    1    2    0  502  0.21740317404E+01 -0.50074041897E+01 -0.22966660552E+03  0.22977954696E+03  0.47000000000E+01 0. -1.
        -11    1    1    2    0    0  0.28211559595E+02 -0.48785194335E+02 -0.95328037729E+02  0.11073988468E+03  0.00000000000E+00 0. -1.
         11    1    1    2    0    0 -0.34719696338E+02  0.10051262526E+02 -0.20398947000E+02  0.41504243528E+02  0.00000000000E+00 0.  1.
<mgrwt>
<rscale>  0 0.23400354E+03</rscale>
<asrwt>0</asrwt>
<pdfrwt beam="2">  1        2 0.60513668E-01 0.23400354E+03</pdfrwt>
<pdfrwt beam="1">  1       -2 0.53543242E-02 0.23400354E+03</pdfrwt>
<totfact> 0.14085357E+04</totfact>
</mgrwt>
</event>
<event>
 6    1  0.1190675E-005  0.1729509E+03  0.7546771E-02  0.1181005E+00
         -1   -1    0    0    0  501 -0.00000000000E+00  0.00000000000E+00  0.53928542322E+02  0.53928542322E+02  0.00000000000E+00 0.  1.
          1   -1    0    0  501    0  0.00000000000E+00 -0.00000000000E+00 -0.48463542687E+03  0.48463542687E+03  0.00000000000E+00 0. -1.
          5    1    1    2  502    0  0.80528729637E+02 -0.27435409080E+02 -0.14091752150E+03  0.16467366466E+03  0.47000000000E+01 0. -1.
         -5    1    1    2    0  502  0.26599613197E+02  0.80413932470E+02 -0.87958070049E+02  0.12219923095E+03  0.47000000000E+01 0. -1.
        -11    1    1    2    0    0 -0.53343302486E+02 -0.72397664553E+02 -0.14786481293E+03  0.17306337757E+03  0.00000000000E+00 0. -1.
         11    1    1    2    0    0 -0.53785040348E+02  0.19419141164E+02 -0.53966480064E+02  0.78627696007E+02  0.00000000000E+00 0.  1.
<mgrwt>
<rscale>  0 0.16700743E+03</rscale>
<asrwt>0</asrwt>
<pdfrwt beam="2">  1        1 0.74559298E-01 0.17295092E+03</pdfrwt>
<pdfrwt beam="1">  1       -1 0.82966986E-02 0.17295092E+03</pdfrwt>
<totfact> 0.37540867E+03</totfact>
</mgrwt>
</event>
<event>
 6    1  0.1190675E-005  0.1374618E+03  0.7546771E-02  0.1228527E+00
         -2   -1    0    0    0  501 -0.00000000000E+00  0.00000000000E+00  0.77741682372E+02  0.77741682372E+02  0.00000000000E+00 0.  1.
          2   -1    0    0  501    0  0.00000000000E+00 -0.00000000000E+00 -0.20848218636E+03  0.20848218636E+03  0.00000000000E+00 0. -1.
          5    1    1    2  502    0  0.52969047658E+02 -0.48895840476E+02 -0.73691477499E+02  0.10319422019E+03  0.47000000000E+01 0.  1.
         -5    1    1    2    0  502 -0.62757801511E+02 -0.74698536189E+01 -0.37753047811E+02  0.73768034965E+02  0.47000000000E+01 0.  1.
        -11    1    1    2    0    0 -0.37284494401E+02  0.50491865245E+01 -0.30046743183E+01  0.37744613855E+02  0.00000000000E+00 0.  1.
         11    1    1    2    0    0  0.47073248255E+02  0.51316507570E+02 -0.16291304356E+02  0.71516999714E+02  0.00000000000E+00 0. -1.
<mgrwt>
<rscale>  0 0.12928062E+03</rscale>
<asrwt>0</asrwt>
<pdfrwt beam="2">  1        2 0.32074182E-01 0.13746184E+03</pdfrwt>
<pdfrwt beam="1">  1       -2 0.11960259E-01 0.13746184E+03</pdfrwt>
<totfact> 0.76819886E+03</totfact>
</mgrwt>
</event>
<event>
 6    1  0.1190675E-005  0.1411418E+03  0.7546771E-02  0.1221477E+00
          1   -1    0    0  501    0  0.00000000000E+00  0.00000000000E+00  0.83029484168E+02  0.83029484168E+02  0.00000000000E+00 0. -1.
         -1   -1    0    0    0  501 -0.00000000000E+00 -0.00000000000E+00 -0.21194070514E+03  0.21194070514E+03  0.00000000000E+00 0.  1.
          5    1    1    2  502    0  0.39024403680E+02 -0.39477932131E+02 -0.77365935743E+02  0.95336190512E+02  0.47000000000E+01 0. -1.
         -5    1    1    2    0  502  0.18530637451E+02  0.81102211913E+01  0.44919126222E+02  0.49487150986E+02  0.47000000000E+01 0. -1.
        -11    1    1    2    0    0 -0.73431713950E+02  0.13253185495E+02 -0.31744684077E+02  0.81090002507E+02  0.00000000000E+00 0. -1.
         11    1    1    2    0    0  0.15876672819E+02  0.18114525444E+02 -0.64719727377E+02  0.69056845306E+02  0.00000000000E+00 0.  1.
<mgrwt>
<rscale>  0 0.13411346E+03</rscale>
<asrwt>0</asrwt>
<pdfrwt beam="1">  1        1 0.12773767E-01 0.14114179E+03</pdfrwt>
<pdfrwt beam="2">  1       -1 0.32606262E-01 0.14114179E+03</pdfrwt>
<totfact> 0.39256569E+03</totfact>
</mgrwt>
</event>
<event>
 6    1  0.1190675E-005  0.1338072E+03  0.7546771E-02  0.1234181E+00
         -1   -1    0    0    0  501 -0.00000000000E+00  0.00000000000E+00  0.30422420569E+02  0.30422420569E+02  0.00000000000E+00 0.  1.
          1   -1    0    0  501    0  0.00000000000E+00 -0.00000000000E+00 -0.55399993923E+03  0.55399993923E+03  0.00000000000E+00 0. -1.
          5    1    1    2  502    0  0.46339315554E+02  0.93330729644E+00 -0.18892997215E+03  0.19458886814E+03  0.47000000000E+01 0.  1.
         -5    1    1    2    0  502 -0.76204392256E+02  0.35986866213E+02 -0.21764423614E+03  0.23343793065E+03  0.47000000000E+01 0.  1.
        -11    1    1    2    0    0  0.59768256507E+01  0.11729885721E+02  0.11150351455E+02  0.17252333218E+02  0.00000000000E+00 0.  1.
         11    1    1    2    0    0  0.23888251051E+02 -0.48650059230E+02 -0.12815366183E+03  0.13914322779E+03  0.00000000000E+00 0. -1.
<mgrwt>
<rscale>  0 0.12556987E+03</rscale>
<asrwt>0</asrwt>
<pdfrwt beam="2">  1        1 0.85230755E-01 0.13380715E+03</pdfrwt>
<pdfrwt beam="1">  1       -1 0.46803727E-02 0.13380715E+03</pdfrwt>
<totfact> 0.73180520E+03</totfact>
</mgrwt>
</event>
<event>
 6    1  0.1190675E-005  0.1906172E+03  0.7546771E-02  0.1162861E+00
         -1   -1    0    0    0  501 -0.00000000000E+00  0.00000000000E+00  0.34740927823E+03  0.34740927823E+03  0.00000000000E+00 0.  1.
          1   -1    0    0  501    0  0.00000000000E+00 -0.00000000000E+00 -0.12974661790E+03  0.12974661790E+03  0.00000000000E+00 0. -1.
          5    1    1    2  502    0 -0.43015402180E+02 -0.12679451669E+03  0.16639998733E+01  0.13398519763E+03  0.47000000000E+01 0.  1.
         -5    1    1    2    0  502 -0.51817619614E+02  0.18553325438E+02 -0.14246169977E+02  0.57046778579E+02  0.47000000000E+01 0.  1.
        -11    1    1    2    0    0  0.79957821798E+02  0.12260630584E+03  0.18146476576E+03  0.23314163230E+03  0.00000000000E+00 0.  1.
         11    1    1    2    0    0  0.14875199996E+02 -0.14365114585E+02  0.48780064668E+02  0.52982287616E+02  0.00000000000E+00 0. -1.
<mgrwt>
<rscale>  0 0.18520285E+03</rscale>
<asrwt>0</asrwt>
<pdfrwt beam="2">  1        1 0.19961018E-01 0.19061717E+03</pdfrwt>
<pdfrwt beam="1">  1       -1 0.53447581E-01 0.19061717E+03</pdfrwt>
<totfact> 0.92463759E+02</totfact>
</mgrwt>
</event>
<event>
 6    1  0.1190675E-005  0.2343496E+03  0.7546771E-02  0.1125796E+00
         -2   -1    0    0    0  501 -0.00000000000E+00  0.00000000000E+00  0.19572426677E+03  0.19572426677E+03  0.00000000000E+00 0.  1.
          2   -1    0    0  501    0  0.00000000000E+00 -0.00000000000E+00 -0.33000224910E+03  0.33000224910E+03  0.00000000000E+00 0. -1.
          5    1    1    2  502    0  0.43941094594E+02 -0.13005267900E+03 -0.14651867406E+03  0.20083408813E+03  0.47000000000E+01 0. -1.
         -5    1    1    2    0  502 -0.53100257725E+02 -0.72107569613E+02 -0.37795266462E+02  0.97312440792E+02  0.47000000000E+01 0.  1.
        -11    1    1    2    0    0 -0.17225632961E+02  0.14446283566E+03  0.69476679872E+02  0.16122419907E+03  0.00000000000E+00 0.  1.
         11    1    1    2    0    0  0.26384796092E+02  0.57697412946E+02 -0.19440721682E+02  0.66355787879E+02  0.00000000000E+00 0. -1.
<mgrwt>
<rscale>  0 0.23120219E+03</rscale>
<asrwt>0</asrwt>
<pdfrwt beam="2">  1        2 0.50769577E-01 0.23434958E+03</pdfrwt>
<pdfrwt beam="1">  1       -2 0.30111426E-01 0.23434958E+03</pdfrwt>
<totfact> 0.10006719E+03</totfact>
</mgrwt>
</event>
<event>
 6    1  0.1190675E-005  0.1503404E+03  0.7546771E-02  0.1208866E+00
          2   -1    0    0  501    0  0.00000000000E+00  0.00000000000E+00  0.29377751815E+04  0.29377751815E+04  0.00000000000E+00 0. -1.
         -2   -1    0    0    0  501 -0.00000000000E+00 -0.00000000000E+00 -0.24010100851E+02  0.24010100851E+02  0.00000000000E+00 0.  1.
          5    1    1    2  502    0 -0.12773863747E+02 -0.23265900852E+02  0.19018235821E+04  0.19020145902E+04  0.47000000000E+01 0.  1.
         -5    1    1    2    0  502  0.75074892024E+02 -0.32410364933E+02  0.85794645080E+03  0.86184736097E+03  0.47000000000E+01 0.  1.
        -11    1    1    2    0    0 -0.36124238226E+01 -0.24406001432E+02  0.37099688648E+02  0.44554342208E+02  0.00000000000E+00 0.  1.
         11    1    1    2    0    0 -0.58688604454E+02  0.80082267217E+02  0.11689535913E+03  0.15336898905E+03  0.00000000000E+00 0. -1.
<mgrwt>
<rscale>  0 0.14336897E+03</rscale>
<asrwt>0</asrwt>
<pdfrwt beam="1">  1        2 0.45196513E+00 0.15034045E+03</pdfrwt>
<pdfrwt beam="2">  1       -2 0.36938640E-02 0.15034045E+03</pdfrwt>
<totfact> 0.72588237E+02</totfact>
</mgrwt>
</event>
<event>
 6    1  0.1190675E-005  0.2846101E+03  0.7546771E-02  0.1093197E+00
         -1   -1    0    0    0  501 -0.00000000000E+00  0.00000000000E+00  0.72180896938E+03  0.72180896938E+03  0.00000000000E+00 0.  1.
          1   -1    0    0  501    0  0.00000000000E+00 -0.00000000000E+00 -0.28055523823E+02  0.28055523823E+02  0.00000000000E+00 0. -1.
          5    1    1    2  502    0  0.13973189116E+01  0.78113073713E+02  0.73373757912E+02  0.10728188633E+03  0.47000000000E+01 0. -1.
         -5    1    1    2    0  502 -0.37229859280E+02 -0.75148992950E+01  0.15071735760E+03  0.15550031516E+03  0.47000000000E+01 0.  1.
        -11    1    1    2    0    0 -0.28638062442E+02 -0.34222201091E+02  0.92215520747E+02  0.10244510693E+03  0.00000000000E+00 0. -1.
         11    1    1    2    0    0  0.64470602811E+02 -0.36375973327E+02  0.37744680930E+03  0.38463718477E+03  0.00000000000E+00 0.  1.
<mgrwt>
<rscale>  0 0.28461011E+03</rscale>
<asrwt>0</asrwt>
<pdfrwt beam="2">  1        1 0.43162350E-02 0.28461011E+03</pdfrwt>
<pdfrwt beam="1">  1       -1 0.11104752E+00 0.28461011E+03</pdfrwt>
<totfact> 0.16226378E+03</totfact>
</mgrwt>
</event>
<event>
 6    1  0.1190675E-005  0.1290368E+03  0.7546771E-02  0.1240461E+00
          2   -1    0    0  501    0  0.00000000000E+00  0.00000000000E+00  0.58489414138E+03  0.58489414138E+03  0.00000000000E+00 0. -1.
         -2   -1    0    0    0  501 -0.00000000000E+00 -0.00000000000E+00 -0.23581614109E+02  0.23581614109E+02  0.00000000000E+00 0.  1.
          5    1    1    2  502    0  0.27681639942E+02  0.46494430468E+02  0.69628844087E+02  0.88307820624E+02  0.47000000000E+01 0.  1.
         -5    1    1    2    0  502  0.42440051596E+01 -0.43820405020E+02  0.29883665282E+03  0.30209878276E+03  0.47000000000E+01 0.  1.
        -11    1    1    2    0    0 -0.45821852311E+02  0.10936059279E+02  0.19295037305E+03  0.19861793978E+03  0.00000000000E+00 0. -1.
         11    1    1    2    0    0  0.13896207209E+02 -0.13610084726E+02 -0.10334269270E+00  0.19451212321E+02  0.00000000000E+00 0.  1.
<mgrwt>
<rscale>  0 0.12161217E+03</rscale>
<asrwt>0</asrwt>
<pdfrwt beam="1">  1        2 0.89983703E-01 0.12903679E+03</pdfrwt>
<pdfrwt beam="2">  1       -2 0.36279411E-02 0.12903679E+03</pdfrwt>
<totfact> 0.15619098E+04</totfact>
</mgrwt>
</event>
<event>
 6    1  0.1190675E-005  0.3181924E+03  0.7546771E-02  0.1076484E+00
          1   -1    0    0  501    0  0.00000000000E+00  0.00000000000E+00  0.21793032075E+03  0.21793032075E+03  0.00000000000E+00 0. -1.
         -1   -1    0    0    0  501 -0.00000000000E+00 -0.00000000000E+00 -0.11614541417E+03  0.11614541417E+03  0.00000000000E+00 0.  1.
          5    1    1    2  502    0 -0.33223435921E+02 -0.21168629794E+01  0.22675340386E+02  0.40552914382E+02  0.47000000000E+01 0.  1.
         -5    1    1    2    0  502  0.96241114704E+02 -0.93384171102E+02  0.38278308651E+02  0.13953592543E+03  0.47000000000E+01 0.  1.
        -11    1    1    2    0    0 -0.53789719167E+02  0.82050655019E+01 -0.55683213598E+01  0.54696098496E+02  0.00000000000E+00 0. -1.
         11    1    1    2    0    0 -0.92279596161E+01  0.87295968579E+02  0.46399578910E+02  0.99290796612E+02  0.00000000000E+00 0.  1.
<mgrwt>
<rscale>  0 0.31819244E+03</rscale>
<asrwt>0</asrwt>
<pdfrwt beam="1">  1        1 0.33527742E-01 0.31819244E+03</pdfrwt>
<pdfrwt beam="2">  1       -1 0.17868525E-01 0.31819244E+03</pdfrwt>
<totfact> 0.31874846E+03</totfact>
</mgrwt>
</event>
<event>
 6    1  0.1190675E-005  0.1627797E+03  0.7546771E-02  0.1192645E+00
         -1   -1    0    0    0  501 -0.00000000000E+00  0.00000000000E+00  0.46052442039E+02  0.46052442039E+02  0.00000000000E+00 0.  1.
          1   -1    0    0  501    0  0.00000000000E+00 -0.00000000000E+00 -0.58195966369E+03  0.58195966369E+03  0.00000000000E+00 0. -1.
          5    1    1    2  502    0  0.64757409876E+02 -0.11607442164E+03 -0.31705006295E+03  0.34381626766E+03  0.47000000000E+01 0. -1.
         -5    1    1    2    0  502 -0.12447526222E+02  0.25872233709E+02 -0.89547671616E+02  0.94155131979E+02  0.47000000000E+01 0. -1.
        -11    1    1    2    0    0 -0.54026583278E+02  0.66125780624E+02 -0.34314402654E+02  0.92027000350E+02  0.00000000000E+00 0.  1.
         11    1    1    2    0    0  0.17166996243E+01  0.24076407304E+02 -0.94995084434E+02  0.98013705740E+02  0.00000000000E+00 0. -1.
<mgrwt>
<rscale>  0 0.15655252E+03</rscale>
<asrwt>0</asrwt>
<pdfrwt beam="2">  1        1 0.89532253E-01 0.16277970E+03</pdfrwt>
<pdfrwt beam="1">  1       -1 0.70849913E-02 0.16277970E+03</pdfrwt>
<totfact> 0.37276731E+03</totfact>
</mgrwt>
</event>
<event>
 6    1  0.1190675E-005  0.1930849E+03  0.7546771E-02  0.1160499E+00
          2   -1    0    0  501    0  0.00000000000E+00  0.00000000000E+00  0.14620530711E+04  0.14620530711E+04  0.00000000000E+00 0.  1.
         -2   -1    0    0    0  501 -0.00000000000E+00 -0.00000000000E+00 -0.24582749827E+02  0.24582749827E+02  0.00000000000E+00 0. -1.
          5    1    1    2  502    0  0.26247274150E+02 -0.28655572469E+02  0.10568956604E+03  0.11270508242E+03  0.47000000000E+01 0.  1.
         -5    1    1    2    0  502 -0.11460487209E+03 -0.89058105766E+02  0.84625187660E+03  0.85862095919E+03  0.47000000000E+01 0.  1.
        -11    1    1    2    0    0  0.17930784732E+02 -0.14319511145E+02  0.69083886834E+02  0.72795225535E+02  0.00000000000E+00 0.  1.
         11    1    1    2    0    0  0.70426813205E+02  0.13203318938E+03  0.41644499182E+03  0.44251455380E+03  0.00000000000E+00 0. -1.
<mgrwt>
<rscale>  0 0.18775821E+03</rscale>
<asrwt>0</asrwt>
<pdfrwt beam="1">  1        2 0.22493117E+00 0.19308487E+03</pdfrwt>
<pdfrwt beam="2">  1       -2 0.37819627E-02 0.19308487E+03</pdfrwt>
<totfact> 0.42562830E+03</totfact>
</mgrwt>
</event>
<event>
 6    1  0.1190675E-005  0.1659433E+03  0.7546771E-02  0.1189853E+00
         -3   -1    0    0    0  501 -0.00000000000E+00  0.00000000000E+00  0.63473484943E+02  0.63473484943E+02  0.00000000000E+00 0.  1.
          3   -1    0    0  501    0  0.00000000000E+00 -0.00000000000E+00 -0.38548698891E+03  0.38548698891E+03  0.00000000000E+00 0. -1.
          5    1    1    2  502    0  0.84638685802E+01  0.34413378549E+02 -0.17725322459E+03  0.18082232528E+03  0.47000000000E+01 0.  1.
         -5    1    1    2    0  502  0.79526690807E+02  0.30091316858E+02 -0.44318269103E+02  0.96000942064E+02  0.47000000000E+01 0.  1.
        -11    1    1    2    0    0 -0.56889871651E+01  0.15391296062E+02 -0.38333765939E+02  0.41698131619E+02  0.00000000000E+00 0. -1.
         11    1    1    2    0    0 -0.82301572222E+02 -0.79895991469E+02 -0.62108244341E+02  0.13043907489E+03  0.00000000000E+00 0.  1.
<mgrwt>
<rscale>  0 0.15898009E+03</rscale>
<asrwt>0</asrwt>
<pdfrwt beam="2">  1        3 0.59305691E-01 0.16594335E+03</pdfrwt>
<pdfrwt beam="1">  1       -3 0.97651515E-02 0.16594335E+03</pdfrwt>
<totfact> 0.51646529E+02</totfact>
</mgrwt>
</event>
<event>
 6    1  0.1190675E-005  0.1378396E+03  0.7546771E-02  0.1227832E+00
          2   -1    0    0  501    0  0.00000000000E+00  0.00000000000E+00  0.12146430965E+04  0.12146430965E+04  0.00000000000E+00 0. -1.
         -2   -1    0    0    0  501 -0.00000000000E+00 -0.00000000000E+00 -0.21714285853E+02  0.21714285853E+02  0.00000000000E+00 0.  1.
          5    1    1    2  502    0 -0.25045234588E+02  0.12021644363E+02  0.60745349554E+03  0.60810658848E+03  0.47000000000E+01 0. -1.
         -5    1    1    2    0  502  0.80561673711E+02 -0.29286374598E+02  0.43210266068E+03  0.44054815217E+03  0.47000000000E+01 0. -1.
        -11    1    1    2    0    0 -0.61145526407E+02  0.37029487269E+02  0.63837770396E+02  0.95839549541E+02  0.00000000000E+00 0.  1.
         11    1    1    2    0    0  0.56290872836E+01 -0.19764757035E+02  0.89534884029E+02  0.91863092166E+02  0.00000000000E+00 0. -1.
<mgrwt>
<rscale>  0 0.12974662E+03</rscale>
<asrwt>0</asrwt>
<pdfrwt beam="1">  1        2 0.18686812E+00 0.13783963E+03</pdfrwt>
<pdfrwt beam="2">  1       -2 0.33406603E-02 0.13783963E+03</pdfrwt>
<totfact> 0.68964973E+03</totfact>
</mgrwt>
</event>
<event>
 6    1  0.1190675E-005  0.2126630E+03  0.7546771E-02  0.1174157E+00
         -2   -1    0    0    0  501 -0.00000000000E+00  0.00000000000E+00  0.83261037477E+03  0.83261037477E+03  0.00000000000E+00 0.  1.
          2   -1    0    0  501    0  0.00000000000E+00 -0.00000000000E+00 -0.31733468879E+02  0.31733468879E+02  0.00000000000E+00 0. -1.
          5    1    1    2  502    0  0.62312305982E+02  0.33567180028E+01  0.16561262888E+02  0.64733735108E+02  0.47000000000E+01 0. -1.
         -5    1    1    2    0  502 -0.50244881681E+02 -0.26786539673E+02  0.38928175977E+03  0.39345196065E+03  0.47000000000E+01 0.  1.
        -11    1    1    2    0    0 -0.29323795386E+02  0.50077599647E+02  0.31013479988E+03  0.31551742434E+03  0.00000000000E+00 0.  1.
         11    1    1    2    0    0  0.17256371085E+02 -0.26647777977E+02  0.84899083340E+02  0.90640723553E+02  0.00000000000E+00 0. -1.
<mgrwt>
<rscale>  0 0.17358813E+03</rscale>
<asrwt>0</asrwt>
<pdfrwt beam="2">  1        2 0.48820728E-02 0.21266305E+03</pdfrwt>
<pdfrwt beam="1">  1       -2 0.12809389E+00 0.21266305E+03</pdfrwt>
<totfact> 0.76091034E+02</totfact>
</mgrwt>
</event>
<event>
 6    1  0.1190675E-005  0.1294495E+03  0.7546771E-02  0.1269313E+00
          3   -1    0    0  501    0  0.00000000000E+00  0.00000000000E+00  0.64523938911E+02  0.64523938911E+02  0.00000000000E+00 0. -1.
         -3   -1    0    0    0  501 -0.00000000000E+00 -0.00000000000E+00 -0.13841884542E+03  0.13841884542E+03  0.00000000000E+00 0.  1.
          5    1    1    2  502    0 -0.33084228360E+02  0.26334567012E+02  0.30621221349E+02  0.52419698423E+02  0.47000000000E+01 0.  1.
         -5    1    1    2    0  502  0.70045614460E+01 -0.47614565373E+02 -0.65923699136E+02  0.81757169866E+02  0.47000000000E+01 0.  1.
        -11    1    1    2    0    0  0.16786895102E+02  0.30789962359E+02 -0.42315216447E+02  0.54958158377E+02  0.00000000000E+00 0.  1.
         11    1    1    2    0    0  0.92927718115E+01 -0.95099639984E+01  0.37227877277E+01  0.13807757662E+02  0.00000000000E+00 0. -1.
<mgrwt>
<rscale>  0 0.10541026E+03</rscale>
<asrwt>0</asrwt>
<pdfrwt beam="1">  1        3 0.99267599E-02 0.12944948E+03</pdfrwt>
<pdfrwt beam="2">  1       -3 0.21295207E-01 0.12944948E+03</pdfrwt>
<totfact> 0.33903556E+03</totfact>
</mgrwt>
</event>
<event>
 6    1  0.1190675E-005  0.1624465E+03  0.7546771E-02  0.1193631E+00
         -4   -1    0    0    0  501 -0.00000000000E+00  0.00000000000E+00  0.21553070076E+03  0.21553070076E+03  0.00000000000E+00 0.  1.
          4   -1    0    0  501    0  0.00000000000E+00 -0.00000000000E+00 -0.17149444046E+03  0.17149444046E+03  0.00000000000E+00 0. -1.
          5    1    1    2  502    0  0.42078180766E+02 -0.83181272720E+01 -0.56612207903E+02  0.71181434529E+02  0.47000000000E+01 0.  1.
         -5    1    1    2    0  502 -0.18650075291E+02  0.10938147648E+03 -0.41294226737E+02  0.11848812542E+03  0.47000000000E+01 0.  1.
        -11    1    1    2    0    0  0.35364265400E+01 -0.81136167344E+02  0.14227821122E+03  0.16382513041E+03  0.00000000000E+00 0.  1.
         11    1    1    2    0    0 -0.26964532016E+02 -0.19927181861E+02 -0.33551628192E+00  0.33530450861E+02  0.00000000000E+00 0. -1.
<mgrwt>
<rscale>  0 0.15570654E+03</rscale>
<asrwt>0</asrwt>
<pdfrwt beam="2">  1        4 0.26383760E-01 0.16244652E+03</pdfrwt>
<pdfrwt beam="1">  1       -4 0.33158569E-01 0.16244652E+03</pdfrwt>
<totfact> 0.20467788E+02</totfact>
</mgrwt>
</event>
<event>
 6    1  0.1190675E-005  0.1447710E+03  0.7546771E-02  0.1216763E+00
         -2   -1    0    0    0  501 -0.00000000000E+00  0.00000000000E+00  0.87824783378E+02  0.87824783378E+02  0.00000000000E+00 0.  1.
          2   -1    0    0  501    0  0.00000000000E+00 -0.00000000000E+00 -0.19903825547E+03  0.19903825547E+03  0.00000000000E+00 0. -1.
          5    1    1    2  502    0  0.13318886782E+02  0.43643991731E+02 -0.39430472714E+01  0.46041594033E+02  0.47000000000E+01 0. -1.
         -5    1    1    2    0  502 -0.86335144951E+02 -0.44719435948E+02 -0.40117613239E+02  0.10528579248E+03  0.47000000000E+01 0. -1.
        -11    1    1    2    0    0  0.74401303523E+02  0.23251178686E+02 -0.15734415126E+02  0.79521966120E+02  0.00000000000E+00 0.  1.
         11    1    1    2    0    0 -0.13850453544E+01 -0.22175734469E+02 -0.51418396460E+02  0.56013686224E+02  0.00000000000E+00 0. -1.
<mgrwt>
<rscale>  0 0.13747798E+03</rscale>
<asrwt>0</asrwt>
<pdfrwt beam="2">  1        2 0.30621270E-01 0.14477098E+03</pdfrwt>
<pdfrwt beam="1">  1       -2 0.13511505E-01 0.14477098E+03</pdfrwt>
<totfact> 0.66623401E+03</totfact>
</mgrwt>
</event>
<event>
 6    1  0.1190675E-005  0.1142767E+03  0.7546771E-02  0.1262419E+00
          2   -1    0    0  501    0  0.00000000000E+00  0.00000000000E+00  0.45118774976E+03  0.45118774976E+03  0.00000000000E+00 0. -1.
         -2   -1    0    0    0  501 -0.00000000000E+00 -0.00000000000E+00 -0.76137360311E+02  0.76137360311E+02  0.00000000000E+00 0.  1.
          5    1    1    2  502    0 -0.16154638256E+02  0.65196021958E+02  0.24654073009E+03  0.25556978540E+03  0.47000000000E+01 0. -1.
         -5    1    1    2    0  502  0.19945642321E+01 -0.46639273270E+02  0.16409599209E+03  0.17067156974E+03  0.47000000000E+01 0.  1.
        -11    1    1    2    0    0  0.52937283238E+02 -0.16906717311E+02 -0.24394306777E+02  0.60689992997E+02  0.00000000000E+00 0. -1.
         11    1    1    2    0    0 -0.38777209214E+02 -0.16500313766E+01 -0.11192025956E+02  0.40393761932E+02  0.00000000000E+00 0.  1.
<mgrwt>
<rscale>  0 0.10900731E+03</rscale>
<asrwt>0</asrwt>
<pdfrwt beam="1">  1        2 0.69413498E-01 0.11427675E+03</pdfrwt>
<pdfrwt beam="2">  1       -2 0.11713440E-01 0.11427675E+03</pdfrwt>
<totfact> 0.34564605E+03</totfact>
</mgrwt>
</event>
<event>
 6    1  0.1190675E-005  0.1307496E+03  0.7546771E-02  0.1238975E+00
          2   -1    0    0  501    0  0.00000000000E+00  0.00000000000E+00  0.92445793976E+03  0.92445793976E+03  0.00000000000E+00 0. -1.
         -2   -1    0    0    0  501 -0.00000000000E+00 -0.00000000000E+00 -0.16489690093E+02  0.16489690093E+02  0.00000000000E+00 0.  1.
          5    1    1    2  502    0  0.36146454905E+01 -0.51947297680E+02  0.13099496127E+03  0.14104381332E+03  0.47000000000E+01 0.  1.
         -5    1    1    2    0  502 -0.38702574883E+02  0.36268557731E+02  0.53652010185E+03  0.53915601385E+03  0.47000000000E+01 0.  1.
        -11    1    1    2    0    0 -0.96003704296E+01  0.44786808810E+02  0.87508628451E+02  0.98771379504E+02  0.00000000000E+00 0.  1.
         11    1    1    2    0    0  0.44688299822E+02 -0.29108068861E+02  0.15294455810E+03  0.16197642318E+03  0.00000000000E+00 0. -1.
<mgrwt>
<rscale>  0 0.12253333E+03</rscale>
<asrwt>0</asrwt>
<pdfrwt beam="1">  1        2 0.14222426E+00 0.13074955E+03</pdfrwt>
<pdfrwt beam="2">  1       -2 0.25368761E-02 0.13074955E+03</pdfrwt>
<totfact> 0.15188963E+04</totfact>
</mgrwt>
</event>
<event>
 6    1  0.1190675E-005  0.5195101E+03  0.7546771E-02  0.1008808E+00
         -1   -1    0    0    0  501 -0.00000000000E+00  0.00000000000E+00  0.10468849973E+04  0.10468849973E+04  0.00000000000E+00 0.  1.
          1   -1    0    0  501    0  0.00000000000E+00 -0.00000000000E+00 -0.64450898477E+02  0.64450898477E+02  0.00000000000E+00 0. -1.
          5    1    1    2  502    0  0.13084582404E+00 -0.20944756504E+02  0.97134617561E+02  0.99478258300E+02  0.47000000000E+01 0.  1.
         -5    1    1    2    0  502 -0.17479106206E+03 -0.73418713999E+02  0.15506800632E+03  0.24497020130E+03  0.47000000000E+01 0.  1.
        -11    1    1    2    0    0  0.12841533039E+03  0.39155904921E+02  0.62575526416E+03  0.63999479107E+03  0.00000000000E+00 0.  1.
         11    1    1    2    0    0  0.46244885843E+02  0.55207565582E+02  0.10447621078E+03  0.12689264511E+03  0.00000000000E+00 0. -1.
<mgrwt>
<rscale>  0 0.51951007E+03</rscale>
<asrwt>0</asrwt>
<pdfrwt beam="2">  1        1 0.99155236E-02 0.51951007E+03</pdfrwt>
<pdfrwt beam="1">  1       -1 0.16105922E+00 0.51951007E+03</pdfrwt>
<totfact> 0.20015393E+02</totfact>
</mgrwt>
</event>
<event>
 6    1  0.1190675E-005  0.2684206E+03  0.7546771E-02  0.1115376E+00
         -2   -1    0    0    0  501 -0.00000000000E+00  0.00000000000E+00  0.22090656654E+02  0.22090656654E+02  0.00000000000E+00 0.  1.
          2   -1    0    0  501    0  0.00000000000E+00 -0.00000000000E+00 -0.25801039040E+04  0.25801039040E+04  0.00000000000E+00 0. -1.
          5    1    1    2  502    0  0.13414700938E+03  0.52632408734E+02 -0.12000555143E+04  0.12086856159E+04  0.47000000000E+01 0. -1.
         -5    1    1    2    0  502 -0.61627058037E+02  0.10007640884E+03 -0.62031983229E+03  0.63137308006E+03  0.47000000000E+01 0.  1.
        -11    1    1    2    0    0 -0.16795673014E+01 -0.10750719517E+03 -0.40020870594E+03  0.41440032127E+03  0.00000000000E+00 0. -1.
         11    1    1    2    0    0 -0.70840384040E+02 -0.45201622407E+02 -0.33742919483E+03  0.34773554348E+03  0.00000000000E+00 0.  1.
<mgrwt>
<rscale>  0 0.24674952E+03</rscale>
<asrwt>0</asrwt>
<pdfrwt beam="2">  1        2 0.39693904E+00 0.26842057E+03</pdfrwt>
<pdfrwt beam="1">  1       -2 0.33985627E-02 0.26842057E+03</pdfrwt>
<totfact> 0.12727954E+03</totfact>
</mgrwt>
</event>
<event>
 6    1  0.1190675E-005  0.1650901E+03  0.7546771E-02  0.1189579E+00
         -2   -1    0    0    0  501 -0.00000000000E+00  0.00000000000E+00  0.32397906869E+02  0.32397906869E+02  0.00000000000E+00 0.  1.
          2   -1    0    0  501    0  0.00000000000E+00 -0.00000000000E+00 -0.86434559314E+03  0.86434559314E+03  0.00000000000E+00 0. -1.
          5    1    1    2  502    0 -0.28960366251E+02  0.81566200927E+02 -0.17540798156E+03  0.19565734829E+03  0.47000000000E+01 0.  1.
         -5    1    1    2    0  502 -0.35331487176E+02  0.50127353790E+01 -0.44129572688E+03  0.44276116594E+03  0.47000000000E+01 0.  1.
        -11    1    1    2    0    0 -0.77580753038E+01 -0.43321260289E+02 -0.25647609537E+02  0.50938386315E+02  0.00000000000E+00 0.  1.
         11    1    1    2    0    0  0.72049928731E+02 -0.43257676017E+02 -0.18959636830E+03  0.20738659946E+03  0.00000000000E+00 0. -1.
<mgrwt>
<rscale>  0 0.15922064E+03</rscale>
<asrwt>0</asrwt>
<pdfrwt beam="2">  1        2 0.13297627E+00 0.16509008E+03</pdfrwt>
<pdfrwt beam="1">  1       -2 0.49842925E-02 0.16509008E+03</pdfrwt>
<totfact> 0.61719126E+03</totfact>
</mgrwt>
</event>
<event>
 6    1  0.1190675E-005  0.1440037E+03  0.7546771E-02  0.1219152E+00
         -2   -1    0    0    0  501 -0.00000000000E+00  0.00000000000E+00  0.67642460255E+02  0.67642460255E+02  0.00000000000E+00 0. -1.
          2   -1    0    0  501    0  0.00000000000E+00 -0.00000000000E+00 -0.24634569654E+03  0.24634569654E+03  0.00000000000E+00 0.  1.
          5    1    1    2  502    0  0.56031309439E+02 -0.24266318150E+02  0.28148042601E+01  0.61305586670E+02  0.47000000000E+01 0. -1.
         -5    1    1    2    0  502 -0.19109460812E+02 -0.36968688781E+02 -0.11151058310E+03  0.11911572350E+03  0.47000000000E+01 0. -1.
        -11    1    1    2    0    0 -0.30356146597E+02  0.17327714412E+02  0.14709182484E+02  0.37922359794E+02  0.00000000000E+00 0. -1.
         11    1    1    2    0    0 -0.65657020289E+01  0.43907292519E+02 -0.84716639938E+02  0.95644486835E+02  0.00000000000E+00 0.  1.
<mgrwt>
<rscale>  0 0.13575885E+03</rscale>
<asrwt>0</asrwt>
<pdfrwt beam="2">  1        2 0.37899338E-01 0.14400374E+03</pdfrwt>
<pdfrwt beam="1">  1       -2 0.10406532E-01 0.14400374E+03</pdfrwt>
<totfact> 0.80364212E+03</totfact>
</mgrwt>
</event>
<event>
 6    1  0.1190675E-005  0.1335019E+03  0.7546771E-02  0.1233920E+00
         -2   -1    0    0    0  501 -0.00000000000E+00  0.00000000000E+00  0.19135680455E+02  0.19135680455E+02  0.00000000000E+00 0. -1.
          2   -1    0    0  501    0  0.00000000000E+00 -0.00000000000E+00 -0.75517489836E+03  0.75517489836E+03  0.00000000000E+00 0.  1.
          5    1    1    2  502    0 -0.22324190259E+02  0.29353399684E+02 -0.55988859552E+02  0.67207394963E+02  0.47000000000E+01 0. -1.
         -5    1    1    2    0  502  0.67387649629E+02 -0.42250657163E+02 -0.40308475465E+03  0.41088395294E+03  0.47000000000E+01 0. -1.
        -11    1    1    2    0    0 -0.10724761642E+02 -0.39408541690E+02 -0.84784039700E+02  0.94108379320E+02  0.00000000000E+00 0.  1.
         11    1    1    2    0    0 -0.34338697728E+02  0.52305799169E+02 -0.19218156400E+03  0.20211085159E+03  0.00000000000E+00 0. -1.
<mgrwt>
<rscale>  0 0.12573797E+03</rscale>
<asrwt>0</asrwt>
<pdfrwt beam="2">  1        2 0.11618074E+00 0.13350189E+03</pdfrwt>
<pdfrwt beam="1">  1       -2 0.29439513E-02 0.13350189E+03</pdfrwt>
<totfact> 0.15802055E+04</totfact>
</mgrwt>
</event>
<event>
 6    1  0.1190675E-005  0.1452489E+03  0.7546771E-02  0.1215936E+00
         -2   -1    0    0    0  501 -0.00000000000E+00  0.00000000000E+00  0.10744672956E+02  0.10744672956E+02  0.00000000000E+00 0.  1.
          2   -1    0    0  501    0  0.00000000000E+00 -0.00000000000E+00 -0.18457332266E+04  0.18457332266E+04  0.00000000000E+00 0. -1.
          5    1    1    2  502    0 -0.68537378563E+02 -0.11791306650E+02 -0.66388109202E+03  0.66753022517E+03  0.47000000000E+01 0. -1.
         -5    1    1    2    0  502  0.24439046841E+02  0.71183318055E+02 -0.65793355824E+03  0.66224088430E+03  0.47000000000E+01 0. -1.
        -11    1    1    2    0    0  0.59842370373E+02 -0.42633380661E+01 -0.22339185030E+03  0.23130759634E+03  0.00000000000E+00 0.  1.
         11    1    1    2    0    0 -0.15744038651E+02 -0.55128673339E+02 -0.28978205305E+03  0.29539919372E+03  0.00000000000E+00 0. -1.
<mgrwt>
<rscale>  0 0.13808017E+03</rscale>
<asrwt>0</asrwt>
<pdfrwt beam="2">  1        2 0.28395907E+00 0.14524887E+03</pdfrwt>
<pdfrwt beam="1">  1       -2 0.16530259E-02 0.14524887E+03</pdfrwt>
<totfact> 0.90178563E+03</totfact>
</mgrwt>
</event>
<event>
 6    1  0.1190675E-005  0.5040079E+03  0.7546771E-02  0.1012738E+00
          1   -1    0    0  501    0  0.00000000000E+00  0.00000000000E+00  0.19403170521E+04  0.19403170521E+04  0.00000000000E+00 0. -1.
         -1   -1    0    0    0  501 -0.00000000000E+00 -0.00000000000E+00 -0.32729693097E+02  0.32729693097E+02  0.00000000000E+00 0.  1.
          5    1    1    2  502    0 -0.68952455440E+02 -0.24501367681E+02  0.38614279719E+03  0.39304339194E+03  0.47000000000E+01 0. -1.
         -5    1    1    2    0  502 -0.85050168351E+02  0.14366610642E+03  0.94191299932E+03  0.95660632946E+03  0.47000000000E+01 0.  1.
        -11    1    1    2    0    0  0.94968363436E+02 -0.49414589346E+02  0.15019247293E+03  0.18444123893E+03  0.00000000000E+00 0.  1.
         11    1    1    2    0    0  0.59034260355E+02 -0.69750149396E+02  0.42933908954E+03  0.43895578484E+03  0.00000000000E+00 0. -1.
<mgrwt>
<rscale>  0 0.50400786E+03</rscale>
<asrwt>0</asrwt>
<pdfrwt beam="1">  1        1 0.29851023E+00 0.50400786E+03</pdfrwt>
<pdfrwt beam="2">  1       -1 0.50353389E-02 0.50400786E+03</pdfrwt>
<totfact> 0.62782374E+02</totfact>
</mgrwt>
</event>
<event>
 6    1  0.1190675E-005  0.1631324E+03  0.7546771E-02  0.1191967E+00
         -2   -1    0    0    0  501 -0.00000000000E+00  0.00000000000E+00  0.13252685340E+03  0.13252685340E+03  0.00000000000E+00 0.  1.
          2   -1    0    0  501    0  0.00000000000E+00 -0.00000000000E+00 -0.27593788199E+03  0.27593788199E+03  0.00000000000E+00 0. -1.
          5    1    1    2  502    0 -0.17494953282E+02 -0.46721137639E+02 -0.10764087754E+03  0.11873325823E+03  0.47000000000E+01 0. -1.
         -5    1    1    2    0  502  0.10322110252E+03 -0.13626141653E+02 -0.91447120763E+02  0.13865400693E+03  0.47000000000E+01 0. -1.
        -11    1    1    2    0    0 -0.67722197066E+02  0.85644300911E+02  0.46732332788E+02  0.11876511770E+03  0.00000000000E+00 0.  1.
         11    1    1    2    0    0 -0.18003952168E+02 -0.25297021620E+02  0.89446369262E+01  0.32312352533E+02  0.00000000000E+00 0. -1.
<mgrwt>
<rscale>  0 0.15713785E+03</rscale>
<asrwt>0</asrwt>
<pdfrwt beam="2">  1        2 0.42451981E-01 0.16313238E+03</pdfrwt>
<pdfrwt beam="1">  1       -2 0.20388747E-01 0.16313238E+03</pdfrwt>
<totfact> 0.23856670E+03</totfact>
</mgrwt>
</event>
<event>
 6    1  0.1190675E-005  0.1270971E+03  0.7546771E-02  0.1245762E+00
          1   -1    0    0  501    0  0.00000000000E+00  0.00000000000E+00  0.60025678049E+03  0.60025678049E+03  0.00000000000E+00 0. -1.
         -1   -1    0    0    0  501 -0.00000000000E+00 -0.00000000000E+00 -0.24208208485E+02  0.24208208485E+02  0.00000000000E+00 0.  1.
          5    1    1    2  502    0  0.35548652949E+02 -0.41741926991E+02  0.35072557597E+03  0.35501635854E+03  0.47000000000E+01 0. -1.
         -5    1    1    2    0  502 -0.46514465425E+02  0.21570286911E+02  0.90187443549E+02  0.10384959194E+03  0.47000000000E+01 0. -1.
        -11    1    1    2    0    0 -0.13307439928E+01  0.40278130515E+02  0.14728794456E+02  0.42907296157E+02  0.00000000000E+00 0.  1.
         11    1    1    2    0    0  0.12296556469E+02 -0.20106490435E+02  0.12040675803E+03  0.12269174234E+03  0.00000000000E+00 0. -1.
<mgrwt>
<rscale>  0 0.11839874E+03</rscale>
<asrwt>0</asrwt>
<pdfrwt beam="1">  1        1 0.92347186E-01 0.12709709E+03</pdfrwt>
<pdfrwt beam="2">  1       -1 0.37243402E-02 0.12709709E+03</pdfrwt>
<totfact> 0.91592544E+03</totfact>
</mgrwt>
</event>
<event>
 6    1  0.1190675E-005  0.1259381E+03  0.7546771E-02  0.1248648E+00
          2   -1    0    0  501    0  0.00000000000E+00  0.00000000000E+00  0.28552632685E+03  0.28552632685E+03  0.00000000000E+00 0. -1.
         -2   -1    0    0    0  501 -0.00000000000E+00 -0.00000000000E+00 -0.41959957345E+02  0.41959957345E+02  0.00000000000E+00 0.  1.
          5    1    1    2  502    0  0.34482471044E+02 -0.55761360815E+01  0.14634988430E+03  0.15053409161E+03  0.47000000000E+01 0. -1.
         -5    1    1    2    0  502 -0.38834128475E+02  0.15487493298E+02 -0.61594004498E+00  0.42076375381E+02  0.47000000000E+01 0.  1.
        -11    1    1    2    0    0  0.40017788099E+02  0.18099908107E+02  0.29663155364E+02  0.52999366260E+02  0.00000000000E+00 0. -1.
         11    1    1    2    0    0 -0.35666130668E+02 -0.28011265323E+02  0.68169269882E+02  0.81876450938E+02  0.00000000000E+00 0.  1.
<mgrwt>
<rscale>  0 0.11669660E+03</rscale>
<asrwt>0</asrwt>
<pdfrwt beam="1">  1        2 0.43927126E-01 0.12593812E+03</pdfrwt>
<pdfrwt beam="2">  1       -2 0.64553782E-02 0.12593812E+03</pdfrwt>
<totfact> 0.14237366E+04</totfact>
</mgrwt>
</event>
<event>
 6    1  0.1190675E-005  0.1320140E+03  0.7546771E-02  0.1238136E+00
         -2   -1    0    0    0  501 -0.00000000000E+00  0.00000000000E+00  0.12464660112E+02  0.12464660112E+02  0.00000000000E+00 0.  1.
          2   -1    0    0  501    0  0.00000000000E+00 -0.00000000000E+00 -0.10875284346E+04  0.10875284346E+04  0.00000000000E+00 0. -1.
          5    1    1    2  502    0  0.44117046073E+02 -0.30181762930E+02 -0.42637367596E+03  0.42973695922E+03  0.47000000000E+01 0. -1.
         -5    1    1    2    0  502 -0.68180204856E+02 -0.47896145051E+01 -0.23996920217E+03  0.24955718529E+03  0.47000000000E+01 0. -1.
        -11    1    1    2    0    0 -0.22598180104E+01 -0.26280618170E+02 -0.58259593402E+02  0.63952778612E+02  0.00000000000E+00 0.  1.
         11    1    1    2    0    0  0.26322976794E+02  0.61251995605E+02 -0.35046130298E+03  0.35674617161E+03  0.00000000000E+00 0. -1.
<mgrwt>
<rscale>  0 0.12305808E+03</rscale>
<asrwt>0</asrwt>
<pdfrwt beam="2">  1        2 0.16731210E+00 0.13201403E+03</pdfrwt>
<pdfrwt beam="1">  1       -2 0.19176396E-02 0.13201403E+03</pdfrwt>
<totfact> 0.18258358E+04</totfact>
</mgrwt>
</event>
<event>
 6    1  0.1190675E-005  0.1677783E+03  0.7546771E-02  0.1185769E+00
         -1   -1    0    0    0  501 -0.00000000000E+00  0.00000000000E+00  0.82427632021E+02  0.82427632021E+02  0.00000000000E+00 0.  1.
          1   -1    0    0  501    0  0.00000000000E+00 -0.00000000000E+00 -0.35472330409E+03  0.35472330409E+03  0.00000000000E+00 0. -1.
          5    1    1    2  502    0  0.30520083202E+00  0.46957069456E+02 -0.11858391493E+03  0.12762952009E+03  0.47000000000E+01 0. -1.
         -5    1    1    2    0  502  0.10834228076E+03 -0.20052564530E+02 -0.10846042147E+03  0.15468001865E+03  0.47000000000E+01 0. -1.
        -11    1    1    2    0    0 -0.63580055273E+02 -0.55008325609E+02  0.14961313314E+01  0.84086727394E+02  0.00000000000E+00 0.  1.
         11    1    1    2    0    0 -0.45067426318E+02  0.28103820682E+02 -0.46747467001E+02  0.70754669972E+02  0.00000000000E+00 0. -1.
<mgrwt>
<rscale>  0 0.16262117E+03</rscale>
<asrwt>0</asrwt>
<pdfrwt beam="2">  1        1 0.54572816E-01 0.16777826E+03</pdfrwt>
<pdfrwt beam="1">  1       -1 0.12681174E-01 0.16777826E+03</pdfrwt>
<totfact> 0.29099024E+03</totfact>
</mgrwt>
</event>
<event>
 6    1  0.1259099E-005  0.1281590E+03  0.7546771E-02  0.1244599E+00
         -3   -1    0    0    0  501 -0.00000000000E+00  0.00000000000E+00  0.48512301377E+02  0.48512301377E+02  0.00000000000E+00 0.  1.
          3   -1    0    0  501    0  0.00000000000E+00 -0.00000000000E+00 -0.27936431974E+03  0.27936431974E+03  0.00000000000E+00 0. -1.
          5    1    1    2  502    0  0.43995251044E+02 -0.12815507691E+02 -0.11528880739E+03  0.12415078921E+03  0.47000000000E+01 0. -1.
         -5    1    1    2    0  502 -0.62031500487E+02  0.34580224258E+02 -0.60610434067E+02  0.93484831284E+02  0.47000000000E+01 0. -1.
        -11    1    1    2    0    0  0.34798395847E+02 -0.66715467715E+01  0.13691781346E+02  0.37985559970E+02  0.00000000000E+00 0.  1.
         11    1    1    2    0    0 -0.16762146404E+02 -0.15093169796E+02 -0.68644558255E+02  0.72255440657E+02  0.00000000000E+00 0. -1.
<mgrwt>
<rscale>  0 0.11909404E+03</rscale>
<asrwt>0</asrwt>
<pdfrwt beam="2">  1        3 0.42979126E-01 0.12815896E+03</pdfrwt>
<pdfrwt beam="1">  1       -3 0.74634311E-02 0.12815896E+03</pdfrwt>
<totfact> 0.14690056E+03</totfact>
</mgrwt>
</event>
<event>
 6    1  0.1190675E-005  0.1418630E+03  0.7546771E-02  0.1221447E+00
          4   -1    0    0  501    0  0.00000000000E+00  0.00000000000E+00  0.19266986678E+04  0.19266986678E+04  0.00000000000E+00 0. -1.
         -4   -1    0    0    0  501 -0.00000000000E+00 -0.00000000000E+00 -0.18215278842E+02  0.18215278842E+02  0.00000000000E+00 0.  1.
          5    1    1    2  502    0 -0.62804285506E+02 -0.29480798229E+02  0.61974620507E+03  0.62363526555E+03  0.47000000000E+01 0. -1.
         -5    1    1    2    0  502  0.54102504817E+02 -0.37035929404E+02  0.10937374812E+04  0.10957109605E+04  0.47000000000E+01 0. -1.
        -11    1    1    2    0    0  0.30095955138E+02  0.64539596402E+02  0.19082652326E+03  0.20368084839E+03  0.00000000000E+00 0. -1.
         11    1    1    2    0    0 -0.21394174449E+02  0.19771312307E+01  0.41731793789E+01  0.21886872193E+02  0.00000000000E+00 0.  1.
<mgrwt>
<rscale>  0 0.13413424E+03</rscale>
<asrwt>0</asrwt>
<pdfrwt beam="1">  1        4 0.29641502E+00 0.14186297E+03</pdfrwt>
<pdfrwt beam="2">  1       -4 0.28023521E-02 0.14186297E+03</pdfrwt>
<totfact> 0.40375614E+01</totfact>
</mgrwt>
</event>
<event>
 6    1  0.1190675E-005  0.1274528E+03  0.7546771E-02  0.1246251E+00
          1   -1    0    0  501    0  0.00000000000E+00  0.00000000000E+00  0.17505533881E+03  0.17505533881E+03  0.00000000000E+00 0. -1.
         -1   -1    0    0    0  501 -0.00000000000E+00 -0.00000000000E+00 -0.70302411422E+02  0.70302411422E+02  0.00000000000E+00 0.  1.
          5    1    1    2  502    0  0.35285533447E+02 -0.62377027446E+02  0.87425300020E+01  0.72349735691E+02  0.47000000000E+01 0. -1.
         -5    1    1    2    0  502 -0.17304440081E+02  0.45223682863E+02  0.43965177229E+02  0.65571731310E+02  0.47000000000E+01 0. -1.
        -11    1    1    2    0    0  0.17849414610E+02  0.19714375517E+02 -0.15609121547E+02  0.30836713175E+02  0.00000000000E+00 0.  1.
         11    1    1    2    0    0 -0.35830507977E+02 -0.25610309343E+01  0.67654341708E+02  0.76599570060E+02  0.00000000000E+00 0. -1.
<mgrwt>
<rscale>  0 0.11810843E+03</rscale>
<asrwt>0</asrwt>
<pdfrwt beam="1">  1        1 0.26931590E-01 0.12745285E+03</pdfrwt>
<pdfrwt beam="2">  1       -1 0.10815756E-01 0.12745285E+03</pdfrwt>
<totfact> 0.88110750E+03</totfact>
</mgrwt>
</event>
<event>
 6    1  0.1190675E-005  0.2601013E+03  0.7546771E-02  0.1107082E+00
         -2   -1    0    0    0  501 -0.00000000000E+00  0.00000000000E+00  0.14534391625E+02  0.14534391625E+02  0.00000000000E+00 0.  1.
          2   -1    0    0  501    0  0.00000000000E+00 -0.00000000000E+00 -0.11636652678E+04  0.11636652678E+04  0.00000000000E+00 0. -1.
          5    1    1    2  502    0  0.17351157217E+02  0.21815708628E+02 -0.38281225155E+03  0.38385452679E+03  0.47000000000E+01 0.  1.
         -5    1    1    2    0  502 -0.86682292664E+02 -0.31034901352E+02 -0.29941291390E+03  0.31328448409E+03  0.47000000000E+01 0.  1.
        -11    1    1    2    0    0  0.52594523234E+02 -0.37850367074E+02 -0.29562602982E+03  0.30264431875E+03  0.00000000000E+00 0.  1.
         11    1    1    2    0    0  0.16736612213E+02  0.47069559799E+02 -0.17127968093E+03  0.17841632982E+03  0.00000000000E+00 0. -1.
<mgrwt>
<rscale>  0 0.26010126E+03</rscale>
<asrwt>0</asrwt>
<pdfrwt beam="2">  1        2 0.17902532E+00 0.26010126E+03</pdfrwt>
<pdfrwt beam="1">  1       -2 0.22360616E-02 0.26010126E+03</pdfrwt>
<totfact> 0.13694522E+04</totfact>
</mgrwt>
</event>
<event>
 6    1  0.1190675E-005  0.3527059E+03  0.7546771E-02  0.1061510E+00
          2   -1    0    0  501    0  0.00000000000E+00  0.00000000000E+00  0.10073098092E+04  0.10073098092E+04  0.00000000000E+00 0.  1.
         -2   -1    0    0    0  501 -0.00000000000E+00 -0.00000000000E+00 -0.30874676145E+02  0.30874676145E+02  0.00000000000E+00 0. -1.
          5    1    1    2  502    0  0.69278103147E+02 -0.96901688802E+02  0.28237459310E+03  0.30650757527E+03  0.47000000000E+01 0.  1.
         -5    1    1    2    0  502 -0.12216694668E+02 -0.21847183271E+02  0.36416885278E+03  0.36505833833E+03  0.47000000000E+01 0.  1.
        -11    1    1    2    0    0 -0.32507948477E+02  0.36650823587E+02  0.22930464798E+03  0.23447957516E+03  0.00000000000E+00 0.  1.
         11    1    1    2    0    0 -0.24553460002E+02  0.82098048487E+02  0.10058703917E+03  0.13213899656E+03  0.00000000000E+00 0. -1.
<mgrwt>
<rscale>  0 0.35270591E+03</rscale>
<asrwt>0</asrwt>
<pdfrwt beam="1">  1        2 0.15497072E+00 0.35270591E+03</pdfrwt>
<pdfrwt beam="2">  1       -2 0.47499509E-02 0.35270591E+03</pdfrwt>
<totfact> 0.55249997E+03</totfact>
</mgrwt>
</event>
<event>
 6    1  0.1190675E-005  0.2272366E+03  0.7546771E-02  0.1132885E+00
          1   -1    0    0  501    0  0.00000000000E+00  0.00000000000E+00  0.11038432316E+03  0.11038432316E+03  0.00000000000E+00 0. -1.
         -1   -1    0    0    0  501 -0.00000000000E+00 -0.00000000000E+00 -0.47608837302E+03  0.47608837302E+03  0.00000000000E+00 0.  1.
          5    1    1    2  502    0 -0.22170075698E+02 -0.97399000033E+02 -0.11164478296E+03  0.14988237063E+03  0.47000000000E+01 0.  1.
         -5    1    1    2    0  502 -0.54341352236E+02 -0.76264471349E+02  0.18732983338E+02  0.95615201813E+02  0.47000000000E+01 0.  1.
        -11    1    1    2    0    0  0.32100241176E+02  0.17532803659E+02 -0.86313614973E+02  0.93743612142E+02  0.00000000000E+00 0.  1.
         11    1    1    2    0    0  0.44411186758E+02  0.15613066772E+03 -0.18647863526E+03  0.24723151159E+03  0.00000000000E+00 0. -1.
<mgrwt>
<rscale>  0 0.22134440E+03</rscale>
<asrwt>0</asrwt>
<pdfrwt beam="1">  1        1 0.16982204E-01 0.22723656E+03</pdfrwt>
<pdfrwt beam="2">  1       -1 0.73244363E-01 0.22723656E+03</pdfrwt>
<totfact> 0.61943496E+02</totfact>
</mgrwt>
</event>
<event>
 6    1  0.1190675E-005  0.1271670E+03  0.7546771E-02  0.1246739E+00
         -2   -1    0    0    0  501 -0.00000000000E+00  0.00000000000E+00  0.40946859334E+03  0.40946859334E+03  0.00000000000E+00 0.  1.
          2   -1    0    0  501    0  0.00000000000E+00 -0.00000000000E+00 -0.29799814076E+02  0.29799814076E+02  0.00000000000E+00 0. -1.
          5    1    1    2  502    0  0.62466290306E+02  0.37623236536E+02  0.11087218310E+03  0.13278658192E+03  0.47000000000E+01 0.  1.
         -5    1    1    2    0  502 -0.39215084426E+02 -0.34919287644E+02  0.11271434411E+03  0.12443388953E+03  0.47000000000E+01 0.  1.
        -11    1    1    2    0    0 -0.17391067906E+02  0.32820596896E+02  0.13566345651E+03  0.14065636941E+03  0.00000000000E+00 0.  1.
         11    1    1    2    0    0 -0.58601379746E+01 -0.35524545789E+02  0.20418795549E+02  0.41391566560E+02  0.00000000000E+00 0. -1.
<mgrwt>
<rscale>  0 0.11781923E+03</rscale>
<asrwt>0</asrwt>
<pdfrwt beam="2">  1        2 0.45845871E-02 0.12716696E+03</pdfrwt>
<pdfrwt beam="1">  1       -2 0.62995164E-01 0.12716696E+03</pdfrwt>
<totfact> 0.39884596E+03</totfact>
</mgrwt>
</event>
<event>
 6    1  0.1190675E-005  0.1897593E+03  0.7546771E-02  0.1163510E+00
         -2   -1    0    0    0  501 -0.00000000000E+00  0.00000000000E+00  0.59992032287E+02  0.59992032287E+02  0.00000000000E+00 0. -1.
          2   -1    0    0  501    0  0.00000000000E+00 -0.00000000000E+00 -0.89306740960E+03  0.89306740960E+03  0.00000000000E+00 0.  1.
          5    1    1    2  502    0 -0.30833206391E+02 -0.76040976023E+02 -0.52798650183E+03  0.53434516257E+03  0.47000000000E+01 0.  1.
         -5    1    1    2    0  502 -0.86729621278E+02 -0.49675611462E+01 -0.20273383479E+03  0.22061233338E+03  0.47000000000E+01 0.  1.
        -11    1    1    2    0    0  0.16396830704E+02  0.11515403305E+02 -0.67649852060E+02  0.70554681306E+02  0.00000000000E+00 0.  1.
         11    1    1    2    0    0  0.10116599697E+03  0.69493133864E+02 -0.34705188635E+02  0.12754726463E+03  0.00000000000E+00 0. -1.
<mgrwt>
<rscale>  0 0.18450824E+03</rscale>
<asrwt>0</asrwt>
<pdfrwt beam="2">  1        2 0.13739498E+00 0.18975935E+03</pdfrwt>
<pdfrwt beam="1">  1       -2 0.92295441E-02 0.18975935E+03</pdfrwt>
<totfact> 0.23011358E+03</totfact>
</mgrwt>
</event>
<event>
 6    1  0.1190675E-005  0.1321648E+03  0.7546771E-02  0.1235480E+00
          1   -1    0    0  501    0  0.00000000000E+00  0.00000000000E+00  0.57613377997E+02  0.57613377997E+02  0.00000000000E+00 0.  1.
         -1   -1    0    0    0  501 -0.00000000000E+00 -0.00000000000E+00 -0.26173935778E+03  0.26173935778E+03  0.00000000000E+00 0. -1.
          5    1    1    2  502    0 -0.12228574628E+02 -0.40707488621E+02  0.93303152303E+01  0.43769652153E+02  0.47000000000E+01 0.  1.
         -5    1    1    2    0  502 -0.23040486921E+02  0.65245467788E+02 -0.80796205713E+02  0.10647981951E+03  0.47000000000E+01 0.  1.
        -11    1    1    2    0    0  0.36841190156E+01 -0.53784792616E+02 -0.40641154903E+02  0.67513555094E+02  0.00000000000E+00 0.  1.
         11    1    1    2    0    0  0.31584942534E+02  0.29246813449E+02 -0.92018934399E+02  0.10158970902E+03  0.00000000000E+00 0. -1.
<mgrwt>
<rscale>  0 0.12473753E+03</rscale>
<asrwt>0</asrwt>
<pdfrwt beam="1">  1        1 0.88635965E-02 0.13216478E+03</pdfrwt>
<pdfrwt beam="2">  1       -1 0.40267594E-01 0.13216478E+03</pdfrwt>
<totfact> 0.44029714E+03</totfact>
</mgrwt>
</event>
<event>
 6    1  0.1190675E-005  0.1486654E+03  0.7546771E-02  0.1224828E+00
         -1   -1    0    0    0  501 -0.00000000000E+00  0.00000000000E+00  0.90703536842E+02  0.90703536842E+02  0.00000000000E+00 0.  1.
          1   -1    0    0  501    0  0.00000000000E+00 -0.00000000000E+00 -0.97825563440E+03  0.97825563440E+03  0.00000000000E+00 0. -1.
          5    1    1    2  502    0 -0.25619422382E+02 -0.74634685229E+02 -0.56532364700E+03  0.57082362153E+03  0.47000000000E+01 0. -1.
         -5    1    1    2    0  502  0.33031444696E+02  0.59840516034E+02 -0.38232182429E+03  0.38841219217E+03  0.47000000000E+01 0.  1.
        -11    1    1    2    0    0  0.31200995712E+02 -0.18938736043E+02  0.41295593072E+02  0.55113554263E+02  0.00000000000E+00 0.  1.
         11    1    1    2    0    0 -0.38613018025E+02  0.33732905239E+02  0.18797780655E+02  0.54609803281E+02  0.00000000000E+00 0. -1.
<mgrwt>
<rscale>  0 0.13178714E+03</rscale>
<asrwt>0</asrwt>
<pdfrwt beam="2">  1        1 0.15050086E+00 0.14866542E+03</pdfrwt>
<pdfrwt beam="1">  1       -1 0.13954391E-01 0.14866542E+03</pdfrwt>
<totfact> 0.60781768E+02</totfact>
</mgrwt>
</event>
<event>
 6    1  0.1190675E-005  0.1317632E+03  0.7546771E-02  0.1238163E+00
         -1   -1    0    0    0  501 -0.00000000000E+00  0.00000000000E+00  0.35544994684E+02  0.35544994684E+02  0.00000000000E+00 0.  1.
          1   -1    0    0  501    0  0.00000000000E+00 -0.00000000000E+00 -0.47547706375E+03  0.47547706375E+03  0.00000000000E+00 0. -1.
          5    1    1    2  502    0 -0.29392481886E+02 -0.54406569713E+02 -0.35468285911E+03  0.36006390178E+03  0.47000000000E+01 0.  1.
         -5    1    1    2    0  502  0.56918867524E+01  0.20152369982E+02 -0.37062812774E+01  0.21779396493E+02  0.47000000000E+01 0.  1.
        -11    1    1    2    0    0  0.45809074870E+02  0.38169975581E+02 -0.87559217694E+02  0.10593410678E+03  0.00000000000E+00 0. -1.
         11    1    1    2    0    0 -0.22108479736E+02 -0.39157758507E+01  0.60162890222E+01  0.23244653371E+02  0.00000000000E+00 0.  1.
<mgrwt>
<rscale>  0 0.12304128E+03</rscale>
<asrwt>0</asrwt>
<pdfrwt beam="2">  1        1 0.73150310E-01 0.13176315E+03</pdfrwt>
<pdfrwt beam="1">  1       -1 0.54684613E-02 0.13176315E+03</pdfrwt>
<totfact> 0.70959361E+03</totfact>
</mgrwt>
</event>
<event>
 6    1  0.1190675E-005  0.2219631E+03  0.7546771E-02  0.1176062E+00
         -2   -1    0    0    0  501 -0.00000000000E+00  0.00000000000E+00  0.60606444651E+02  0.60606444651E+02  0.00000000000E+00 0.  1.
          2   -1    0    0  501    0  0.00000000000E+00 -0.00000000000E+00 -0.43283210133E+03  0.43283210133E+03  0.00000000000E+00 0. -1.
          5    1    1    2  502    0  0.56465130380E+02  0.83827199037E+02 -0.21835561184E+03  0.24065862434E+03  0.47000000000E+01 0. -1.
         -5    1    1    2    0  502 -0.89764102592E+02 -0.67703578516E+02 -0.12497365515E+03  0.16817215328E+03  0.47000000000E+01 0.  1.
        -11    1    1    2    0    0  0.49821387137E+02 -0.29775310907E+02 -0.22383450958E+02  0.62207384068E+02  0.00000000000E+00 0. -1.
         11    1    1    2    0    0 -0.16522414925E+02  0.13651690387E+02 -0.65129387287E+01  0.22400384288E+02  0.00000000000E+00 0.  1.
<mgrwt>
<rscale>  0 0.17172363E+03</rscale>
<asrwt>0</asrwt>
<pdfrwt beam="2">  1        2 0.66589554E-01 0.22196310E+03</pdfrwt>
<pdfrwt beam="1">  1       -2 0.93240684E-02 0.22196310E+03</pdfrwt>
<totfact> 0.53505487E+03</totfact>
</mgrwt>
</event>
<event>
 6    1  0.1190675E-005  0.1301500E+03  0.7546771E-02  0.1238930E+00
         -2   -1    0    0    0  501 -0.00000000000E+00  0.00000000000E+00  0.37038581722E+03  0.37038581722E+03  0.00000000000E+00 0.  1.
          2   -1    0    0  501    0  0.00000000000E+00 -0.00000000000E+00 -0.40207847696E+02  0.40207847696E+02  0.00000000000E+00 0. -1.
          5    1    1    2  502    0 -0.82450997988E+02 -0.26099426796E+02  0.88960698694E+02  0.12415894273E+03  0.47000000000E+01 0.  1.
         -5    1    1    2    0  502  0.42293289467E+02  0.54488132874E+01  0.31988192598E+02  0.53513982900E+02  0.47000000000E+01 0.  1.
        -11    1    1    2    0    0 -0.43476479244E+01 -0.29665811965E+02  0.10264260567E+03  0.10693206694E+03  0.00000000000E+00 0. -1.
         11    1    1    2    0    0  0.44505356445E+02  0.50316425474E+02  0.10658647257E+03  0.12598867234E+03  0.00000000000E+00 0.  1.
<mgrwt>
<rscale>  0 0.12256144E+03</rscale>
<asrwt>0</asrwt>
<pdfrwt beam="2">  1        2 0.61858230E-02 0.13015004E+03</pdfrwt>
<pdfrwt beam="1">  1       -2 0.56982431E-01 0.13015004E+03</pdfrwt>
<totfact> 0.33276971E+03</totfact>
</mgrwt>
</event>
<event>
 6    1  0.1190675E-005  0.2221438E+03  0.7546771E-02  0.1160305E+00
          2   -1    0    0  501    0  0.00000000000E+00  0.00000000000E+00  0.40713830296E+03  0.40713830296E+03  0.00000000000E+00 0. -1.
         -2   -1    0    0    0  501 -0.00000000000E+00 -0.00000000000E+00 -0.69861402237E+02  0.69861402237E+02  0.00000000000E+00 0.  1.
          5    1    1    2  502    0  0.30835613630E+02 -0.13760786666E+03  0.13987182873E+03  0.19867807757E+03  0.47000000000E+01 0. -1.
         -5    1    1    2    0  502  0.93293121953E+01  0.79747259130E+02  0.63055423718E+02  0.10219950032E+03  0.47000000000E+01 0.  1.
        -11    1    1    2    0    0  0.13856018301E+02  0.49061300879E+02  0.32386973941E+02  0.60397984802E+02  0.00000000000E+00 0. -1.
         11    1    1    2    0    0 -0.54020944127E+02  0.87993066525E+01  0.10196267433E+03  0.11572414251E+03  0.00000000000E+00 0.  1.
<mgrwt>
<rscale>  0 0.18797047E+03</rscale>
<asrwt>0</asrwt>
<pdfrwt beam="1">  1        2 0.62636661E-01 0.22214375E+03</pdfrwt>
<pdfrwt beam="2">  1       -2 0.10747908E-01 0.22214375E+03</pdfrwt>
<totfact> 0.45637705E+03</totfact>
</mgrwt>
</event>
<event>
 6    1  0.1190675E-005  0.1335832E+03  0.7546771E-02  0.1235903E+00
         -1   -1    0    0    0  501 -0.00000000000E+00  0.00000000000E+00  0.29374785227E+02  0.29374785227E+02  0.00000000000E+00 0. -1.
          1   -1    0    0  501    0  0.00000000000E+00 -0.00000000000E+00 -0.46709735208E+03  0.46709735208E+03  0.00000000000E+00 0.  1.
          5    1    1    2  502    0  0.17532879372E+02 -0.13867533179E+02  0.60297815175E+01  0.23625380435E+02  0.47000000000E+01 0. -1.
         -5    1    1    2    0  502  0.22317803015E+02  0.38992460403E+02 -0.25449410200E+03  0.25847211504E+03  0.47000000000E+01 0. -1.
        -11    1    1    2    0    0 -0.55565106998E+02 -0.47594747932E+02 -0.14192668005E+03  0.15967443019E+03  0.00000000000E+00 0.  1.
         11    1    1    2    0    0  0.15714424612E+02  0.22469820708E+02 -0.47331566317E+02  0.54700211641E+02  0.00000000000E+00 0. -1.
<mgrwt>
<rscale>  0 0.12446778E+03</rscale>
<asrwt>0</asrwt>
<pdfrwt beam="2">  1        1 0.71861137E-01 0.13358323E+03</pdfrwt>
<pdfrwt beam="1">  1       -1 0.45191974E-02 0.13358323E+03</pdfrwt>
<totfact> 0.96329155E+03</totfact>
</mgrwt>
</event>
<event>
 6    1  0.1720328E-005  0.1365170E+03  0.7546771E-02  0.1229991E+00
         -1   -1    0    0    0  501 -0.00000000000E+00  0.00000000000E+00  0.93129308016E+02  0.93129308016E+02  0.00000000000E+00 0.  1.
          1   -1    0    0  501    0  0.00000000000E+00 -0.00000000000E+00 -0.16868302722E+03  0.16868302722E+03  0.00000000000E+00 0. -1.
          5    1    1    2  502    0 -0.43464122182E+01 -0.41220186186E+02 -0.71984916329E+02  0.83198036199E+02  0.47000000000E+01 0. -1.
         -5    1    1    2    0  502  0.59223071379E+02  0.40774489534E+02 -0.20120580168E+01  0.72083767644E+02  0.47000000000E+01 0. -1.
        -11    1    1    2    0    0 -0.64210845581E+02 -0.11071449045E+02  0.29948728258E+02  0.71711477453E+02  0.00000000000E+00 0.  1.
         11    1    1    2    0    0  0.93341864199E+01  0.11517145697E+02 -0.31505473119E+02  0.34819053944E+02  0.00000000000E+00 0. -1.
<mgrwt>
<rscale>  0 0.12830599E+03</rscale>
<asrwt>0</asrwt>
<pdfrwt beam="2">  1        1 0.25951235E-01 0.13651698E+03</pdfrwt>
<pdfrwt beam="1">  1       -1 0.14327586E-01 0.13651698E+03</pdfrwt>
<totfact> 0.60055546E+03</totfact>
</mgrwt>
</event>
<event>
 6    1  0.1190675E-005  0.2484679E+03  0.7546771E-02  0.1116633E+00
         -3   -1    0    0    0  501 -0.00000000000E+00  0.00000000000E+00  0.19049542981E+03  0.19049542981E+03  0.00000000000E+00 0.  1.
          3   -1    0    0  501    0  0.00000000000E+00 -0.00000000000E+00 -0.30598295882E+03  0.30598295882E+03  0.00000000000E+00 0. -1.
          5    1    1    2  502    0 -0.16915880330E+03 -0.10577186095E+03 -0.13132519116E+02  0.19999235076E+03  0.47000000000E+01 0.  1.
         -5    1    1    2    0  502 -0.74507324217E+01 -0.16367955350E+02 -0.54402197620E+02  0.57490107687E+02  0.47000000000E+01 0.  1.
        -11    1    1    2    0    0  0.18121162304E+02  0.59416260555E+00  0.20958424860E+02  0.27712544544E+02  0.00000000000E+00 0.  1.
         11    1    1    2    0    0  0.15848837342E+03  0.12154565369E+03 -0.68911237136E+02  0.21128338563E+03  0.00000000000E+00 0. -1.
<mgrwt>
<rscale>  0 0.24480463E+03</rscale>
<asrwt>0</asrwt>
<pdfrwt beam="2">  1        3 0.47074301E-01 0.24846786E+03</pdfrwt>
<pdfrwt beam="1">  1       -3 0.29306989E-01 0.24846786E+03</pdfrwt>
<totfact> 0.12590842E+02</totfact>
</mgrwt>
</event>
<event>
 6    1  0.1190675E-005  0.3733043E+03  0.7546771E-02  0.1053437E+00
          1   -1    0    0  501    0  0.00000000000E+00  0.00000000000E+00  0.61490795888E+02  0.61490795888E+02  0.00000000000E+00 0. -1.
         -1   -1    0    0    0  501 -0.00000000000E+00 -0.00000000000E+00 -0.56657289480E+03  0.56657289480E+03  0.00000000000E+00 0.  1.
          5    1    1    2  502    0 -0.24154142349E+02  0.19093149731E+01 -0.19695276543E+02  0.31576288483E+02  0.47000000000E+01 0. -1.
         -5    1    1    2    0  502  0.15784251550E+03  0.42800581262E+02 -0.15370046145E+03  0.22448178391E+03  0.47000000000E+01 0. -1.
        -11    1    1    2    0    0 -0.47256348149E+02 -0.10351478760E+02 -0.31471509252E+02  0.57712836072E+02  0.00000000000E+00 0. -1.
         11    1    1    2    0    0 -0.86432025004E+02 -0.34358417475E+02 -0.30021485166E+03  0.31429278222E+03  0.00000000000E+00 0.  1.
<mgrwt>
<rscale>  0 0.37330426E+03</rscale>
<asrwt>0</asrwt>
<pdfrwt beam="1">  1        1 0.94601222E-02 0.37330426E+03</pdfrwt>
<pdfrwt beam="2">  1       -1 0.87165063E-01 0.37330426E+03</pdfrwt>
<totfact> 0.94440330E+02</totfact>
</mgrwt>
</event>
<event>
 6    1  0.1190675E-005  0.2609369E+03  0.7546771E-02  0.1106582E+00
         -1   -1    0    0    0  501 -0.00000000000E+00  0.00000000000E+00  0.14169638759E+03  0.14169638759E+03  0.00000000000E+00 0.  1.
          1   -1    0    0  501    0  0.00000000000E+00 -0.00000000000E+00 -0.12013017523E+03  0.12013017523E+03  0.00000000000E+00 0. -1.
          5    1    1    2  502    0 -0.33629286134E+02  0.60242614165E+01 -0.15423890169E+02  0.37778393288E+02  0.47000000000E+01 0. -1.
         -5    1    1    2    0  502  0.98461353639E+02 -0.37985335828E+02  0.14398576908E+02  0.10661581926E+03  0.47000000000E+01 0. -1.
        -11    1    1    2    0    0 -0.32272263618E+02  0.13953319680E+02 -0.34517883617E+02  0.49271476723E+02  0.00000000000E+00 0. -1.
         11    1    1    2    0    0 -0.32559803887E+02  0.18007754732E+02  0.57109409234E+02  0.68160873547E+02  0.00000000000E+00 0.  1.
<mgrwt>
<rscale>  0 0.26093686E+03</rscale>
<asrwt>0</asrwt>
<pdfrwt beam="2">  1        1 0.18481566E-01 0.26093686E+03</pdfrwt>
<pdfrwt beam="1">  1       -1 0.21799444E-01 0.26093686E+03</pdfrwt>
<totfact> 0.49060904E+03</totfact>
</mgrwt>
</event>
<event>
 6    1  0.1190675E-005  0.1290156E+03  0.7546771E-02  0.1241067E+00
          1   -1    0    0  501    0  0.00000000000E+00  0.00000000000E+00  0.23010300914E+03  0.23010300914E+03  0.00000000000E+00 0. -1.
         -1   -1    0    0    0  501 -0.00000000000E+00 -0.00000000000E+00 -0.76943267423E+02  0.76943267423E+02  0.00000000000E+00 0.  1.
          5    1    1    2  502    0 -0.16828005201E+02 -0.75604046903E+02  0.12762786550E+03  0.14936571132E+03  0.47000000000E+01 0.  1.
         -5    1    1    2    0  502  0.65313426681E+01  0.45387499530E+02  0.33156372830E+02  0.56781322720E+02  0.47000000000E+01 0.  1.
        -11    1    1    2    0    0  0.16937429255E+02  0.59990330236E+02 -0.23367106269E+02  0.66571299274E+02  0.00000000000E+00 0.  1.
         11    1    1    2    0    0 -0.66407667221E+01 -0.29773782863E+02  0.15742609655E+02  0.34327943245E+02  0.00000000000E+00 0. -1.
<mgrwt>
<rscale>  0 0.12123913E+03</rscale>
<asrwt>0</asrwt>
<pdfrwt beam="1">  1        1 0.35400463E-01 0.12901561E+03</pdfrwt>
<pdfrwt beam="2">  1       -1 0.11837426E-01 0.12901561E+03</pdfrwt>
<totfact> 0.54688274E+03</totfact>
</mgrwt>
</event>
<event>
 6    1  0.1190675E-005  0.1478627E+03  0.7546771E-02  0.1212881E+00
          4   -1    0    0  501    0  0.00000000000E+00  0.00000000000E+00  0.63391500779E+03  0.63391500779E+03  0.00000000000E+00 0. -1.
         -4   -1    0    0    0  501 -0.00000000000E+00 -0.00000000000E+00 -0.40850595435E+02  0.40850595435E+02  0.00000000000E+00 0.  1.
          5    1    1    2  502    0  0.85745065481E+01  0.43497279788E+02  0.45654147107E+03  0.45871313510E+03  0.47000000000E+01 0.  1.
         -5    1    1    2    0  502  0.43768672276E+02  0.15677350716E+02  0.47756686000E+02  0.66815170852E+02  0.47000000000E+01 0.  1.
        -11    1    1    2    0    0 -0.68190474857E+02 -0.13181510692E+02  0.39041186353E+02  0.79673755511E+02  0.00000000000E+00 0.  1.
         11    1    1    2    0    0  0.15847296033E+02 -0.45993119812E+02  0.49725068935E+02  0.69563541760E+02  0.00000000000E+00 0. -1.
<mgrwt>
<rscale>  0 0.14033315E+03</rscale>
<asrwt>0</asrwt>
<pdfrwt beam="1">  1        4 0.97525379E-01 0.14786267E+03</pdfrwt>
<pdfrwt beam="2">  1       -4 0.62847074E-02 0.14786267E+03</pdfrwt>
<totfact> 0.25280270E+02</totfact>
</mgrwt>
</event>
<event>
 6    1  0.1190675E-005  0.1934266E+03  0.7546771E-02  0.1160369E+00
         -2   -1    0    0    0  501 -0.00000000000E+00  0.00000000000E+00  0.41005037886E+02  0.41005037886E+02  0.00000000000E+00 0.  1.
          2   -1    0    0  501    0  0.00000000000E+00 -0.00000000000E+00 -0.87048687236E+03  0.87048687236E+03  0.00000000000E+00 0. -1.
          5    1    1    2  502    0  0.56077204904E+02 -0.41211264269E+02 -0.33215532914E+03  0.33939987314E+03  0.47000000000E+01 0.  1.
         -5    1    1    2    0  502 -0.31882875836E+02 -0.10440547085E+03 -0.21969060903E+03  0.24536314681E+03  0.47000000000E+01 0.  1.
        -11    1    1    2    0    0 -0.47459508335E+02  0.34695076790E+02 -0.88971510199E+02  0.10663996864E+03  0.00000000000E+00 0. -1.
         11    1    1    2    0    0  0.23265179268E+02  0.11092165832E+03 -0.18866438610E+03  0.22008892166E+03  0.00000000000E+00 0.  1.
<mgrwt>
<rscale>  0 0.18790009E+03</rscale>
<asrwt>0</asrwt>
<pdfrwt beam="2">  1        2 0.13392104E+00 0.19342660E+03</pdfrwt>
<pdfrwt beam="1">  1       -2 0.63084681E-02 0.19342660E+03</pdfrwt>
<totfact> 0.42986480E+03</totfact>
</mgrwt>
</event>
<event>
 6    1  0.1190675E-005  0.1846110E+03  0.7546771E-02  0.1168445E+00
          1   -1    0    0  501    0  0.00000000000E+00  0.00000000000E+00  0.10768303113E+03  0.10768303113E+03  0.00000000000E+00 0. -1.
         -1   -1    0    0    0  501 -0.00000000000E+00 -0.00000000000E+00 -0.28596331296E+03  0.28596331296E+03  0.00000000000E+00 0.  1.
          5    1    1    2  502    0  0.19954915529E+02 -0.39016694888E+02 -0.58951753726E+02  0.73606388318E+02  0.47000000000E+01 0.  1.
         -5    1    1    2    0  502  0.11577178856E+03  0.44928620000E+02 -0.14641294189E+02  0.12513251143E+03  0.47000000000E+01 0.  1.
        -11    1    1    2    0    0 -0.40222995795E+02 -0.27547710437E+02 -0.80384595870E+02  0.94013025663E+02  0.00000000000E+00 0.  1.
         11    1    1    2    0    0 -0.95503708297E+02  0.21635785325E+02 -0.24302638048E+02  0.10089441868E+03  0.00000000000E+00 0. -1.
<mgrwt>
<rscale>  0 0.17933823E+03</rscale>
<asrwt>0</asrwt>
<pdfrwt beam="1">  1        1 0.16566620E-01 0.18461098E+03</pdfrwt>
<pdfrwt beam="2">  1       -1 0.43994356E-01 0.18461098E+03</pdfrwt>
<totfact> 0.16778727E+03</totfact>
</mgrwt>
</event>
<event>
 6    1  0.1190675E-005  0.1403513E+03  0.7546771E-02  0.1223852E+00
         -2   -1    0    0    0  501 -0.00000000000E+00  0.00000000000E+00  0.16181013958E+02  0.16181013958E+02  0.00000000000E+00 0.  1.
          2   -1    0    0  501    0  0.00000000000E+00 -0.00000000000E+00 -0.10753255708E+04  0.10753255708E+04  0.00000000000E+00 0. -1.
          5    1    1    2  502    0  0.40858501434E+02  0.34844147730E+02 -0.27951359790E+03  0.28466378973E+03  0.47000000000E+01 0.  1.
         -5    1    1    2    0  502 -0.30147037355E+01 -0.86236205199E+02 -0.46813475924E+03  0.47604413066E+03  0.47000000000E+01 0.  1.
        -11    1    1    2    0    0 -0.28745890316E+02  0.30131799210E+01 -0.19936036948E+02  0.35111978476E+02  0.00000000000E+00 0.  1.
         11    1    1    2    0    0 -0.90979073817E+01  0.48378877548E+02 -0.29156016277E+03  0.29568668591E+03  0.00000000000E+00 0. -1.
<mgrwt>
<rscale>  0 0.13245874E+03</rscale>
<asrwt>0</asrwt>
<pdfrwt beam="2">  1        2 0.16543472E+00 0.14035125E+03</pdfrwt>
<pdfrwt beam="1">  1       -2 0.24893866E-02 0.14035125E+03</pdfrwt>
<totfact> 0.12741999E+04</totfact>
</mgrwt>
</event>
<event>
 6    1  0.1190675E-005  0.1314464E+03  0.7546771E-02  0.1241645E+00
          2   -1    0    0  501    0  0.00000000000E+00  0.00000000000E+00  0.37084301435E+03  0.37084301435E+03  0.00000000000E+00 0.  1.
         -2   -1    0    0    0  501 -0.00000000000E+00 -0.00000000000E+00 -0.34294669879E+02  0.34294669879E+02  0.00000000000E+00 0. -1.
          5    1    1    2  502    0  0.61908201753E+02  0.10155911817E+02  0.93931888875E+02  0.11305334023E+03  0.47000000000E+01 0.  1.
         -5    1    1    2    0  502 -0.48212349936E+02 -0.48442104815E+02  0.10748708713E+03  0.12746227718E+03  0.47000000000E+01 0.  1.
        -11    1    1    2    0    0  0.12928454892E+02  0.39570879272E+02  0.19518109168E+02  0.45977777434E+02  0.00000000000E+00 0. -1.
         11    1    1    2    0    0 -0.26624306709E+02 -0.12846862746E+01  0.11561125930E+03  0.11864428938E+03  0.00000000000E+00 0.  1.
<mgrwt>
<rscale>  0 0.12088461E+03</rscale>
<asrwt>0</asrwt>
<pdfrwt beam="1">  1        2 0.57052769E-01 0.13144641E+03</pdfrwt>
<pdfrwt beam="2">  1       -2 0.52761033E-02 0.13144641E+03</pdfrwt>
<totfact> 0.14697075E+04</totfact>
</mgrwt>
</event>
<event>
 6    1  0.1190675E-005  0.1280851E+03  0.7546771E-02  0.1244780E+00
         -1   -1    0    0    0  501 -0.00000000000E+00  0.00000000000E+00  0.14188157478E+03  0.14188157478E+03  0.00000000000E+00 0.  1.
          1   -1    0    0  501    0  0.00000000000E+00 -0.00000000000E+00 -0.91012367405E+02  0.91012367405E+02  0.00000000000E+00 0. -1.
          5    1    1    2  502    0  0.25549900114E+02 -0.52152298303E+02 -0.21611291433E+02  0.62143362731E+02  0.47000000000E+01 0.  1.
         -5    1    1    2    0  502 -0.47547571049E+02  0.34915702986E+02  0.29660261376E+02  0.66194402577E+02  0.47000000000E+01 0.  1.
        -11    1    1    2    0    0 -0.23242758662E+02 -0.24090475625E+02  0.94480732197E+01  0.34782796518E+02  0.00000000000E+00 0. -1.
         11    1    1    2    0    0  0.45240429597E+02  0.41327070942E+02  0.33372164217E+02  0.69773380363E+02  0.00000000000E+00 0.  1.
<mgrwt>
<rscale>  0 0.11898569E+03</rscale>
<asrwt>0</asrwt>
<pdfrwt beam="2">  1        1 0.14001903E-01 0.12808511E+03</pdfrwt>
<pdfrwt beam="1">  1       -1 0.21827935E-01 0.12808511E+03</pdfrwt>
<totfact> 0.67273947E+03</totfact>
</mgrwt>
</event>
<event>
 6    1  0.1190675E-005  0.1290003E+03  0.7546771E-02  0.1242930E+00
          2   -1    0    0  501    0  0.00000000000E+00  0.00000000000E+00  0.17285666989E+04  0.17285666989E+04  0.00000000000E+00 0. -1.
         -2   -1    0    0    0  501 -0.00000000000E+00 -0.00000000000E+00 -0.81479470432E+01  0.81479470432E+01  0.00000000000E+00 0.  1.
          5    1    1    2  502    0 -0.20493260069E+02 -0.68517717695E+02  0.10510282850E+04  0.10534691249E+04  0.47000000000E+01 0. -1.
         -5    1    1    2    0  502  0.96040820982E+01  0.38418771203E+02  0.18365066857E+03  0.18793056814E+03  0.47000000000E+01 0. -1.
        -11    1    1    2    0    0  0.51050636443E+02  0.23480366387E+02  0.28739792152E+03  0.29283964960E+03  0.00000000000E+00 0.  1.
         11    1    1    2    0    0 -0.40161458473E+02  0.66185801058E+01  0.19834187682E+03  0.20247530331E+03  0.00000000000E+00 0. -1.
<mgrwt>
<rscale>  0 0.12010136E+03</rscale>
<asrwt>0</asrwt>
<pdfrwt beam="1">  1        2 0.26593305E+00 0.12900031E+03</pdfrwt>
<pdfrwt beam="2">  1       -2 0.12535317E-02 0.12900031E+03</pdfrwt>
<totfact> 0.15348022E+04</totfact>
</mgrwt>
</event>
<event>
 6    1  0.1190675E-005  0.1591402E+03  0.7546771E-02  0.1197917E+00
          3   -1    0    0  501    0  0.00000000000E+00  0.00000000000E+00  0.35309851713E+02  0.35309851713E+02  0.00000000000E+00 0. -1.
         -3   -1    0    0    0  501 -0.00000000000E+00 -0.00000000000E+00 -0.60660977724E+03  0.60660977724E+03  0.00000000000E+00 0.  1.
          5    1    1    2  502    0 -0.69906603364E+02  0.47714836882E+02 -0.33291882117E+03  0.34354136627E+03  0.47000000000E+01 0. -1.
         -5    1    1    2    0  502 -0.22575394794E+02 -0.13814626607E+02 -0.16311185037E+01  0.26930334308E+02  0.47000000000E+01 0. -1.
        -11    1    1    2    0    0  0.22354518440E+02 -0.26571552327E+02 -0.13378748867E+02  0.37212401280E+02  0.00000000000E+00 0. -1.
         11    1    1    2    0    0  0.70127479718E+02 -0.73286579474E+01 -0.22337123699E+03  0.23423552709E+03  0.00000000000E+00 0.  1.
<mgrwt>
<rscale>  0 0.15209926E+03</rscale>
<asrwt>0</asrwt>
<pdfrwt beam="1">  1        3 0.54322851E-02 0.15914025E+03</pdfrwt>
<pdfrwt beam="2">  1       -3 0.93324577E-01 0.15914025E+03</pdfrwt>
<totfact> 0.50162914E+02</totfact>
</mgrwt>
</event>
<event>
 6    1  0.1190675E-005  0.1548551E+03  0.7546771E-02  0.1203194E+00
         -1   -1    0    0    0  501 -0.00000000000E+00  0.00000000000E+00  0.28986401352E+02  0.28986401352E+02  0.00000000000E+00 0.  1.
          1   -1    0    0  501    0  0.00000000000E+00 -0.00000000000E+00 -0.73748503889E+03  0.73748503889E+03  0.00000000000E+00 0. -1.
          5    1    1    2  502    0  0.58474428682E+02  0.84412960884E+02 -0.36040407164E+03  0.37477725602E+03  0.47000000000E+01 0.  1.
         -5    1    1    2    0  502 -0.49183017244E+02  0.65165883850E+01 -0.11889534398E+03  0.12891713590E+03  0.47000000000E+01 0.  1.
        -11    1    1    2    0    0 -0.23979709465E+02  0.91598718041E+01 -0.30954372916E+02  0.40213218226E+02  0.00000000000E+00 0.  1.
         11    1    1    2    0    0  0.14688298027E+02 -0.10008942107E+03 -0.19824484900E+03  0.22256383009E+03  0.00000000000E+00 0. -1.
<mgrwt>
<rscale>  0 0.14780659E+03</rscale>
<asrwt>0</asrwt>
<pdfrwt beam="2">  1        1 0.11345925E+00 0.15485513E+03</pdfrwt>
<pdfrwt beam="1">  1       -1 0.44594460E-02 0.15485513E+03</pdfrwt>
<totfact> 0.53175877E+03</totfact>
</mgrwt>
</event>
<event>
 6    1  0.1190675E-005  0.1377939E+03  0.7546771E-02  0.1227804E+00
         -1   -1    0    0    0  501 -0.00000000000E+00  0.00000000000E+00  0.19027156314E+02  0.19027156314E+02  0.00000000000E+00 0.  1.
          1   -1    0    0  501    0  0.00000000000E+00 -0.00000000000E+00 -0.79735466234E+03  0.79735466234E+03  0.00000000000E+00 0. -1.
          5    1    1    2  502    0 -0.47250008907E+02 -0.60831761877E+02 -0.20325031096E+03  0.21740709625E+03  0.47000000000E+01 0. -1.
         -5    1    1    2    0  502  0.58584501231E+02  0.39672154829E+01 -0.21724978644E+03  0.22509429644E+03  0.47000000000E+01 0. -1.
        -11    1    1    2    0    0  0.33414483577E+02  0.51906955255E+02 -0.23794521171E+03  0.24582266676E+03  0.00000000000E+00 0.  1.
         11    1    1    2    0    0 -0.44748975902E+02  0.49575911400E+01 -0.11988219692E+03  0.12805775921E+03  0.00000000000E+00 0. -1.
<mgrwt>
<rscale>  0 0.12976549E+03</rscale>
<asrwt>0</asrwt>
<pdfrwt beam="2">  1        1 0.12266992E+00 0.13779387E+03</pdfrwt>
<pdfrwt beam="1">  1       -1 0.29272555E-02 0.13779387E+03</pdfrwt>
<totfact> 0.87283231E+03</totfact>
</mgrwt>
</event>
<event>
 6    1  0.1190675E-005  0.1291739E+03  0.7546771E-02  0.1242449E+00
          1   -1    0    0  501    0  0.00000000000E+00  0.00000000000E+00  0.68586744215E+02  0.68586744215E+02  0.00000000000E+00 0. -1.
         -1   -1    0    0    0  501 -0.00000000000E+00 -0.00000000000E+00 -0.18852186366E+03  0.18852186366E+03  0.00000000000E+00 0.  1.
          5    1    1    2  502    0  0.94339261579E+01  0.47151499723E+02 -0.24697173457E+02  0.54261434423E+02  0.47000000000E+01 0.  1.
         -5    1    1    2    0  502 -0.12945384176E+02 -0.79548302291E+02 -0.33117698047E+02  0.87260456638E+02  0.47000000000E+01 0.  1.
        -11    1    1    2    0    0  0.32893551544E+02  0.22640658365E+02 -0.72636955801E+02  0.82889761083E+02  0.00000000000E+00 0.  1.
         11    1    1    2    0    0 -0.29382093526E+02  0.97561442028E+01  0.10516707861E+02  0.32696955728E+02  0.00000000000E+00 0. -1.
<mgrwt>
<rscale>  0 0.12039383E+03</rscale>
<asrwt>0</asrwt>
<pdfrwt beam="1">  1        1 0.10551807E-01 0.12917386E+03</pdfrwt>
<pdfrwt beam="2">  1       -1 0.29003363E-01 0.12917386E+03</pdfrwt>
<totfact> 0.61125402E+03</totfact>
</mgrwt>
</event>
<event>
 6    1  0.1190675E-005  0.1273517E+03  0.7546771E-02  0.1250976E+00
          3   -1    0    0  501    0  0.00000000000E+00  0.00000000000E+00  0.15453244906E+03  0.15453244906E+03  0.00000000000E+00 0. -1.
         -3   -1    0    0    0  501 -0.00000000000E+00 -0.00000000000E+00 -0.81522401383E+02  0.81522401383E+02  0.00000000000E+00 0.  1.
          5    1    1    2  502    0  0.31562137192E+02  0.57720665069E+02  0.21377193948E+02  0.69331941421E+02  0.47000000000E+01 0. -1.
         -5    1    1    2    0  502 -0.42745091653E+02 -0.36082971731E+02  0.58079696731E+02  0.80774159740E+02  0.47000000000E+01 0. -1.
        -11    1    1    2    0    0  0.19585071382E+02  0.28193913979E+02 -0.85231926240E+01  0.35371126912E+02  0.00000000000E+00 0. -1.
         11    1    1    2    0    0 -0.84021169216E+01 -0.49831607316E+02  0.20763496189E+01  0.50577622366E+02  0.00000000000E+00 0.  1.
<mgrwt>
<rscale>  0 0.11534720E+03</rscale>
<asrwt>0</asrwt>
<pdfrwt beam="1">  1        3 0.23774223E-01 0.12735166E+03</pdfrwt>
<pdfrwt beam="2">  1       -3 0.12541908E-01 0.12735166E+03</pdfrwt>
<totfact> 0.18822100E+03</totfact>
</mgrwt>
</event>
<event>
 6    1  0.1190675E-005  0.1261124E+03  0.7546771E-02  0.1249055E+00
          2   -1    0    0  501    0  0.00000000000E+00  0.00000000000E+00  0.20088592477E+04  0.20088592477E+04  0.00000000000E+00 0.  1.
         -2   -1    0    0    0  501 -0.00000000000E+00 -0.00000000000E+00 -0.71872320151E+01  0.71872320151E+01  0.00000000000E+00 0. -1.
          5    1    1    2  502    0 -0.41008754203E+02 -0.38487061149E+02  0.79515213085E+03  0.79715241516E+03  0.47000000000E+01 0. -1.
         -5    1    1    2    0  502  0.40757307295E+02  0.55153526485E+02  0.75695535767E+03  0.76007011064E+03  0.47000000000E+01 0. -1.
        -11    1    1    2    0    0 -0.44604392004E+02 -0.10488535174E+02  0.19964052065E+03  0.20483139076E+03  0.00000000000E+00 0.  1.
         11    1    1    2    0    0  0.44855838912E+02 -0.61779301623E+01  0.24992400648E+03  0.25399256312E+03  0.00000000000E+00 0. -1.
<mgrwt>
<rscale>  0 0.11645961E+03</rscale>
<asrwt>0</asrwt>
<pdfrwt beam="1">  1        2 0.30905482E+00 0.12611241E+03</pdfrwt>
<pdfrwt beam="2">  1       -2 0.11057296E-02 0.12611241E+03</pdfrwt>
<totfact> 0.13208190E+04</totfact>
</mgrwt>
</event>
<event>
 6    1  0.1190675E-005  0.1803937E+03  0.7546771E-02  0.1188470E+00
         -2   -1    0    0    0  501 -0.00000000000E+00  0.00000000000E+00  0.41973731993E+02  0.41973731993E+02  0.00000000000E+00 0.  1.
          2   -1    0    0  501    0  0.00000000000E+00 -0.00000000000E+00 -0.57437832300E+03  0.57437832300E+03  0.00000000000E+00 0. -1.
          5    1    1    2  502    0  0.88074742653E+01  0.11856448127E+02 -0.38027446938E+03  0.38059021141E+03  0.47000000000E+01 0. -1.
         -5    1    1    2    0  502 -0.60792800185E+02  0.26077414411E+02 -0.41729211515E+02  0.78353131338E+02  0.47000000000E+01 0.  1.
        -11    1    1    2    0    0 -0.24879733263E+02 -0.39013350527E+01 -0.42272390814E+02  0.49205452620E+02  0.00000000000E+00 0. -1.
         11    1    1    2    0    0  0.76865059183E+02 -0.34032527485E+02 -0.68128519299E+02  0.10820325962E+03  0.00000000000E+00 0.  1.
<mgrwt>
<rscale>  0 0.16020111E+03</rscale>
<asrwt>0</asrwt>
<pdfrwt beam="2">  1        2 0.88365895E-01 0.18039369E+03</pdfrwt>
<pdfrwt beam="1">  1       -2 0.64574973E-02 0.18039369E+03</pdfrwt>
<totfact> 0.68445822E+03</totfact>
</mgrwt>
</event>
<event>
 6    1  0.1190675E-005  0.1253896E+03  0.7546771E-02  0.1247904E+00
         -3   -1    0    0    0  501 -0.00000000000E+00  0.00000000000E+00  0.21358444338E+02  0.21358444338E+02  0.00000000000E+00 0.  1.
          3   -1    0    0  501    0  0.00000000000E+00 -0.00000000000E+00 -0.57678458043E+03  0.57678458043E+03  0.00000000000E+00 0. -1.
          5    1    1    2  502    0  0.90782987042E+01 -0.55588579739E+02 -0.28043467862E+03  0.28607377489E+03  0.47000000000E+01 0. -1.
         -5    1    1    2    0  502 -0.13822814202E+02  0.46581488934E+02 -0.64121146900E+02  0.80588564843E+02  0.47000000000E+01 0. -1.
        -11    1    1    2    0    0 -0.27706960318E+02 -0.21072919146E+02 -0.32222054975E+02  0.47434211263E+02  0.00000000000E+00 0.  1.
         11    1    1    2    0    0  0.32451475816E+02  0.30080009951E+02 -0.17864825559E+03  0.18404647377E+03  0.00000000000E+00 0. -1.
<mgrwt>
<rscale>  0 0.11713260E+03</rscale>
<asrwt>0</asrwt>
<pdfrwt beam="2">  1        3 0.88736078E-01 0.12538961E+03</pdfrwt>
<pdfrwt beam="1">  1       -3 0.32859149E-02 0.12538961E+03</pdfrwt>
<totfact> 0.11942375E+03</totfact>
</mgrwt>
</event>
<event>
 6    1  0.1190675E-005  0.1262015E+03  0.7546771E-02  0.1248697E+00
         -2   -1    0    0    0  501 -0.00000000000E+00  0.00000000000E+00  0.22092291507E+03  0.22092291507E+03  0.00000000000E+00 0. -1.
          2   -1    0    0  501    0  0.00000000000E+00 -0.00000000000E+00 -0.67089186545E+02  0.67089186545E+02  0.00000000000E+00 0.  1.
          5    1    1    2  502    0  0.87388852307E+01  0.67253166351E+01 -0.51543402469E+02  0.52918903399E+02  0.47000000000E+01 0.  1.
         -5    1    1    2    0  502  0.47183220959E+01  0.43000619903E+01  0.75032234778E+02  0.75449846603E+02  0.47000000000E+01 0.  1.
        -11    1    1    2    0    0 -0.33035220762E+02 -0.32734197514E+02  0.11989470933E+03  0.12859858017E+03  0.00000000000E+00 0. -1.
         11    1    1    2    0    0  0.19578013436E+02  0.21708818888E+02  0.10450186882E+02  0.31044771435E+02  0.00000000000E+00 0.  1.
<mgrwt>
<rscale>  0 0.11666792E+03</rscale>
<asrwt>0</asrwt>
<pdfrwt beam="2">  1        2 0.10321413E-01 0.12620147E+03</pdfrwt>
<pdfrwt beam="1">  1       -2 0.33988140E-01 0.12620147E+03</pdfrwt>
<totfact> 0.47345094E+03</totfact>
</mgrwt>
</event>
<event>
 6    1  0.1190675E-005  0.1526967E+03  0.7546771E-02  0.1207327E+00
          2   -1    0    0  501    0  0.00000000000E+00  0.00000000000E+00  0.36322141176E+03  0.36322141176E+03  0.00000000000E+00 0. -1.
         -2   -1    0    0    0  501 -0.00000000000E+00 -0.00000000000E+00 -0.54479215681E+02  0.54479215681E+02  0.00000000000E+00 0.  1.
          5    1    1    2  502    0  0.94242542172E+02 -0.18252833008E+02  0.19980941755E+03  0.22172215950E+03  0.47000000000E+01 0. -1.
         -5    1    1    2    0  502 -0.21734440311E+02 -0.31082435415E+02  0.13341903488E+02  0.40479625439E+02  0.47000000000E+01 0. -1.
        -11    1    1    2    0    0  0.11900259252E+02 -0.12500793314E+02  0.79189083052E+01  0.18989342076E+02  0.00000000000E+00 0.  1.
         11    1    1    2    0    0 -0.84408361113E+02  0.61836061737E+02  0.87671966728E+02  0.13650950043E+03  0.00000000000E+00 0. -1.
<mgrwt>
<rscale>  0 0.14455612E+03</rscale>
<asrwt>0</asrwt>
<pdfrwt beam="1">  1        2 0.55880216E-01 0.15269673E+03</pdfrwt>
<pdfrwt beam="2">  1       -2 0.83814180E-02 0.15269673E+03</pdfrwt>
<totfact> 0.74897191E+03</totfact>
</mgrwt>
</event>
<event>
 6    1  0.1190675E-005  0.1474908E+03  0.7546771E-02  0.1213210E+00
          2   -1    0    0  501    0  0.00000000000E+00  0.00000000000E+00  0.29147775065E+03  0.29147775065E+03  0.00000000000E+00 0. -1.
         -2   -1    0    0    0  501 -0.00000000000E+00 -0.00000000000E+00 -0.61753992300E+02  0.61753992300E+02  0.00000000000E+00 0.  1.
          5    1    1    2  502    0 -0.97946911561E+02 -0.42718352822E+02  0.86875369654E+02  0.13779649852E+03  0.47000000000E+01 0. -1.
         -5    1    1    2    0  502  0.20080980931E+02  0.34595754452E+02  0.26145929233E+02  0.48018867507E+02  0.47000000000E+01 0. -1.
        -11    1    1    2    0    0  0.56890497923E+02 -0.29490857517E+02  0.10462342769E+03  0.12268781949E+03  0.00000000000E+00 0. -1.
         11    1    1    2    0    0  0.20975432707E+02  0.37613455887E+02  0.12079031776E+02  0.44728557428E+02  0.00000000000E+00 0.  1.
<mgrwt>
<rscale>  0 0.14008838E+03</rscale>
<asrwt>0</asrwt>
<pdfrwt beam="1">  1        2 0.44842730E-01 0.14749080E+03</pdfrwt>
<pdfrwt beam="2">  1       -2 0.95006144E-02 0.14749080E+03</pdfrwt>
<totfact> 0.77666791E+03</totfact>
</mgrwt>
</event>
<event>
 6    1  0.1190675E-005  0.3024102E+03  0.7546771E-02  0.1084042E+00
          1   -1    0    0  501    0  0.00000000000E+00  0.00000000000E+00  0.62069849541E+03  0.62069849541E+03  0.00000000000E+00 0. -1.
         -1   -1    0    0    0  501 -0.00000000000E+00 -0.00000000000E+00 -0.36834269728E+02  0.36834269728E+02  0.00000000000E+00 0.  1.
          5    1    1    2  502    0 -0.34838309107E+02  0.45846117722E+01  0.86856831483E+02  0.93813248648E+02  0.47000000000E+01 0.  1.
         -5    1    1    2    0  502  0.10724735521E+03  0.56838567558E+02  0.32072786803E+03  0.34295928810E+03  0.47000000000E+01 0.  1.
        -11    1    1    2    0    0 -0.49308396154E+01 -0.58656998639E+02  0.48658248327E+02  0.76371341476E+02  0.00000000000E+00 0.  1.
         11    1    1    2    0    0 -0.67478206491E+02 -0.27661806909E+01  0.12762127785E+03  0.14438888692E+03  0.00000000000E+00 0. -1.
<mgrwt>
<rscale>  0 0.30241016E+03</rscale>
<asrwt>0</asrwt>
<pdfrwt beam="1">  1        1 0.95492068E-01 0.30241016E+03</pdfrwt>
<pdfrwt beam="2">  1       -1 0.56668112E-02 0.30241016E+03</pdfrwt>
<totfact> 0.48846328E+03</totfact>
</mgrwt>
</event>
<event>
 6    1  0.1190675E-005  0.1334928E+03  0.7546771E-02  0.1235121E+00
          1   -1    0    0  501    0  0.00000000000E+00  0.00000000000E+00  0.27237809905E+03  0.27237809905E+03  0.00000000000E+00 0. -1.
         -1   -1    0    0    0  501 -0.00000000000E+00 -0.00000000000E+00 -0.54413423165E+02  0.54413423165E+02  0.00000000000E+00 0.  1.
          5    1    1    2  502    0 -0.31026890177E+01 -0.38476510459E+02  0.74708592835E+01  0.39597629660E+02  0.47000000000E+01 0. -1.
         -5    1    1    2    0  502  0.47583725134E+02  0.53203166737E+02  0.15478644489E+03  0.17051604431E+03  0.47000000000E+01 0. -1.
        -11    1    1    2    0    0 -0.62706691843E+02  0.14909516514E+02  0.21656389965E+02  0.67995750683E+02  0.00000000000E+00 0.  1.
         11    1    1    2    0    0  0.18225655727E+02 -0.29636172792E+02  0.34050981752E+02  0.48682097559E+02  0.00000000000E+00 0. -1.
<mgrwt>
<rscale>  0 0.12496713E+03</rscale>
<asrwt>0</asrwt>
<pdfrwt beam="1">  1        1 0.41904322E-01 0.13349278E+03</pdfrwt>
<pdfrwt beam="2">  1       -1 0.83712960E-02 0.13349278E+03</pdfrwt>
<totfact> 0.75479922E+03</totfact>
</mgrwt>
</event>
<event>
 6    1  0.1190675E-005  0.2411759E+03  0.7546771E-02  0.1119012E+00
         -4   -1    0    0    0  501 -0.00000000000E+00  0.00000000000E+00  0.13601294769E+03  0.13601294769E+03  0.00000000000E+00 0.  1.
          4   -1    0    0  501    0  0.00000000000E+00 -0.00000000000E+00 -0.10691226716E+03  0.10691226716E+03  0.00000000000E+00 0. -1.
          5    1    1    2  502    0  0.41371876925E+01 -0.68712951126E+01 -0.57101677407E+02  0.57853457815E+02  0.47000000000E+01 0.  1.
         -5    1    1    2    0  502 -0.13031801099E+02  0.54631022164E+02  0.51541014852E+02  0.76373703816E+02  0.47000000000E+01 0.  1.
        -11    1    1    2    0    0 -0.91456666098E+01 -0.37035086532E+02  0.62870104067E+02  0.73538363032E+02  0.00000000000E+00 0.  1.
         11    1    1    2    0    0  0.18040280016E+02 -0.10724640520E+02 -0.28208760982E+02  0.35159690179E+02  0.00000000000E+00 0. -1.
<mgrwt>
<rscale>  0 0.24117589E+03</rscale>
<asrwt>0</asrwt>
<pdfrwt beam="2">  1        4 0.16448041E-01 0.24117589E+03</pdfrwt>
<pdfrwt beam="1">  1       -4 0.20925069E-01 0.24117589E+03</pdfrwt>
<totfact> 0.12253667E+03</totfact>
</mgrwt>
</event>
<event>
 6    1  0.1190675E-005  0.3847932E+03  0.7546771E-02  0.1049176E+00
         -2   -1    0    0    0  501 -0.00000000000E+00  0.00000000000E+00  0.49679860116E+03  0.49679860116E+03  0.00000000000E+00 0.  1.
          2   -1    0    0  501    0  0.00000000000E+00 -0.00000000000E+00 -0.74509971998E+02  0.74509971998E+02  0.00000000000E+00 0. -1.
          5    1    1    2  502    0 -0.13070383084E+03  0.49758912773E+02  0.13716015948E+03  0.19594499265E+03  0.47000000000E+01 0.  1.
         -5    1    1    2    0  502  0.16292322889E+02  0.54734423713E+02  0.34208429188E+02  0.66735324617E+02  0.47000000000E+01 0.  1.
        -11    1    1    2    0    0  0.38327797478E+02 -0.83685948195E+02  0.18170338569E+03  0.20368720715E+03  0.00000000000E+00 0.  1.
         11    1    1    2    0    0  0.76083710478E+02 -0.20807388290E+02  0.69216654800E+02  0.10494104873E+03  0.00000000000E+00 0. -1.
<mgrwt>
<rscale>  0 0.38479319E+03</rscale>
<asrwt>0</asrwt>
<pdfrwt beam="2">  1        2 0.11463073E-01 0.38479319E+03</pdfrwt>
<pdfrwt beam="1">  1       -2 0.76430552E-01 0.38479319E+03</pdfrwt>
<totfact> 0.85719839E+02</totfact>
</mgrwt>
</event>
<event>
 6    1  0.1190675E-005  0.1664784E+03  0.7546771E-02  0.1203695E+00
          2   -1    0    0  501    0  0.00000000000E+00  0.00000000000E+00  0.16294532276E+04  0.16294532276E+04  0.00000000000E+00 0. -1.
         -2   -1    0    0    0  501 -0.00000000000E+00 -0.00000000000E+00 -0.13015487209E+02  0.13015487209E+02  0.00000000000E+00 0.  1.
          5    1    1    2  502    0 -0.40059858598E+02 -0.39229590005E+02  0.11384051683E+04  0.11397947930E+04  0.47000000000E+01 0. -1.
         -5    1    1    2    0  502  0.88625835118E+01  0.51593691362E+02  0.14251002092E+03  0.15189354969E+03  0.47000000000E+01 0.  1.
        -11    1    1    2    0    0  0.46321981494E+02  0.30459169005E+02  0.21349078122E+03  0.22057153174E+03  0.00000000000E+00 0.  1.
         11    1    1    2    0    0 -0.15124706408E+02 -0.42823270362E+02  0.12203176991E+03  0.13020884031E+03  0.00000000000E+00 0. -1.
<mgrwt>
<rscale>  0 0.14740745E+03</rscale>
<asrwt>0</asrwt>
<pdfrwt beam="1">  1        2 0.25068495E+00 0.16647839E+03</pdfrwt>
<pdfrwt beam="2">  1       -2 0.20023839E-02 0.16647839E+03</pdfrwt>
<totfact> 0.88575949E+03</totfact>
</mgrwt>
</event>
<event>
 6    1  0.1190675E-005  0.1823314E+03  0.7546771E-02  0.1170736E+00
         -1   -1    0    0    0  501 -0.00000000000E+00  0.00000000000E+00  0.14489591028E+03  0.14489591028E+03  0.00000000000E+00 0.  1.
          1   -1    0    0  501    0  0.00000000000E+00 -0.00000000000E+00 -0.20466982024E+03  0.20466982024E+03  0.00000000000E+00 0. -1.
          5    1    1    2  502    0 -0.27456501134E+02 -0.94764331971E+02  0.18122847086E+02  0.10042243601E+03  0.47000000000E+01 0.  1.
         -5    1    1    2    0  502 -0.65436847109E+02 -0.23358832277E-01 -0.54979432990E+02  0.85596784736E+02  0.47000000000E+01 0.  1.
        -11    1    1    2    0    0  0.85408778965E+02  0.44319144017E+02  0.18311720453E+02  0.97949809375E+02  0.00000000000E+00 0.  1.
         11    1    1    2    0    0  0.74845692783E+01  0.50468546787E+02 -0.41229044512E+02  0.65596700400E+02  0.00000000000E+00 0. -1.
<mgrwt>
<rscale>  0 0.17700269E+03</rscale>
<asrwt>0</asrwt>
<pdfrwt beam="2">  1        1 0.31487665E-01 0.18233141E+03</pdfrwt>
<pdfrwt beam="1">  1       -1 0.22291678E-01 0.18233141E+03</pdfrwt>
<totfact> 0.23619357E+03</totfact>
</mgrwt>
</event>
<event>
 6    1  0.1190675E-005  0.1287847E+03  0.7546771E-02  0.1242891E+00
         -1   -1    0    0    0  501 -0.00000000000E+00  0.00000000000E+00  0.16938785782E+02  0.16938785782E+02  0.00000000000E+00 0.  1.
          1   -1    0    0  501    0  0.00000000000E+00 -0.00000000000E+00 -0.76847614055E+03  0.76847614055E+03  0.00000000000E+00 0. -1.
          5    1    1    2  502    0 -0.35602102660E+02 -0.64413839470E+02 -0.22697875113E+03  0.23865895310E+03  0.47000000000E+01 0. -1.
         -5    1    1    2    0  502  0.39685077128E+02  0.33629752050E+02 -0.25017474725E+03  0.25556869865E+03  0.47000000000E+01 0. -1.
        -11    1    1    2    0    0 -0.21025233143E+02 -0.25387682819E+02 -0.15110822462E+03  0.15466185831E+03  0.00000000000E+00 0. -1.
         11    1    1    2    0    0  0.16942258674E+02  0.56171770239E+02 -0.12327563176E+03  0.13652541627E+03  0.00000000000E+00 0.  1.
<mgrwt>
<rscale>  0 0.12012515E+03</rscale>
<asrwt>0</asrwt>
<pdfrwt beam="2">  1        1 0.11822706E+00 0.12878475E+03</pdfrwt>
<pdfrwt beam="1">  1       -1 0.26059679E-02 0.12878475E+03</pdfrwt>
<totfact> 0.10872426E+04</totfact>
</mgrwt>
</event>
<event>
 6    1  0.1190675E-005  0.1256199E+03  0.7546771E-02  0.1250323E+00
         -1   -1    0    0    0  501 -0.00000000000E+00  0.00000000000E+00  0.72014361475E+02  0.72014361475E+02  0.00000000000E+00 0.  1.
          1   -1    0    0  501    0  0.00000000000E+00 -0.00000000000E+00 -0.77974570673E+03  0.77974570673E+03  0.00000000000E+00 0. -1.
          5    1    1    2  502    0  0.28641377496E+02  0.11552176799E+02 -0.67770380856E+03  0.67842341015E+03  0.47000000000E+01 0.  1.
         -5    1    1    2    0  502 -0.36969186917E+02 -0.22786446079E+01 -0.66118502935E+02  0.75931939478E+02  0.47000000000E+01 0.  1.
        -11    1    1    2    0    0 -0.23599586383E+02  0.16215188432E+02  0.47075735832E+02  0.55099888543E+02  0.00000000000E+00 0.  1.
         11    1    1    2    0    0  0.31927395805E+02 -0.25488720622E+02 -0.10984769593E+02  0.42304830042E+02  0.00000000000E+00 0. -1.
<mgrwt>
<rscale>  0 0.11572362E+03</rscale>
<asrwt>0</asrwt>
<pdfrwt beam="2">  1        1 0.11996088E+00 0.12561991E+03</pdfrwt>
<pdfrwt beam="1">  1       -1 0.11079132E-01 0.12561991E+03</pdfrwt>
<totfact> 0.12411679E+03</totfact>
</mgrwt>
</event>
<event>
 6    1  0.1190675E-005  0.1342938E+03  0.7546771E-02  0.1233269E+00
          1   -1    0    0  501    0  0.00000000000E+00  0.00000000000E+00  0.81626764962E+02  0.81626764962E+02  0.00000000000E+00 0. -1.
         -1   -1    0    0    0  501 -0.00000000000E+00 -0.00000000000E+00 -0.20112640447E+03  0.20112640447E+03  0.00000000000E+00 0.  1.
          5    1    1    2  502    0 -0.39708707921E+02 -0.12362718427E+02 -0.19979662000E+02  0.46377744504E+02  0.47000000000E+01 0.  1.
         -5    1    1    2    0  502  0.88363172985E+02  0.57555691210E+01  0.45973454933E+01  0.88794158037E+02  0.47000000000E+01 0.  1.
        -11    1    1    2    0    0 -0.40930866892E+01 -0.22245169219E+02 -0.89790488685E+02  0.92595533210E+02  0.00000000000E+00 0.  1.
         11    1    1    2    0    0 -0.44561378375E+02  0.28852318525E+02 -0.14326834317E+02  0.54985733682E+02  0.00000000000E+00 0. -1.
<mgrwt>
<rscale>  0 0.12615900E+03</rscale>
<asrwt>0</asrwt>
<pdfrwt beam="1">  1        1 0.12557964E-01 0.13429381E+03</pdfrwt>
<pdfrwt beam="2">  1       -1 0.30942524E-01 0.13429381E+03</pdfrwt>
<totfact> 0.43736701E+03</totfact>
</mgrwt>
</event>
<event>
 6    1  0.1190675E-005  0.3964730E+03  0.7546771E-02  0.1045008E+00
          2   -1    0    0  501    0  0.00000000000E+00  0.00000000000E+00  0.14414692624E+04  0.14414692624E+04  0.00000000000E+00 0. -1.
         -2   -1    0    0    0  501 -0.00000000000E+00 -0.00000000000E+00 -0.27262255648E+02  0.27262255648E+02  0.00000000000E+00 0.  1.
          5    1    1    2  502    0  0.16855007971E+01 -0.56538242047E+02  0.78456585330E+03  0.78661622275E+03  0.47000000000E+01 0. -1.
         -5    1    1    2    0  502 -0.26848462164E+02  0.46708123804E+02  0.30216706773E+03  0.30696826476E+03  0.47000000000E+01 0.  1.
        -11    1    1    2    0    0 -0.24358896065E+02  0.81337476971E+02  0.97580216993E+02  0.12934852039E+03  0.00000000000E+00 0.  1.
         11    1    1    2    0    0  0.49521857432E+02 -0.71507358728E+02  0.22989386877E+03  0.24579851019E+03  0.00000000000E+00 0. -1.
<mgrwt>
<rscale>  0 0.39647297E+03</rscale>
<asrwt>0</asrwt>
<pdfrwt beam="1">  1        2 0.22176444E+00 0.39647297E+03</pdfrwt>
<pdfrwt beam="2">  1       -2 0.41941943E-02 0.39647297E+03</pdfrwt>
<totfact> 0.37601989E+03</totfact>
</mgrwt>
</event>
<event>
 6    1  0.1190675E-005  0.2512608E+03  0.7546771E-02  0.1115013E+00
         -2   -1    0    0    0  501 -0.00000000000E+00  0.00000000000E+00  0.14401270054E+04  0.14401270054E+04  0.00000000000E+00 0.  1.
          2   -1    0    0  501    0  0.00000000000E+00 -0.00000000000E+00 -0.43667559654E+02  0.43667559654E+02  0.00000000000E+00 0. -1.
          5    1    1    2  502    0 -0.94254863269E+02 -0.27845245365E+02  0.33197645207E+03  0.34625105295E+03  0.47000000000E+01 0. -1.
         -5    1    1    2    0  502 -0.12008102822E+03  0.67408837280E+02  0.21046464529E+03  0.25155687548E+03  0.47000000000E+01 0. -1.
        -11    1    1    2    0    0  0.34412069939E+02 -0.35443947211E+02  0.28296873883E+03  0.28724862246E+03  0.00000000000E+00 0.  1.
         11    1    1    2    0    0  0.17992382155E+03 -0.41196447042E+01  0.57104960959E+03  0.59873801420E+03  0.00000000000E+00 0. -1.
<mgrwt>
<rscale>  0 0.24731602E+03</rscale>
<asrwt>0</asrwt>
<pdfrwt beam="2">  1        2 0.67180872E-02 0.25126077E+03</pdfrwt>
<pdfrwt beam="1">  1       -2 0.22155796E+00 0.25126077E+03</pdfrwt>
<totfact> 0.11293956E+02</totfact>
</mgrwt>
</event>
<event>
 6    1  0.1190675E-005  0.4082523E+03  0.7546771E-02  0.1040959E+00
         -2   -1    0    0    0  501 -0.00000000000E+00  0.00000000000E+00  0.20441715573E+02  0.20441715573E+02  0.00000000000E+00 0.  1.
          2   -1    0    0  501    0  0.00000000000E+00 -0.00000000000E+00 -0.20383550970E+04  0.20383550970E+04  0.00000000000E+00 0. -1.
          5    1    1    2  502    0 -0.52247522196E+01  0.17734202197E+02 -0.38045002090E+03  0.38092795692E+03  0.47000000000E+01 0. -1.
         -5    1    1    2    0  502  0.15764992655E+03 -0.62128097889E+02 -0.10099077624E+04  0.10240357310E+04  0.47000000000E+01 0.  1.
        -11    1    1    2    0    0 -0.79606975294E+02 -0.23424420965E+02 -0.31976993527E+03  0.33036159812E+03  0.00000000000E+00 0. -1.
         11    1    1    2    0    0 -0.72818199038E+02  0.67818316657E+02 -0.30778566283E+03  0.32347152646E+03  0.00000000000E+00 0.  1.
<mgrwt>
<rscale>  0 0.40825225E+03</rscale>
<asrwt>0</asrwt>
<pdfrwt beam="2">  1        2 0.31359312E+00 0.40825225E+03</pdfrwt>
<pdfrwt beam="1">  1       -2 0.31448791E-02 0.40825225E+03</pdfrwt>
<totfact> 0.27820235E+03</totfact>
</mgrwt>
</event>
<event>
 6    1  0.1190675E-005  0.1362466E+03  0.7546771E-02  0.1229826E+00
         -3   -1    0    0    0  501 -0.00000000000E+00  0.00000000000E+00  0.12777232700E+03  0.12777232700E+03  0.00000000000E+00 0.  1.
          3   -1    0    0  501    0  0.00000000000E+00 -0.00000000000E+00 -0.11780233855E+03  0.11780233855E+03  0.00000000000E+00 0. -1.
          5    1    1    2  502    0 -0.52123541597E+02 -0.61752412991E+02  0.30939668950E+02  0.86657816806E+02  0.47000000000E+01 0.  1.
         -5    1    1    2    0  502  0.27027174273E+02  0.13693132561E+02 -0.39299722296E+02  0.49845041890E+02  0.47000000000E+01 0.  1.
        -11    1    1    2    0    0  0.55098431663E+01 -0.19257268566E+02  0.31895529792E+02  0.37663318827E+02  0.00000000000E+00 0.  1.
         11    1    1    2    0    0  0.19586524158E+02  0.67316548997E+02 -0.13565487997E+02  0.71408488025E+02  0.00000000000E+00 0. -1.
<mgrwt>
<rscale>  0 0.12841541E+03</rscale>
<asrwt>0</asrwt>
<pdfrwt beam="2">  1        3 0.18123437E-01 0.13624661E+03</pdfrwt>
<pdfrwt beam="1">  1       -3 0.19657281E-01 0.13624661E+03</pdfrwt>
<totfact> 0.14217241E+03</totfact>
</mgrwt>
</event>
<event>
 6    1  0.1190675E-005  0.1273921E+03  0.7546771E-02  0.1249196E+00
         -1   -1    0    0    0  501 -0.00000000000E+00  0.00000000000E+00  0.14869974644E+03  0.14869974644E+03  0.00000000000E+00 0.  1.
          1   -1    0    0  501    0  0.00000000000E+00 -0.00000000000E+00 -0.79608899185E+02  0.79608899185E+02  0.00000000000E+00 0. -1.
          5    1    1    2  502    0  0.10301161447E+02 -0.52408740997E+02  0.13707411100E+02  0.55342327192E+02  0.47000000000E+01 0. -1.
         -5    1    1    2    0  502 -0.28620521908E+02  0.67759183670E+02  0.13827750054E+02  0.74991585644E+02  0.47000000000E+01 0. -1.
        -11    1    1    2    0    0  0.16856526182E+02 -0.38003328139E+02 -0.90174381399E+01  0.42540681884E+02  0.00000000000E+00 0. -1.
         11    1    1    2    0    0  0.14628342785E+01  0.22652885466E+02  0.50573124236E+02  0.55434050899E+02  0.00000000000E+00 0.  1.
<mgrwt>
<rscale>  0 0.11637740E+03</rscale>
<asrwt>0</asrwt>
<pdfrwt beam="2">  1        1 0.12247523E-01 0.12739209E+03</pdfrwt>
<pdfrwt beam="1">  1       -1 0.22876884E-01 0.12739209E+03</pdfrwt>
<totfact> 0.74196084E+03</totfact>
</mgrwt>
</event>
<event>
 6    1  0.1190675E-005  0.1377774E+03  0.7546771E-02  0.1226391E+00
         -1   -1    0    0    0  501 -0.00000000000E+00  0.00000000000E+00  0.97989546022E+02  0.97989546022E+02  0.00000000000E+00 0. -1.
          1   -1    0    0  501    0  0.00000000000E+00 -0.00000000000E+00 -0.15903193423E+03  0.15903193423E+03  0.00000000000E+00 0.  1.
          5    1    1    2  502    0 -0.88709079552E+02  0.18873140724E+02  0.97628775653E+00  0.90821469783E+02  0.47000000000E+01 0.  1.
         -5    1    1    2    0  502  0.33106708717E+02 -0.25917146086E+01 -0.40355559780E+02  0.52473158394E+02  0.47000000000E+01 0.  1.
        -11    1    1    2    0    0 -0.64482422691E+01  0.16913006069E+02  0.23834445434E+02  0.29928421138E+02  0.00000000000E+00 0. -1.
         11    1    1    2    0    0  0.62050613104E+02 -0.33194432185E+02 -0.45497561621E+02  0.83798430941E+02  0.00000000000E+00 0.  1.
<mgrwt>
<rscale>  0 0.13072028E+03</rscale>
<asrwt>0</asrwt>
<pdfrwt beam="2">  1        1 0.24466451E-01 0.13777744E+03</pdfrwt>
<pdfrwt beam="1">  1       -1 0.15075315E-01 0.13777744E+03</pdfrwt>
<totfact> 0.59751042E+03</totfact>
</mgrwt>
</event>
<event>
 6    1  0.1190675E-005  0.1806566E+03  0.7546771E-02  0.1180252E+00
          2   -1    0    0  501    0  0.00000000000E+00  0.00000000000E+00  0.37653945500E+03  0.37653945500E+03  0.00000000000E+00 0. -1.
         -2   -1    0    0    0  501 -0.00000000000E+00 -0.00000000000E+00 -0.96745622684E+02  0.96745622684E+02  0.00000000000E+00 0.  1.
          5    1    1    2  502    0  0.67580206440E+02  0.20824183652E+02  0.28510046873E+03  0.29377729354E+03  0.47000000000E+01 0. -1.
         -5    1    1    2    0  502  0.67473994992E+01  0.44351430497E+02  0.16510027454E+01  0.45137485499E+02  0.47000000000E+01 0.  1.
        -11    1    1    2    0    0 -0.49359357346E+02 -0.64945159281E+02  0.32390110531E+02  0.87768668281E+02  0.00000000000E+00 0.  1.
         11    1    1    2    0    0 -0.24968248593E+02 -0.23045486710E+00 -0.39347749690E+02  0.46601630368E+02  0.00000000000E+00 0. -1.
<mgrwt>
<rscale>  0 0.16771446E+03</rscale>
<asrwt>0</asrwt>
<pdfrwt beam="1">  1        2 0.57929146E-01 0.18065664E+03</pdfrwt>
<pdfrwt beam="2">  1       -2 0.14883942E-01 0.18065664E+03</pdfrwt>
<totfact> 0.29066974E+03</totfact>
</mgrwt>
</event>
<event>
 6    1  0.1190675E-005  0.3590351E+03  0.7546771E-02  0.1058967E+00
          2   -1    0    0  501    0  0.00000000000E+00  0.00000000000E+00  0.26655501209E+03  0.26655501209E+03  0.00000000000E+00 0.  1.
         -2   -1    0    0    0  501 -0.00000000000E+00 -0.00000000000E+00 -0.12090021488E+03  0.12090021488E+03  0.00000000000E+00 0. -1.
          5    1    1    2  502    0 -0.97006633693E+02  0.39260564497E+02  0.12074066169E+03  0.15985016825E+03  0.47000000000E+01 0. -1.
         -5    1    1    2    0  502  0.32312334784E+02 -0.56132734353E+01  0.89050025783E+02  0.95013645914E+02  0.47000000000E+01 0. -1.
        -11    1    1    2    0    0  0.16669037741E+02 -0.28081114109E+02  0.17996098952E+02  0.37286262434E+02  0.00000000000E+00 0.  1.
         11    1    1    2    0    0  0.48025261168E+02 -0.55661769528E+01 -0.82131989214E+02  0.95305150377E+02  0.00000000000E+00 0. -1.
<mgrwt>
<rscale>  0 0.35903514E+03</rscale>
<asrwt>0</asrwt>
<pdfrwt beam="1">  1        2 0.41008463E-01 0.35903514E+03</pdfrwt>
<pdfrwt beam="2">  1       -2 0.18600033E-01 0.35903514E+03</pdfrwt>
<totfact> 0.29739712E+03</totfact>
</mgrwt>
</event>
<event>
 6    1  0.1190675E-005  0.1470187E+03  0.7546771E-02  0.1213181E+00
         -1   -1    0    0    0  501 -0.00000000000E+00  0.00000000000E+00  0.90444817116E+02  0.90444817116E+02  0.00000000000E+00 0.  1.
          1   -1    0    0  501    0  0.00000000000E+00 -0.00000000000E+00 -0.20042843555E+03  0.20042843555E+03  0.00000000000E+00 0. -1.
          5    1    1    2  502    0  0.44036234571E+02 -0.30418781366E+02 -0.39414245554E+01  0.53871300732E+02  0.47000000000E+01 0.  1.
         -5    1    1    2    0  502  0.10505324823E+02  0.85288203580E+02 -0.68673448685E+02  0.11010255253E+03  0.47000000000E+01 0.  1.
        -11    1    1    2    0    0 -0.18697433191E+02 -0.45764133644E+02  0.24227414321E+02  0.55053769542E+02  0.00000000000E+00 0.  1.
         11    1    1    2    0    0 -0.35844126203E+02 -0.91052885693E+01 -0.61596159509E+02  0.71845629856E+02  0.00000000000E+00 0. -1.
<mgrwt>
<rscale>  0 0.14011032E+03</rscale>
<asrwt>0</asrwt>
<pdfrwt beam="2">  1        1 0.30835144E-01 0.14701872E+03</pdfrwt>
<pdfrwt beam="1">  1       -1 0.13914587E-01 0.14701872E+03</pdfrwt>
<totfact> 0.50916940E+03</totfact>
</mgrwt>
</event>
<event>
 6    1  0.1190675E-005  0.1254118E+03  0.7546771E-02  0.1244356E+00
          1   -1    0    0  501    0  0.00000000000E+00  0.00000000000E+00  0.83343208617E+02  0.83343208617E+02  0.00000000000E+00 0. -1.
         -1   -1    0    0    0  501 -0.00000000000E+00 -0.00000000000E+00 -0.19308425032E+03  0.19308425032E+03  0.00000000000E+00 0.  1.
          5    1    1    2  502    0  0.34159351898E+02 -0.92477746255E+01  0.48990314308E+02  0.60617848474E+02  0.47000000000E+01 0. -1.
         -5    1    1    2    0  502 -0.43215339024E+02  0.46944486855E+01 -0.47825382696E+02  0.64799387384E+02  0.47000000000E+01 0. -1.
        -11    1    1    2    0    0  0.12296566961E+02 -0.44541884359E+02 -0.81507058185E+02  0.93694106300E+02  0.00000000000E+00 0.  1.
         11    1    1    2    0    0 -0.32405798356E+01  0.49095210299E+02 -0.29398915129E+02  0.57316116780E+02  0.00000000000E+00 0. -1.
<mgrwt>
<rscale>  0 0.11924027E+03</rscale>
<asrwt>0</asrwt>
<pdfrwt beam="1">  1        1 0.12822032E-01 0.12541183E+03</pdfrwt>
<pdfrwt beam="2">  1       -1 0.29705269E-01 0.12541183E+03</pdfrwt>
<totfact> 0.45386654E+03</totfact>
</mgrwt>
</event>
<event>
 6    1  0.1190675E-005  0.1276407E+03  0.7546771E-02  0.1247636E+00
          2   -1    0    0  501    0  0.00000000000E+00  0.00000000000E+00  0.28109166406E+04  0.28109166406E+04  0.00000000000E+00 0.  1.
         -2   -1    0    0    0  501 -0.00000000000E+00 -0.00000000000E+00 -0.75582260243E+01  0.75582260243E+01  0.00000000000E+00 0. -1.
          5    1    1    2  502    0  0.57246235251E+02 -0.42596690566E+02  0.19091449952E+04  0.19104837901E+04  0.47000000000E+01 0. -1.
         -5    1    1    2    0  502 -0.33736006602E+02  0.31791717544E+02  0.54932635819E+03  0.55129880214E+03  0.47000000000E+01 0. -1.
        -11    1    1    2    0    0 -0.50968114857E+02  0.11726650938E+02  0.29625994310E+03  0.30084084988E+03  0.00000000000E+00 0.  1.
         11    1    1    2    0    0  0.27457886208E+02 -0.92167791588E+00  0.48627118051E+02  0.55851424468E+02  0.00000000000E+00 0. -1.
<mgrwt>
<rscale>  0 0.11728989E+03</rscale>
<asrwt>0</asrwt>
<pdfrwt beam="1">  1        2 0.43244788E+00 0.12764065E+03</pdfrwt>
<pdfrwt beam="2">  1       -2 0.11628063E-02 0.12764065E+03</pdfrwt>
<totfact> 0.46264340E+03</totfact>
</mgrwt>
</event>
<event>
 6    1  0.1190675E-005  0.2471289E+03  0.7546771E-02  0.1115133E+00
         -1   -1    0    0    0  501 -0.00000000000E+00  0.00000000000E+00  0.28565863622E+03  0.28565863622E+03  0.00000000000E+00 0.  1.
          1   -1    0    0  501    0  0.00000000000E+00 -0.00000000000E+00 -0.53449029241E+02  0.53449029241E+02  0.00000000000E+00 0. -1.
          5    1    1    2  502    0 -0.55367216228E+02 -0.35466470692E+02 -0.71369674983E+01  0.66305546384E+02  0.47000000000E+01 0. -1.
         -5    1    1    2    0  502  0.26064187908E+02  0.10753422984E+02  0.76563721961E+02  0.81725586677E+02  0.47000000000E+01 0. -1.
        -11    1    1    2    0    0  0.36197530991E+02 -0.27677582833E+02  0.92808841323E+02  0.10339144485E+03  0.00000000000E+00 0.  1.
         11    1    1    2    0    0 -0.68945026705E+01  0.52390630540E+02  0.69974011194E+02  0.87685087547E+02  0.00000000000E+00 0. -1.
<mgrwt>
<rscale>  0 0.24712893E+03</rscale>
<asrwt>0</asrwt>
<pdfrwt beam="2">  1        1 0.82229277E-02 0.24712893E+03</pdfrwt>
<pdfrwt beam="1">  1       -1 0.43947482E-01 0.24712893E+03</pdfrwt>
<totfact> 0.43185007E+03</totfact>
</mgrwt>
</event>
<event>
 6    1  0.1190675E-005  0.1425250E+03  0.7546771E-02  0.1218655E+00
          2   -1    0    0  501    0  0.00000000000E+00  0.00000000000E+00  0.77735079663E+02  0.77735079663E+02  0.00000000000E+00 0. -1.
         -2   -1    0    0    0  501 -0.00000000000E+00 -0.00000000000E+00 -0.24993536648E+03  0.24993536648E+03  0.00000000000E+00 0.  1.
          5    1    1    2  502    0  0.70533842939E+01 -0.10470978759E+03 -0.20146166002E+02  0.10696657353E+03  0.47000000000E+01 0. -1.
         -5    1    1    2    0  502 -0.21712142106E+01  0.36425628319E+02 -0.15670028871E+02  0.39989753368E+02  0.47000000000E+01 0. -1.
        -11    1    1    2    0    0  0.55442941797E+01  0.88474571031E+02 -0.12956549152E+03  0.15698950764E+03  0.00000000000E+00 0.  1.
         11    1    1    2    0    0 -0.10426464263E+02 -0.20190411761E+02 -0.68186004214E+01  0.23724611605E+02  0.00000000000E+00 0. -1.
<mgrwt>
<rscale>  0 0.13611458E+03</rscale>
<asrwt>0</asrwt>
<pdfrwt beam="1">  1        2 0.11959243E-01 0.14252495E+03</pdfrwt>
<pdfrwt beam="2">  1       -2 0.38451595E-01 0.14252495E+03</pdfrwt>
<totfact> 0.31741364E+03</totfact>
</mgrwt>
</event>
<event>
 6    1  0.1190675E-005  0.1601861E+03  0.7546771E-02  0.1204162E+00
         -2   -1    0    0    0  501 -0.00000000000E+00  0.00000000000E+00  0.13984582132E+03  0.13984582132E+03  0.00000000000E+00 0.  1.
          2   -1    0    0  501    0  0.00000000000E+00 -0.00000000000E+00 -0.19481549354E+03  0.19481549354E+03  0.00000000000E+00 0. -1.
          5    1    1    2  502    0 -0.17575184296E+02 -0.38020854580E+01 -0.14594201734E+03  0.14712071704E+03  0.47000000000E+01 0. -1.
         -5    1    1    2    0  502 -0.41621659301E+02  0.27299406946E+02  0.22777758434E+02  0.54941208777E+02  0.47000000000E+01 0.  1.
        -11    1    1    2    0    0  0.34062253601E+02 -0.48007069656E+02  0.76498272963E+02  0.96524098668E+02  0.00000000000E+00 0.  1.
         11    1    1    2    0    0  0.25134589997E+02  0.24509748168E+02 -0.83036862759E+01  0.36075290370E+02  0.00000000000E+00 0. -1.
<mgrwt>
<rscale>  0 0.14703721E+03</rscale>
<asrwt>0</asrwt>
<pdfrwt beam="2">  1        2 0.29971614E-01 0.16018610E+03</pdfrwt>
<pdfrwt beam="1">  1       -2 0.21514742E-01 0.16018610E+03</pdfrwt>
<totfact> 0.31629615E+03</totfact>
</mgrwt>
</event>
<event>
 6    1  0.1190675E-005  0.1386307E+03  0.7546771E-02  0.1227140E+00
          2   -1    0    0  501    0  0.00000000000E+00  0.00000000000E+00  0.82010972935E+03  0.82010972935E+03  0.00000000000E+00 0. -1.
         -2   -1    0    0    0  501 -0.00000000000E+00 -0.00000000000E+00 -0.30916756328E+02  0.30916756328E+02  0.00000000000E+00 0.  1.
          5    1    1    2  502    0 -0.15973267264E+02  0.87067200199E+02  0.35582380392E+03  0.36669948466E+03  0.47000000000E+01 0.  1.
         -5    1    1    2    0  502  0.32402636891E+02 -0.29448966112E+02  0.33634611916E+03  0.33921670707E+03  0.47000000000E+01 0.  1.
        -11    1    1    2    0    0 -0.40336833084E+02 -0.39252100190E+02  0.15779062259E+02  0.58453111794E+02  0.00000000000E+00 0.  1.
         11    1    1    2    0    0  0.23907463457E+02 -0.18366133896E+02  0.81243987689E+02  0.86657182154E+02  0.00000000000E+00 0. -1.
<mgrwt>
<rscale>  0 0.13021322E+03</rscale>
<asrwt>0</asrwt>
<pdfrwt beam="1">  1        2 0.12617071E+00 0.13863069E+03</pdfrwt>
<pdfrwt beam="2">  1       -2 0.47564247E-02 0.13863069E+03</pdfrwt>
<totfact> 0.70234757E+03</totfact>
</mgrwt>
</event>
<event>
 6    1  0.1190675E-005  0.4276779E+03  0.7546771E-02  0.1034596E+00
          1   -1    0    0  501    0  0.00000000000E+00  0.00000000000E+00  0.31478085599E+04  0.31478085599E+04  0.00000000000E+00 0. -1.
         -1   -1    0    0    0  501 -0.00000000000E+00 -0.00000000000E+00 -0.14526641657E+02  0.14526641657E+02  0.00000000000E+00 0.  1.
          5    1    1    2  502    0 -0.90913402640E+01 -0.48378858281E+01  0.20055293908E+02  0.23029598798E+02  0.47000000000E+01 0. -1.
         -5    1    1    2    0  502 -0.74577287339E+02  0.67339231863E+02  0.27233494648E+04  0.27252065502E+04  0.47000000000E+01 0. -1.
        -11    1    1    2    0    0  0.41639789492E+02 -0.25155692500E+02  0.50592662960E+02  0.70187594911E+02  0.00000000000E+00 0.  1.
         11    1    1    2    0    0  0.42028838112E+02 -0.37345653535E+02  0.33928449662E+03  0.34391145767E+03  0.00000000000E+00 0. -1.
<mgrwt>
<rscale>  0 0.42767786E+03</rscale>
<asrwt>0</asrwt>
<pdfrwt beam="1">  1        1 0.48427770E+00 0.42767786E+03</pdfrwt>
<pdfrwt beam="2">  1       -1 0.22348705E-02 0.42767786E+03</pdfrwt>
<totfact> 0.32237603E+02</totfact>
</mgrwt>
</event>
<event>
 6    1  0.1190675E-005  0.1495725E+03  0.7546771E-02  0.1209825E+00
         -1   -1    0    0    0  501 -0.00000000000E+00  0.00000000000E+00  0.52566854187E+02  0.52566854187E+02  0.00000000000E+00 0.  1.
          1   -1    0    0  501    0  0.00000000000E+00 -0.00000000000E+00 -0.92731659864E+03  0.92731659864E+03  0.00000000000E+00 0. -1.
          5    1    1    2  502    0  0.43294846675E+02 -0.15075565280E+02 -0.79671021846E+02  0.92039546605E+02  0.47000000000E+01 0. -1.
         -5    1    1    2    0  502  0.33719924794E+02 -0.13479211772E+02 -0.75775172352E+03  0.75863593836E+03  0.47000000000E+01 0. -1.
        -11    1    1    2    0    0 -0.63611284188E+02  0.48393992998E+02  0.55280238503E+01  0.80118244376E+02  0.00000000000E+00 0.  1.
         11    1    1    2    0    0 -0.13403487282E+02 -0.19839215946E+02 -0.42855022937E+02  0.49089723483E+02  0.00000000000E+00 0. -1.
<mgrwt>
<rscale>  0 0.14263633E+03</rscale>
<asrwt>0</asrwt>
<pdfrwt beam="2">  1        1 0.14266410E+00 0.14957248E+03</pdfrwt>
<pdfrwt beam="1">  1       -1 0.80872082E-02 0.14957248E+03</pdfrwt>
<totfact> 0.15342414E+03</totfact>
</mgrwt>
</event>
<event>
 6    1  0.1190675E-005  0.3989087E+03  0.7546771E-02  0.1044158E+00
         -2   -1    0    0    0  501 -0.00000000000E+00  0.00000000000E+00  0.37089138790E+02  0.37089138790E+02  0.00000000000E+00 0.  1.
          2   -1    0    0  501    0  0.00000000000E+00 -0.00000000000E+00 -0.10726061941E+04  0.10726061941E+04  0.00000000000E+00 0. -1.
          5    1    1    2  502    0 -0.13499416728E+02 -0.17628030778E+02 -0.43895625407E+03  0.43954256302E+03  0.47000000000E+01 0. -1.
         -5    1    1    2    0  502 -0.60414550751E+02 -0.11020067173E+03 -0.32376115294E+03  0.34732906608E+03  0.47000000000E+01 0. -1.
        -11    1    1    2    0    0 -0.25499562877E+01  0.81021272738E+02 -0.15353447783E+03  0.17361965556E+03  0.00000000000E+00 0. -1.
         11    1    1    2    0    0  0.76463923767E+02  0.46807429768E+02 -0.11926517045E+03  0.14920404821E+03  0.00000000000E+00 0.  1.
<mgrwt>
<rscale>  0 0.39890871E+03</rscale>
<asrwt>0</asrwt>
<pdfrwt beam="2">  1        2 0.16501631E+00 0.39890871E+03</pdfrwt>
<pdfrwt beam="1">  1       -2 0.57060222E-02 0.39890871E+03</pdfrwt>
<totfact> 0.38078759E+03</totfact>
</mgrwt>
</event>
<event>
 6    1  0.1190675E-005  0.1254568E+03  0.7546771E-02  0.1249376E+00
          1   -1    0    0  501    0  0.00000000000E+00  0.00000000000E+00  0.63877876527E+03  0.63877876527E+03  0.00000000000E+00 0. -1.
         -1   -1    0    0    0  501 -0.00000000000E+00 -0.00000000000E+00 -0.24629759758E+02  0.24629759758E+02  0.00000000000E+00 0.  1.
          5    1    1    2  502    0  0.29221674242E+02  0.28923298720E+02  0.56545535888E+02  0.70071043115E+02  0.47000000000E+01 0. -1.
         -5    1    1    2    0  502 -0.20224850195E+02 -0.34853089069E+02  0.44819747800E+03  0.45002983419E+03  0.47000000000E+01 0. -1.
        -11    1    1    2    0    0 -0.43996869209E+02  0.17451112756E+02  0.89940696775E+02  0.10163461405E+03  0.00000000000E+00 0. -1.
         11    1    1    2    0    0  0.35000045162E+02 -0.11521322407E+02  0.19465294849E+02  0.41673033666E+02  0.00000000000E+00 0.  1.
<mgrwt>
<rscale>  0 0.11627247E+03</rscale>
<asrwt>0</asrwt>
<pdfrwt beam="1">  1        1 0.98273644E-01 0.12545682E+03</pdfrwt>
<pdfrwt beam="2">  1       -1 0.37891943E-02 0.12545682E+03</pdfrwt>
<totfact> 0.81944879E+03</totfact>
</mgrwt>
</event>
<event>
 6    1  0.1190675E-005  0.1355140E+03  0.7546771E-02  0.1232082E+00
         -1   -1    0    0    0  501 -0.00000000000E+00  0.00000000000E+00  0.89187746132E+02  0.89187746132E+02  0.00000000000E+00 0.  1.
          1   -1    0    0  501    0  0.00000000000E+00 -0.00000000000E+00 -0.17196978454E+03  0.17196978454E+03  0.00000000000E+00 0. -1.
          5    1    1    2  502    0 -0.18277763179E+02  0.64582292457E+02  0.56754843534E+01  0.67522220405E+02  0.47000000000E+01 0.  1.
         -5    1    1    2    0  502  0.25335335299E+02 -0.12682499448E+02 -0.84504887253E+02  0.89251840186E+02  0.47000000000E+01 0.  1.
        -11    1    1    2    0    0  0.89308339058E+01 -0.49596883056E+02  0.35572565418E+02  0.61684828067E+02  0.00000000000E+00 0.  1.
         11    1    1    2    0    0 -0.15988406026E+02 -0.23029099527E+01 -0.39525200924E+02  0.42698642011E+02  0.00000000000E+00 0. -1.
<mgrwt>
<rscale>  0 0.12693110E+03</rscale>
<asrwt>0</asrwt>
<pdfrwt beam="2">  1        1 0.26456889E-01 0.13551395E+03</pdfrwt>
<pdfrwt beam="1">  1       -1 0.13721192E-01 0.13551395E+03</pdfrwt>
<totfact> 0.62681306E+03</totfact>
</mgrwt>
</event>
<event>
 6    1  0.1190675E-005  0.2421794E+03  0.7546771E-02  0.1118349E+00
          2   -1    0    0  501    0  0.00000000000E+00  0.00000000000E+00  0.12059127505E+04  0.12059127505E+04  0.00000000000E+00 0. -1.
         -2   -1    0    0    0  501 -0.00000000000E+00 -0.00000000000E+00 -0.12159020792E+02  0.12159020792E+02  0.00000000000E+00 0.  1.
          5    1    1    2  502    0  0.30528212722E+02  0.22832094301E+02  0.62247336906E+02  0.73144359004E+02  0.47000000000E+01 0.  1.
         -5    1    1    2    0  502 -0.97053306171E+01  0.93779695546E+00  0.68911408638E+03  0.68919909094E+03  0.47000000000E+01 0.  1.
        -11    1    1    2    0    0 -0.48075260006E+02 -0.48071771996E+02  0.34676780336E+03  0.35336954500E+03  0.00000000000E+00 0. -1.
         11    1    1    2    0    0  0.27252377901E+02  0.24301880739E+02  0.95624503040E+02  0.10235877632E+03  0.00000000000E+00 0.  1.
<mgrwt>
<rscale>  0 0.24217942E+03</rscale>
<asrwt>0</asrwt>
<pdfrwt beam="1">  1        2 0.18552494E+00 0.24217942E+03</pdfrwt>
<pdfrwt beam="2">  1       -2 0.18706195E-02 0.24217942E+03</pdfrwt>
<totfact> 0.16797130E+04</totfact>
</mgrwt>
</event>
<event>
 6    1  0.1190675E-005  0.1277064E+03  0.7546771E-02  0.1244843E+00
         -1   -1    0    0    0  501 -0.00000000000E+00  0.00000000000E+00  0.21921643382E+02  0.21921643382E+02  0.00000000000E+00 0.  1.
          1   -1    0    0  501    0  0.00000000000E+00 -0.00000000000E+00 -0.84595818920E+03  0.84595818920E+03  0.00000000000E+00 0. -1.
          5    1    1    2  502    0  0.19552949931E+02  0.51106986908E+02 -0.60989286766E+03  0.61236071231E+03  0.47000000000E+01 0. -1.
         -5    1    1    2    0  502 -0.14539392776E+02 -0.37941724230E+02 -0.86986169706E+02  0.96123109084E+02  0.47000000000E+01 0.  1.
        -11    1    1    2    0    0  0.28376747451E+02  0.22265792652E+02 -0.18958838791E+02  0.40748532325E+02  0.00000000000E+00 0. -1.
         11    1    1    2    0    0 -0.33390304605E+02 -0.35431055330E+02 -0.10819866966E+03  0.11864747886E+03  0.00000000000E+00 0.  1.
<mgrwt>
<rscale>  0 0.11894800E+03</rscale>
<asrwt>0</asrwt>
<pdfrwt beam="2">  1        1 0.13014743E+00 0.12770643E+03</pdfrwt>
<pdfrwt beam="1">  1       -1 0.33725600E-02 0.12770643E+03</pdfrwt>
<totfact> 0.64619252E+03</totfact>
</mgrwt>
</event>
<event>
 6    1  0.1190675E-005  0.1274911E+03  0.7546771E-02  0.1246277E+00
          1   -1    0    0  501    0  0.00000000000E+00  0.00000000000E+00  0.82211752322E+02  0.82211752322E+02  0.00000000000E+00 0. -1.
         -1   -1    0    0    0  501 -0.00000000000E+00 -0.00000000000E+00 -0.22233435316E+03  0.22233435316E+03  0.00000000000E+00 0.  1.
          5    1    1    2  502    0 -0.52503802951E+02 -0.42618136470E+02  0.20280825795E+02  0.70755613032E+02  0.47000000000E+01 0. -1.
         -5    1    1    2    0  502  0.28083005674E+02  0.48319178496E+02 -0.10695353589E+02  0.57095348380E+02  0.47000000000E+01 0. -1.
        -11    1    1    2    0    0  0.15418345115E+02  0.36333935319E+02 -0.30223192188E+02  0.49712388475E+02  0.00000000000E+00 0. -1.
         11    1    1    2    0    0  0.90024521632E+01 -0.42034977345E+02 -0.11948488086E+03  0.12698275560E+03  0.00000000000E+00 0.  1.
<mgrwt>
<rscale>  0 0.11809289E+03</rscale>
<asrwt>0</asrwt>
<pdfrwt beam="1">  1        1 0.12647962E-01 0.12749113E+03</pdfrwt>
<pdfrwt beam="2">  1       -1 0.34205285E-01 0.12749113E+03</pdfrwt>
<totfact> 0.36438236E+03</totfact>
</mgrwt>
</event>
<event>
 6    1  0.1190675E-005  0.1556139E+03  0.7546771E-02  0.1202301E+00
          3   -1    0    0  501    0  0.00000000000E+00  0.00000000000E+00  0.88699594274E+03  0.88699594274E+03  0.00000000000E+00 0. -1.
         -3   -1    0    0    0  501 -0.00000000000E+00 -0.00000000000E+00 -0.33199218802E+02  0.33199218802E+02  0.00000000000E+00 0.  1.
          5    1    1    2  502    0  0.34267478432E+02  0.29319686230E+02  0.20620714541E+03  0.21113356174E+03  0.47000000000E+01 0.  1.
         -5    1    1    2    0  502  0.12461625342E+02 -0.10946316866E+03  0.50411905242E+03  0.51603835750E+03  0.47000000000E+01 0.  1.
        -11    1    1    2    0    0  0.56973923369E+01  0.72468550688E+02  0.60486579168E+02  0.94566259193E+02  0.00000000000E+00 0.  1.
         11    1    1    2    0    0 -0.52426496111E+02  0.76749317369E+01  0.82983946951E+02  0.98456983110E+02  0.00000000000E+00 0. -1.
<mgrwt>
<rscale>  0 0.14852238E+03</rscale>
<asrwt>0</asrwt>
<pdfrwt beam="1">  1        3 0.13646090E+00 0.15561392E+03</pdfrwt>
<pdfrwt beam="2">  1       -3 0.51075728E-02 0.15561392E+03</pdfrwt>
<totfact> 0.22777466E+02</totfact>
</mgrwt>
</event>
<event>
 6    1  0.1190675E-005  0.1268150E+03  0.7546771E-02  0.1246098E+00
          1   -1    0    0  501    0  0.00000000000E+00  0.00000000000E+00  0.11184286810E+03  0.11184286810E+03  0.00000000000E+00 0. -1.
         -1   -1    0    0    0  501 -0.00000000000E+00 -0.00000000000E+00 -0.14470635756E+03  0.14470635756E+03  0.00000000000E+00 0.  1.
          5    1    1    2  502    0 -0.24733212925E+02 -0.47938003089E+02 -0.14718336664E+02  0.56111526409E+02  0.47000000000E+01 0. -1.
         -5    1    1    2    0  502  0.36520558616E+01  0.51473785724E+02  0.58262243428E+02  0.77970937779E+02  0.47000000000E+01 0. -1.
        -11    1    1    2    0    0  0.19089361428E+02 -0.35049580380E+02 -0.12925064766E+00  0.39911070022E+02  0.00000000000E+00 0. -1.
         11    1    1    2    0    0  0.19917956358E+01  0.31513797745E+02 -0.76278145580E+02  0.82555691453E+02  0.00000000000E+00 0.  1.
<mgrwt>
<rscale>  0 0.11819930E+03</rscale>
<asrwt>0</asrwt>
<pdfrwt beam="1">  1        1 0.17206595E-01 0.12681497E+03</pdfrwt>
<pdfrwt beam="2">  1       -1 0.22262517E-01 0.12681497E+03</pdfrwt>
<totfact> 0.49922155E+03</totfact>
</mgrwt>
</event>
<event>
 6    1  0.1190675E-005  0.1356620E+03  0.7546771E-02  0.1232711E+00
          3   -1    0    0  501    0  0.00000000000E+00  0.00000000000E+00  0.31806444336E+03  0.31806444336E+03  0.00000000000E+00 0. -1.
         -3   -1    0    0    0  501 -0.00000000000E+00 -0.00000000000E+00 -0.66719645528E+02  0.66719645528E+02  0.00000000000E+00 0.  1.
          5    1    1    2  502    0 -0.13090435292E+02  0.67626448462E+02  0.15851530405E+03  0.17289848942E+03  0.47000000000E+01 0.  1.
         -5    1    1    2    0  502  0.53551605309E+02 -0.33840529287E+02  0.88794424533E+02  0.10917644289E+03  0.47000000000E+01 0.  1.
        -11    1    1    2    0    0 -0.45128988115E+02 -0.90576559746E+01 -0.33914578059E+02  0.57173991508E+02  0.00000000000E+00 0.  1.
         11    1    1    2    0    0  0.46678180982E+01 -0.24728263200E+02  0.37949647311E+02  0.45535165068E+02  0.00000000000E+00 0. -1.
<mgrwt>
<rscale>  0 0.12652082E+03</rscale>
<asrwt>0</asrwt>
<pdfrwt beam="1">  1        3 0.48932991E-01 0.13566195E+03</pdfrwt>
<pdfrwt beam="2">  1       -3 0.10264561E-01 0.13566195E+03</pdfrwt>
<totfact> 0.68208780E+02</totfact>
</mgrwt>
</event>
<event>
 6    1  0.1190675E-005  0.1336182E+03  0.7546771E-02  0.1237394E+00
         -1   -1    0    0    0  501 -0.00000000000E+00  0.00000000000E+00  0.49485572998E+02  0.49485572998E+02  0.00000000000E+00 0.  1.
          1   -1    0    0  501    0  0.00000000000E+00 -0.00000000000E+00 -0.27014436538E+03  0.27014436538E+03  0.00000000000E+00 0. -1.
          5    1    1    2  502    0 -0.77332006550E+02  0.37699163870E+02 -0.11216743461E+03  0.14143934948E+03  0.47000000000E+01 0. -1.
         -5    1    1    2    0  502  0.33364743684E+02 -0.20492651519E+02 -0.12670155622E+02  0.41421947454E+02  0.47000000000E+01 0. -1.
        -11    1    1    2    0    0  0.24554109550E+02  0.25449815487E+00  0.10924543748E+02  0.26875913403E+02  0.00000000000E+00 0.  1.
         11    1    1    2    0    0  0.19413153316E+02 -0.17461010505E+02 -0.10674574590E+03  0.10989272805E+03  0.00000000000E+00 0. -1.
<mgrwt>
<rscale>  0 0.12352403E+03</rscale>
<asrwt>0</asrwt>
<pdfrwt beam="2">  1        1 0.41560672E-01 0.13361822E+03</pdfrwt>
<pdfrwt beam="1">  1       -1 0.76131650E-02 0.13361822E+03</pdfrwt>
<totfact> 0.87990429E+03</totfact>
</mgrwt>
</event>
<event>
 6    1  0.1190675E-005  0.2333076E+03  0.7546771E-02  0.1127332E+00
         -1   -1    0    0    0  501 -0.00000000000E+00  0.00000000000E+00  0.11536459069E+03  0.11536459069E+03  0.00000000000E+00 0.  1.
          1   -1    0    0  501    0  0.00000000000E+00 -0.00000000000E+00 -0.44000279505E+03  0.44000279505E+03  0.00000000000E+00 0. -1.
          5    1    1    2  502    0  0.37492905275E+02  0.42985797452E+02 -0.68760830435E+02  0.89463056793E+02  0.47000000000E+01 0.  1.
         -5    1    1    2    0  502  0.15877276221E+03 -0.60023574787E+02 -0.84376313748E+02  0.18961295281E+03  0.47000000000E+01 0.  1.
        -11    1    1    2    0    0 -0.17196665014E+03  0.46290540436E+02 -0.13388264166E+03  0.22280014504E+03  0.00000000000E+00 0. -1.
         11    1    1    2    0    0 -0.24299017350E+02 -0.29252763102E+02 -0.37618418520E+02  0.53491231106E+02  0.00000000000E+00 0.  1.
<mgrwt>
<rscale>  0 0.22901894E+03</rscale>
<asrwt>0</asrwt>
<pdfrwt beam="2">  1        1 0.67692738E-01 0.23330760E+03</pdfrwt>
<pdfrwt beam="1">  1       -1 0.17748399E-01 0.23330760E+03</pdfrwt>
<totfact> 0.13092865E+03</totfact>
</mgrwt>
</event>
<event>
 6    1  0.1190675E-005  0.1381162E+03  0.7546771E-02  0.1228325E+00
         -1   -1    0    0    0  501 -0.00000000000E+00  0.00000000000E+00  0.26975496423E+02  0.26975496423E+02  0.00000000000E+00 0.  1.
          1   -1    0    0  501    0  0.00000000000E+00 -0.00000000000E+00 -0.67046345007E+03  0.67046345007E+03  0.00000000000E+00 0. -1.
          5    1    1    2  502    0 -0.70112131947E+02  0.35193489170E+02 -0.44419021468E+03  0.45108904835E+03  0.47000000000E+01 0. -1.
         -5    1    1    2    0  502  0.21876261820E+02 -0.31047422421E+02 -0.56057926855E+02  0.67875580539E+02  0.47000000000E+01 0.  1.
        -11    1    1    2    0    0  0.29860659102E+01 -0.43916474993E+02 -0.78796175245E+02  0.90257468381E+02  0.00000000000E+00 0.  1.
         11    1    1    2    0    0  0.45249804216E+02  0.39770408245E+02 -0.64443636862E+02  0.88216849216E+02  0.00000000000E+00 0. -1.
<mgrwt>
<rscale>  0 0.12941608E+03</rscale>
<asrwt>0</asrwt>
<pdfrwt beam="2">  1        1 0.10314822E+00 0.13811619E+03</pdfrwt>
<pdfrwt beam="1">  1       -1 0.41500767E-02 0.13811619E+03</pdfrwt>
<totfact> 0.67406336E+03</totfact>
</mgrwt>
</event>
<event>
 6    1  0.1190675E-005  0.2713812E+03  0.7546771E-02  0.1100492E+00
         -2   -1    0    0    0  501 -0.00000000000E+00  0.00000000000E+00  0.28618994757E+03  0.28618994757E+03  0.00000000000E+00 0.  1.
          2   -1    0    0  501    0  0.00000000000E+00 -0.00000000000E+00 -0.64334676536E+02  0.64334676536E+02  0.00000000000E+00 0. -1.
          5    1    1    2  502    0  0.29274332837E+02  0.84957052984E+02  0.19390149706E+02  0.92047570964E+02  0.47000000000E+01 0. -1.
         -5    1    1    2    0  502 -0.14765763550E+02 -0.34538256819E+01  0.95568224216E+02  0.96877924032E+02  0.47000000000E+01 0. -1.
        -11    1    1    2    0    0 -0.32467435454E+02 -0.30278882682E+02  0.96650683208E+02  0.10635929516E+03  0.00000000000E+00 0.  1.
         11    1    1    2    0    0  0.17958866167E+02 -0.51224344620E+02  0.10246213903E+02  0.55239833952E+02  0.00000000000E+00 0. -1.
<mgrwt>
<rscale>  0 0.27138119E+03</rscale>
<asrwt>0</asrwt>
<pdfrwt beam="2">  1        2 0.98976427E-02 0.27138119E+03</pdfrwt>
<pdfrwt beam="1">  1       -2 0.44029222E-01 0.27138119E+03</pdfrwt>
<totfact> 0.31939801E+03</totfact>
</mgrwt>
</event>
<event>
 6    1  0.1190675E-005  0.1271965E+03  0.7546771E-02  0.1246430E+00
          2   -1    0    0  501    0  0.00000000000E+00  0.00000000000E+00  0.46779804435E+02  0.46779804435E+02  0.00000000000E+00 0. -1.
         -2   -1    0    0    0  501 -0.00000000000E+00 -0.00000000000E+00 -0.26447773683E+03  0.26447773683E+03  0.00000000000E+00 0.  1.
          5    1    1    2  502    0 -0.50085944871E+02  0.20496268234E+02 -0.12176471877E+03  0.13333205025E+03  0.47000000000E+01 0.  1.
         -5    1    1    2    0  502  0.26660795595E+02 -0.18479288690E+02  0.11771192120E+02  0.34827189037E+02  0.47000000000E+01 0.  1.
        -11    1    1    2    0    0 -0.36387015847E+01 -0.41118977195E+02 -0.74256307491E+02  0.84958870267E+02  0.00000000000E+00 0. -1.
         11    1    1    2    0    0  0.27063850861E+02  0.39101997651E+02 -0.33448098254E+02  0.58139431718E+02  0.00000000000E+00 0.  1.
<mgrwt>
<rscale>  0 0.11800190E+03</rscale>
<asrwt>0</asrwt>
<pdfrwt beam="1">  1        2 0.71968931E-02 0.12719652E+03</pdfrwt>
<pdfrwt beam="2">  1       -2 0.40688882E-01 0.12719652E+03</pdfrwt>
<totfact> 0.53028810E+03</totfact>
</mgrwt>
</event>
<event>
 6    1  0.1190675E-005  0.4926666E+03  0.7546771E-02  0.1015711E+00
          1   -1    0    0  501    0  0.00000000000E+00  0.00000000000E+00  0.64510026265E+03  0.64510026265E+03  0.00000000000E+00 0. -1.
         -1   -1    0    0    0  501 -0.00000000000E+00 -0.00000000000E+00 -0.94063027515E+02  0.94063027515E+02  0.00000000000E+00 0.  1.
          5    1    1    2  502    0  0.20144211241E+03 -0.45238305660E+02  0.25970278722E+03  0.33180273754E+03  0.47000000000E+01 0. -1.
         -5    1    1    2    0  502  0.56403435807E+01  0.53117453502E+01  0.11927288271E+03  0.11961663205E+03  0.47000000000E+01 0. -1.
        -11    1    1    2    0    0 -0.24556625998E+02  0.36943640744E+02  0.55924733843E+02  0.71382325034E+02  0.00000000000E+00 0. -1.
         11    1    1    2    0    0 -0.18252582999E+03  0.29829195657E+01  0.11613683137E+03  0.21636159554E+03  0.00000000000E+00 0.  1.
<mgrwt>
<rscale>  0 0.49266656E+03</rscale>
<asrwt>0</asrwt>
<pdfrwt beam="1">  1        1 0.99246191E-01 0.49266656E+03</pdfrwt>
<pdfrwt beam="2">  1       -1 0.14471235E-01 0.49266656E+03</pdfrwt>
<totfact> 0.10802086E+03</totfact>
</mgrwt>
</event>
<event>
 6    1  0.1190675E-005  0.1435008E+03  0.7546771E-02  0.1218688E+00
          1   -1    0    0  501    0  0.00000000000E+00  0.00000000000E+00  0.19419274122E+03  0.19419274122E+03  0.00000000000E+00 0. -1.
         -1   -1    0    0    0  501 -0.00000000000E+00 -0.00000000000E+00 -0.14737167348E+03  0.14737167348E+03  0.00000000000E+00 0.  1.
          5    1    1    2  502    0 -0.12940647905E+02  0.49454601927E+02  0.10711463065E+03  0.11878068917E+03  0.47000000000E+01 0.  1.
         -5    1    1    2    0  502 -0.57363795805E+02 -0.44517971424E+02  0.26929315171E+02  0.77586937460E+02  0.47000000000E+01 0.  1.
        -11    1    1    2    0    0  0.78815002977E+02 -0.31615257687E+02 -0.79067630041E+02  0.11603025180E+03  0.00000000000E+00 0.  1.
         11    1    1    2    0    0 -0.85105592671E+01  0.26678627184E+02 -0.81552480454E+01  0.29166536273E+02  0.00000000000E+00 0. -1.
<mgrwt>
<rscale>  0 0.13609081E+03</rscale>
<asrwt>0</asrwt>
<pdfrwt beam="1">  1        1 0.29875806E-01 0.14350075E+03</pdfrwt>
<pdfrwt beam="2">  1       -1 0.22672565E-01 0.14350075E+03</pdfrwt>
<totfact> 0.24311373E+03</totfact>
</mgrwt>
</event>
<event>
 6    1  0.1190675E-005  0.1528154E+03  0.7546771E-02  0.1205103E+00
          2   -1    0    0  501    0  0.00000000000E+00  0.00000000000E+00  0.10250484073E+03  0.10250484073E+03  0.00000000000E+00 0.  1.
         -2   -1    0    0    0  501 -0.00000000000E+00 -0.00000000000E+00 -0.20129027216E+03  0.20129027216E+03  0.00000000000E+00 0. -1.
          5    1    1    2  502    0 -0.46901032910E+02  0.54129733268E+02 -0.36199579488E+02  0.80388024399E+02  0.47000000000E+01 0.  1.
         -5    1    1    2    0  502  0.65264384083E+02  0.31854906527E+02  0.13763827023E+02  0.74065564427E+02  0.47000000000E+01 0.  1.
        -11    1    1    2    0    0 -0.28674197692E+01  0.12464231881E+02  0.10961335541E+02  0.16844288331E+02  0.00000000000E+00 0.  1.
         11    1    1    2    0    0 -0.15495931403E+02 -0.98448871677E+02 -0.87311014508E+02  0.13249723574E+03  0.00000000000E+00 0. -1.
<mgrwt>
<rscale>  0 0.14629314E+03</rscale>
<asrwt>0</asrwt>
<pdfrwt beam="1">  1        2 0.15769976E-01 0.15281541E+03</pdfrwt>
<pdfrwt beam="2">  1       -2 0.30967734E-01 0.15281541E+03</pdfrwt>
<totfact> 0.34225898E+03</totfact>
</mgrwt>
</event>
<event>
 6    1  0.1190675E-005  0.2559437E+03  0.7546771E-02  0.1111905E+00
          2   -1    0    0  501    0  0.00000000000E+00  0.00000000000E+00  0.36249801598E+03  0.36249801598E+03  0.00000000000E+00 0. -1.
         -2   -1    0    0    0  501 -0.00000000000E+00 -0.00000000000E+00 -0.18765286802E+03  0.18765286802E+03  0.00000000000E+00 0.  1.
          5    1    1    2  502    0  0.99856763788E+02  0.11619894356E+03  0.53062275863E+02  0.16220746862E+03  0.47000000000E+01 0. -1.
         -5    1    1    2    0  502  0.83829179351E+02  0.10844396598E+02  0.11960186467E+03  0.14653200429E+03  0.47000000000E+01 0. -1.
        -11    1    1    2    0    0  0.81699597389E+01 -0.19856644545E+02 -0.23302553341E+01  0.21597793050E+02  0.00000000000E+00 0.  1.
         11    1    1    2    0    0 -0.19185590288E+03 -0.10718669561E+03  0.45112627653E+01  0.21981361804E+03  0.00000000000E+00 0. -1.
<mgrwt>
<rscale>  0 0.25222800E+03</rscale>
<asrwt>0</asrwt>
<pdfrwt beam="1">  1        2 0.55768925E-01 0.25594366E+03</pdfrwt>
<pdfrwt beam="2">  1       -2 0.28869672E-01 0.25594366E+03</pdfrwt>
<totfact> 0.97658667E+02</totfact>
</mgrwt>
</event>
<event>
 6    1  0.1190675E-005  0.1771529E+03  0.7546771E-02  0.1176383E+00
         -2   -1    0    0    0  501 -0.00000000000E+00  0.00000000000E+00  0.34570295602E+02  0.34570295602E+02  0.00000000000E+00 0.  1.
          2   -1    0    0  501    0  0.00000000000E+00 -0.00000000000E+00 -0.80696721864E+03  0.80696721864E+03  0.00000000000E+00 0. -1.
          5    1    1    2  502    0 -0.72080333257E+02 -0.63198577647E+02 -0.13026530114E+03  0.16180473831E+03  0.47000000000E+01 0. -1.
         -5    1    1    2    0  502 -0.34577636771E+02 -0.29912875597E+01 -0.32230706487E+03  0.32420440285E+03  0.47000000000E+01 0. -1.
        -11    1    1    2    0    0  0.65109467900E+00 -0.14576317590E+02 -0.85180373653E+01  0.16895263222E+02  0.00000000000E+00 0.  1.
         11    1    1    2    0    0  0.10600687535E+03  0.80766182796E+02 -0.31130651967E+03  0.33863310986E+03  0.00000000000E+00 0. -1.
<mgrwt>
<rscale>  0 0.17141224E+03</rscale>
<asrwt>0</asrwt>
<pdfrwt beam="2">  1        2 0.12414880E+00 0.17715287E+03</pdfrwt>
<pdfrwt beam="1">  1       -2 0.53185071E-02 0.17715287E+03</pdfrwt>
<totfact> 0.61263410E+03</totfact>
</mgrwt>
</event>
<event>
 6    1  0.1190675E-005  0.1463181E+03  0.7546771E-02  0.1212865E+00
         -2   -1    0    0    0  501 -0.00000000000E+00  0.00000000000E+00  0.54053297370E+03  0.54053297370E+03  0.00000000000E+00 0.  1.
          2   -1    0    0  501    0  0.00000000000E+00 -0.00000000000E+00 -0.39604675574E+02  0.39604675574E+02  0.00000000000E+00 0. -1.
          5    1    1    2  502    0 -0.66448579115E+02 -0.72186733088E+02  0.89146696248E+02  0.13264826253E+03  0.47000000000E+01 0. -1.
         -5    1    1    2    0  502 -0.47940882314E+01  0.45465581831E+02  0.67958847029E+02  0.82040217593E+02  0.47000000000E+01 0. -1.
        -11    1    1    2    0    0  0.15394276159E+02  0.34743920056E+02  0.35490461729E+02  0.51997082544E+02  0.00000000000E+00 0. -1.
         11    1    1    2    0    0  0.55848391188E+02 -0.80227687988E+01  0.30833229312E+03  0.31345208661E+03  0.00000000000E+00 0.  1.
<mgrwt>
<rscale>  0 0.14034542E+03</rscale>
<asrwt>0</asrwt>
<pdfrwt beam="2">  1        2 0.60930274E-02 0.14631812E+03</pdfrwt>
<pdfrwt beam="1">  1       -2 0.83158914E-01 0.14631812E+03</pdfrwt>
<totfact> 0.15345347E+03</totfact>
</mgrwt>
</event>
<event>
 6    1  0.1190675E-005  0.1641242E+03  0.7546771E-02  0.1191552E+00
         -2   -1    0    0    0  501 -0.00000000000E+00  0.00000000000E+00  0.15321428786E+03  0.15321428786E+03  0.00000000000E+00 0.  1.
          2   -1    0    0  501    0  0.00000000000E+00 -0.00000000000E+00 -0.16315155343E+03  0.16315155343E+03  0.00000000000E+00 0. -1.
          5    1    1    2  502    0  0.36310452685E+02 -0.66484916240E+01  0.28614632555E+02  0.46941864165E+02  0.47000000000E+01 0. -1.
         -5    1    1    2    0  502 -0.91286216908E+01 -0.96187570775E+02 -0.78552976212E+02  0.12461155876E+03  0.47000000000E+01 0. -1.
        -11    1    1    2    0    0 -0.43187686826E+02  0.98448102961E+01  0.18689663731E+02  0.48077022719E+02  0.00000000000E+00 0.  1.
         11    1    1    2    0    0  0.16005855832E+02  0.92991252103E+02  0.21311414359E+02  0.96735395645E+02  0.00000000000E+00 0. -1.
<mgrwt>
<rscale>  0 0.15749694E+03</rscale>
<asrwt>0</asrwt>
<pdfrwt beam="2">  1        2 0.25100239E-01 0.16412416E+03</pdfrwt>
<pdfrwt beam="1">  1       -2 0.23571429E-01 0.16412416E+03</pdfrwt>
<totfact> 0.32864440E+03</totfact>
</mgrwt>
</event>
<event>
 6    1  0.1190675E-005  0.1565185E+03  0.7546771E-02  0.1200592E+00
         -2   -1    0    0    0  501 -0.00000000000E+00  0.00000000000E+00  0.19009996341E+02  0.19009996341E+02  0.00000000000E+00 0.  1.
          2   -1    0    0  501    0  0.00000000000E+00 -0.00000000000E+00 -0.11514654190E+04  0.11514654190E+04  0.00000000000E+00 0. -1.
          5    1    1    2  502    0 -0.13082803276E+02 -0.37258212473E+02 -0.66404275366E+02  0.77401239816E+02  0.47000000000E+01 0.  1.
         -5    1    1    2    0  502 -0.80457962157E+02  0.26217441094E+02 -0.67823885904E+03  0.68351362664E+03  0.47000000000E+01 0.  1.
        -11    1    1    2    0    0  0.28511865747E+02  0.22928946696E+02 -0.35082970622E+02  0.50690017880E+02  0.00000000000E+00 0.  1.
         11    1    1    2    0    0  0.65028899686E+02 -0.11888175317E+02 -0.35272931763E+03  0.35887053100E+03  0.00000000000E+00 0. -1.
<mgrwt>
<rscale>  0 0.14990288E+03</rscale>
<asrwt>0</asrwt>
<pdfrwt beam="2">  1        2 0.17714860E+00 0.15651849E+03</pdfrwt>
<pdfrwt beam="1">  1       -2 0.29246137E-02 0.15651849E+03</pdfrwt>
<totfact> 0.91508190E+03</totfact>
</mgrwt>
</event>
<event>
 6    1  0.1190675E-005  0.2653812E+03  0.7546771E-02  0.1106532E+00
         -3   -1    0    0    0  501 -0.00000000000E+00  0.00000000000E+00  0.10903503317E+03  0.10903503317E+03  0.00000000000E+00 0.  1.
          3   -1    0    0  501    0  0.00000000000E+00 -0.00000000000E+00 -0.65066271396E+03  0.65066271396E+03  0.00000000000E+00 0. -1.
          5    1    1    2  502    0  0.44505743592E+02  0.15695724093E+03 -0.17860919176E+03  0.24194972634E+03  0.47000000000E+01 0.  1.
         -5    1    1    2    0  502 -0.18373692465E+02  0.75674039084E+02 -0.13625482613E+00  0.78014494368E+02  0.47000000000E+01 0.  1.
        -11    1    1    2    0    0  0.27686574835E+02 -0.12487425707E+03 -0.18585038547E+03  0.22561137446E+03  0.00000000000E+00 0.  1.
         11    1    1    2    0    0 -0.53818625962E+02 -0.10775702295E+03 -0.17703184873E+03  0.21412215196E+03  0.00000000000E+00 0. -1.
<mgrwt>
<rscale>  0 0.26101919E+03</rscale>
<asrwt>0</asrwt>
<pdfrwt beam="2">  1        3 0.10010196E+00 0.26538117E+03</pdfrwt>
<pdfrwt beam="1">  1       -3 0.16774620E-01 0.26538117E+03</pdfrwt>
<totfact> 0.69020458E+01</totfact>
</mgrwt>
</event>
<event>
 6    1  0.1190675E-005  0.1888125E+03  0.7546771E-02  0.1165134E+00
          1   -1    0    0  501    0  0.00000000000E+00  0.00000000000E+00  0.18758613906E+03  0.18758613906E+03  0.00000000000E+00 0. -1.
         -1   -1    0    0    0  501 -0.00000000000E+00 -0.00000000000E+00 -0.20205113556E+03  0.20205113556E+03  0.00000000000E+00 0.  1.
          5    1    1    2  502    0  0.11722308200E+03 -0.22847074005E+02  0.97198505861E+02  0.15405479313E+03  0.47000000000E+01 0. -1.
         -5    1    1    2    0  502  0.23875170614E+02  0.33676991687E+02 -0.24541385374E+02  0.48254876821E+02  0.47000000000E+01 0. -1.
        -11    1    1    2    0    0 -0.10782246106E+02 -0.13775759925E+02 -0.48222825872E+02  0.51297849153E+02  0.00000000000E+00 0.  1.
         11    1    1    2    0    0 -0.13031600651E+03  0.29458422430E+01 -0.38899291115E+02  0.13602975552E+03  0.00000000000E+00 0. -1.
<mgrwt>
<rscale>  0 0.18278573E+03</rscale>
<asrwt>0</asrwt>
<pdfrwt beam="1">  1        1 0.28859406E-01 0.18881246E+03</pdfrwt>
<pdfrwt beam="2">  1       -1 0.31084790E-01 0.18881246E+03</pdfrwt>
<totfact> 0.15157424E+03</totfact>
</mgrwt>
</event>
<event>
 6    1  0.1190675E-005  0.2814455E+03  0.7546771E-02  0.1094902E+00
          4   -1    0    0  501    0  0.00000000000E+00  0.00000000000E+00  0.88952929120E+02  0.88952929120E+02  0.00000000000E+00 0. -1.
         -4   -1    0    0    0  501 -0.00000000000E+00 -0.00000000000E+00 -0.22262216265E+03  0.22262216265E+03  0.00000000000E+00 0.  1.
          5    1    1    2  502    0 -0.24133108746E+02  0.39015241667E+01  0.43181320667E+02  0.49843206991E+02  0.47000000000E+01 0. -1.
         -5    1    1    2    0  502  0.38033689901E+02  0.17321890498E+02 -0.57400805829E+02  0.71158639445E+02  0.47000000000E+01 0.  1.
        -11    1    1    2    0    0  0.54561329283E+02 -0.43849967214E+02 -0.86562952384E+02  0.11132341624E+03  0.00000000000E+00 0.  1.
         11    1    1    2    0    0 -0.68461910438E+02  0.22626552549E+02 -0.32886795982E+02  0.79249829092E+02  0.00000000000E+00 0. -1.
<mgrwt>
<rscale>  0 0.28144551E+03</rscale>
<asrwt>0</asrwt>
<pdfrwt beam="1">  1        4 0.13685066E-01 0.28144551E+03</pdfrwt>
<pdfrwt beam="2">  1       -4 0.34249563E-01 0.28144551E+03</pdfrwt>
<totfact> 0.68626754E+02</totfact>
</mgrwt>
</event>
<event>
 6    1  0.1190675E-005  0.1645027E+03  0.7546771E-02  0.1188026E+00
          1   -1    0    0  501    0  0.00000000000E+00  0.00000000000E+00  0.28320791898E+03  0.28320791898E+03  0.00000000000E+00 0. -1.
         -1   -1    0    0    0  501 -0.00000000000E+00 -0.00000000000E+00 -0.10167592041E+03  0.10167592041E+03  0.00000000000E+00 0.  1.
          5    1    1    2  502    0 -0.23529352049E+02 -0.12843304842E+03  0.10248142727E+03  0.16605183308E+03  0.47000000000E+01 0. -1.
         -5    1    1    2    0  502 -0.13383322558E+02  0.17088539690E+02  0.65071128979E+02  0.68756623957E+02  0.47000000000E+01 0.  1.
        -11    1    1    2    0    0  0.39435178404E+02  0.12475254831E+03  0.41663813421E+00  0.13083770555E+03  0.00000000000E+00 0.  1.
         11    1    1    2    0    0 -0.25225037974E+01 -0.13408039588E+02  0.13562804187E+02  0.19237676793E+02  0.00000000000E+00 0. -1.
<mgrwt>
<rscale>  0 0.16059578E+03</rscale>
<asrwt>0</asrwt>
<pdfrwt beam="1">  1        1 0.43570449E-01 0.16450274E+03</pdfrwt>
<pdfrwt beam="2">  1       -1 0.15642449E-01 0.16450274E+03</pdfrwt>
<totfact> 0.27719798E+03</totfact>
</mgrwt>
</event>
<event>
 6    1  0.1190675E-005  0.2659778E+03  0.7546771E-02  0.1103604E+00
          2   -1    0    0  501    0  0.00000000000E+00  0.00000000000E+00  0.12845405536E+04  0.12845405536E+04  0.00000000000E+00 0. -1.
         -2   -1    0    0    0  501 -0.00000000000E+00 -0.00000000000E+00 -0.13768380092E+02  0.13768380092E+02  0.00000000000E+00 0.  1.
          5    1    1    2  502    0  0.35722005951E+02 -0.50959376943E+02  0.85346539480E+03  0.85574423161E+03  0.47000000000E+01 0. -1.
         -5    1    1    2    0  502 -0.12612589757E+02 -0.11026542870E+02  0.97243140913E+01  0.19932745737E+02  0.47000000000E+01 0.  1.
        -11    1    1    2    0    0  0.21708341170E+02  0.57533675540E+02  0.16909821680E+03  0.17993216172E+03  0.00000000000E+00 0.  1.
         11    1    1    2    0    0 -0.44817757363E+02  0.44522442734E+01  0.23848424780E+03  0.24269979461E+03  0.00000000000E+00 0. -1.
<mgrwt>
<rscale>  0 0.26597776E+03</rscale>
<asrwt>0</asrwt>
<pdfrwt beam="1">  1        2 0.19762153E+00 0.26597776E+03</pdfrwt>
<pdfrwt beam="2">  1       -2 0.21182133E-02 0.26597776E+03</pdfrwt>
<totfact> 0.12686532E+04</totfact>
</mgrwt>
</event>
<event>
 6    1  0.1190675E-005  0.1920301E+03  0.7546771E-02  0.1161225E+00
          1   -1    0    0  501    0  0.00000000000E+00  0.00000000000E+00  0.92907786548E+03  0.92907786548E+03  0.00000000000E+00 0. -1.
         -1   -1    0    0    0  501 -0.00000000000E+00 -0.00000000000E+00 -0.36829718347E+02  0.36829718347E+02  0.00000000000E+00 0.  1.
          5    1    1    2  502    0 -0.10892275079E+02 -0.14053216244E+03  0.30949600970E+03  0.34011439305E+03  0.47000000000E+01 0.  1.
         -5    1    1    2    0  502  0.29562605913E+02 -0.40520282459E+01  0.24157777543E+03  0.24345898666E+03  0.47000000000E+01 0.  1.
        -11    1    1    2    0    0  0.12902337322E+02 -0.61847167603E+01  0.11180366231E+02  0.18158238319E+02  0.00000000000E+00 0.  1.
         11    1    1    2    0    0 -0.31572668156E+02  0.15076890745E+03  0.32999399576E+03  0.36417596580E+03  0.00000000000E+00 0. -1.
<mgrwt>
<rscale>  0 0.18696775E+03</rscale>
<asrwt>0</asrwt>
<pdfrwt beam="1">  1        1 0.14293504E+00 0.19203014E+03</pdfrwt>
<pdfrwt beam="2">  1       -1 0.56661112E-02 0.19203014E+03</pdfrwt>
<totfact> 0.26227337E+03</totfact>
</mgrwt>
</event>
<event>
 6    1  0.1190675E-005  0.1469378E+03  0.7546771E-02  0.1214836E+00
          2   -1    0    0  501    0  0.00000000000E+00  0.00000000000E+00  0.40900971885E+03  0.40900971885E+03  0.00000000000E+00 0. -1.
         -2   -1    0    0    0  501 -0.00000000000E+00 -0.00000000000E+00 -0.42675229519E+02  0.42675229519E+02  0.00000000000E+00 0.  1.
          5    1    1    2  502    0 -0.61392832330E+02  0.20103439019E+02  0.14929107132E+03  0.16273641909E+03  0.47000000000E+01 0.  1.
         -5    1    1    2    0  502  0.16169445151E+01 -0.69030845349E+02  0.52426242593E+02  0.86824380398E+02  0.47000000000E+01 0.  1.
        -11    1    1    2    0    0  0.27431068462E+02  0.21263660589E+02  0.28190793928E+01  0.34821745896E+02  0.00000000000E+00 0.  1.
         11    1    1    2    0    0  0.32344819353E+02  0.27663745741E+02  0.16179809603E+03  0.16730240299E+03  0.00000000000E+00 0. -1.
<mgrwt>
<rscale>  0 0.13888621E+03</rscale>
<asrwt>0</asrwt>
<pdfrwt beam="1">  1        2 0.62924570E-01 0.14693780E+03</pdfrwt>
<pdfrwt beam="2">  1       -2 0.65654202E-02 0.14693780E+03</pdfrwt>
<totfact> 0.95838201E+03</totfact>
</mgrwt>
</event>
<event>
 6    1  0.1190675E-005  0.1477049E+03  0.7546771E-02  0.1213241E+00
         -2   -1    0    0    0  501 -0.00000000000E+00  0.00000000000E+00  0.18596878634E+03  0.18596878634E+03  0.00000000000E+00 0.  1.
          2   -1    0    0  501    0  0.00000000000E+00 -0.00000000000E+00 -0.98560336949E+02  0.98560336949E+02  0.00000000000E+00 0. -1.
          5    1    1    2  502    0 -0.89353932137E+02 -0.39897715412E+02 -0.70823102144E+01  0.98225261523E+02  0.47000000000E+01 0.  1.
         -5    1    1    2    0  502  0.10681350549E+02  0.38591593646E+02  0.32205110273E+02  0.51600983299E+02  0.47000000000E+01 0.  1.
        -11    1    1    2    0    0  0.58266029555E+02 -0.17696618880E+02  0.80840693424E+02  0.10120927938E+03  0.00000000000E+00 0.  1.
         11    1    1    2    0    0  0.20406552033E+02  0.19002740645E+02 -0.18555044096E+02  0.33493599080E+02  0.00000000000E+00 0. -1.
<mgrwt>
<rscale>  0 0.14006564E+03</rscale>
<asrwt>0</asrwt>
<pdfrwt beam="2">  1        2 0.15163129E-01 0.14770494E+03</pdfrwt>
<pdfrwt beam="1">  1       -2 0.28610582E-01 0.14770494E+03</pdfrwt>
<totfact> 0.41239175E+03</totfact>
</mgrwt>
</event>
<event>
 6    1  0.1190675E-005  0.1684996E+03  0.7546771E-02  0.1187279E+00
          1   -1    0    0  501    0  0.00000000000E+00  0.00000000000E+00  0.16759646436E+03  0.16759646436E+03  0.00000000000E+00 0. -1.
         -1   -1    0    0    0  501 -0.00000000000E+00 -0.00000000000E+00 -0.22057313256E+03  0.22057313256E+03  0.00000000000E+00 0.  1.
          5    1    1    2  502    0 -0.28638136307E+01  0.12103377256E+03  0.85150988298E+02  0.14808833964E+03  0.47000000000E+01 0. -1.
         -5    1    1    2    0  502  0.36772056877E+02 -0.18338175851E+02  0.15005094770E+01  0.41386161808E+02  0.47000000000E+01 0.  1.
        -11    1    1    2    0    0 -0.32826444731E+02  0.42389561649E+01 -0.45259364677E+02  0.56070975683E+02  0.00000000000E+00 0. -1.
         11    1    1    2    0    0 -0.10817985149E+01 -0.10693455287E+03 -0.94368801299E+02  0.14262411979E+03  0.00000000000E+00 0.  1.
<mgrwt>
<rscale>  0 0.16126259E+03</rscale>
<asrwt>0</asrwt>
<pdfrwt beam="1">  1        1 0.25784072E-01 0.16849957E+03</pdfrwt>
<pdfrwt beam="2">  1       -1 0.33934328E-01 0.16849957E+03</pdfrwt>
<totfact> 0.14991857E+03</totfact>
</mgrwt>
</event>
<event>
 6    1  0.1190675E-005  0.1707491E+03  0.7546771E-02  0.1184056E+00
          2   -1    0    0  501    0  0.00000000000E+00  0.00000000000E+00  0.15216246380E+03  0.15216246380E+03  0.00000000000E+00 0.  1.
         -2   -1    0    0    0  501 -0.00000000000E+00 -0.00000000000E+00 -0.18261565210E+03  0.18261565210E+03  0.00000000000E+00 0. -1.
          5    1    1    2  502    0  0.93975433907E+01 -0.58753770889E+02 -0.31148622217E+02  0.67324929124E+02  0.47000000000E+01 0.  1.
         -5    1    1    2    0  502 -0.74522799814E+02 -0.37628524839E+02  0.66999109739E+02  0.10714720845E+03  0.47000000000E+01 0.  1.
        -11    1    1    2    0    0  0.99707369952E+01  0.21242449127E+02  0.21812957167E+02  0.32038450985E+02  0.00000000000E+00 0.  1.
         11    1    1    2    0    0  0.55154519428E+02  0.75139846601E+02 -0.88116632988E+02  0.12826752734E+03  0.00000000000E+00 0. -1.
<mgrwt>
<rscale>  0 0.16418029E+03</rscale>
<asrwt>0</asrwt>
<pdfrwt beam="1">  1        2 0.23409610E-01 0.17074914E+03</pdfrwt>
<pdfrwt beam="2">  1       -2 0.28094715E-01 0.17074914E+03</pdfrwt>
<totfact> 0.26114412E+03</totfact>
</mgrwt>
</event>
<event>
 6    1  0.1190675E-005  0.1313283E+03  0.7546771E-02  0.1240553E+00
         -3   -1    0    0    0  501 -0.00000000000E+00  0.00000000000E+00  0.15447518011E+03  0.15447518011E+03  0.00000000000E+00 0.  1.
          3   -1    0    0  501    0  0.00000000000E+00 -0.00000000000E+00 -0.84276788295E+02  0.84276788295E+02  0.00000000000E+00 0. -1.
          5    1    1    2  502    0 -0.25873624933E+02  0.57466662808E+02  0.76404862071E+02  0.99154701097E+02  0.47000000000E+01 0. -1.
         -5    1    1    2    0  502 -0.24835199533E+01 -0.28805711901E+02 -0.28277732142E+02  0.40714334633E+02  0.47000000000E+01 0. -1.
        -11    1    1    2    0    0 -0.21600567779E+02 -0.98787508842E+01  0.36542972119E+02  0.43583977086E+02  0.00000000000E+00 0.  1.
         11    1    1    2    0    0  0.49957712665E+02 -0.18782200023E+02 -0.14471710231E+02  0.55298955591E+02  0.00000000000E+00 0. -1.
<mgrwt>
<rscale>  0 0.12155555E+03</rscale>
<asrwt>0</asrwt>
<pdfrwt beam="2">  1        3 0.12965660E-01 0.13132832E+03</pdfrwt>
<pdfrwt beam="1">  1       -3 0.23765412E-01 0.13132832E+03</pdfrwt>
<totfact> 0.17906435E+03</totfact>
</mgrwt>
</event>
<event>
 6    1  0.1190675E-005  0.2758834E+03  0.7546771E-02  0.1105733E+00
         -1   -1    0    0    0  501 -0.00000000000E+00  0.00000000000E+00  0.75751324341E+03  0.75751324341E+03  0.00000000000E+00 0.  1.
          1   -1    0    0  501    0  0.00000000000E+00 -0.00000000000E+00 -0.84728675117E+02  0.84728675117E+02  0.00000000000E+00 0. -1.
          5    1    1    2  502    0  0.10281840284E+03 -0.12965858302E+03  0.11477523777E+03  0.20144085315E+03  0.47000000000E+01 0. -1.
         -5    1    1    2    0  502  0.83191381304E+02  0.23717305876E+02  0.19497985198E+03  0.21336013967E+03  0.47000000000E+01 0.  1.
        -11    1    1    2    0    0 -0.11111813712E+03  0.31532244158E+02  0.14660515597E+03  0.18664028122E+03  0.00000000000E+00 0.  1.
         11    1    1    2    0    0 -0.74891647026E+02  0.74409032984E+02  0.21642432257E+03  0.24080064448E+03  0.00000000000E+00 0. -1.
<mgrwt>
<rscale>  0 0.26236159E+03</rscale>
<asrwt>0</asrwt>
<pdfrwt beam="2">  1        1 0.13035181E-01 0.27588340E+03</pdfrwt>
<pdfrwt beam="1">  1       -1 0.11654049E+00 0.27588340E+03</pdfrwt>
<totfact> 0.31902119E+02</totfact>
</mgrwt>
</event>
<event>
 6    1  0.1190675E-005  0.1598084E+03  0.7546771E-02  0.1196930E+00
         -2   -1    0    0    0  501 -0.00000000000E+00  0.00000000000E+00  0.62304174551E+02  0.62304174551E+02  0.00000000000E+00 0.  1.
          2   -1    0    0  501    0  0.00000000000E+00 -0.00000000000E+00 -0.41850851247E+03  0.41850851247E+03  0.00000000000E+00 0. -1.
          5    1    1    2  502    0 -0.17248757456E+02 -0.25602221103E+02 -0.53452624071E+02  0.61905301706E+02  0.47000000000E+01 0.  1.
         -5    1    1    2    0  502  0.10133365929E+03  0.78924011982E+02 -0.23711317974E+03  0.26970773103E+03  0.47000000000E+01 0.  1.
        -11    1    1    2    0    0  0.11276298880E+02  0.18446646391E+01 -0.32048085885E+02  0.34024072551E+02  0.00000000000E+00 0. -1.
         11    1    1    2    0    0 -0.95361200712E+02 -0.55166455518E+02 -0.33590448225E+02  0.11517558173E+03  0.00000000000E+00 0.  1.
<mgrwt>
<rscale>  0 0.15291994E+03</rscale>
<asrwt>0</asrwt>
<pdfrwt beam="2">  1        2 0.64385926E-01 0.15980838E+03</pdfrwt>
<pdfrwt beam="1">  1       -2 0.95852575E-02 0.15980838E+03</pdfrwt>
<totfact> 0.52302639E+03</totfact>
</mgrwt>
</event>
<event>
 6    1  0.1190675E-005  0.2992381E+03  0.7546771E-02  0.1085622E+00
         -3   -1    0    0    0  501 -0.00000000000E+00  0.00000000000E+00  0.14705439117E+03  0.14705439117E+03  0.00000000000E+00 0.  1.
          3   -1    0    0  501    0  0.00000000000E+00 -0.00000000000E+00 -0.15222843950E+03  0.15222843950E+03  0.00000000000E+00 0. -1.
          5    1    1    2  502    0  0.14560354653E+02 -0.17598184968E+02  0.28475843281E+02  0.36805756240E+02  0.47000000000E+01 0. -1.
         -5    1    1    2    0  502 -0.11596131471E+03  0.36472810460E+02 -0.29860838489E+02  0.12526392971E+03  0.47000000000E+01 0. -1.
        -11    1    1    2    0    0  0.33262331965E+02  0.26109869708E+02  0.26754035977E+02  0.50038849557E+02  0.00000000000E+00 0.  1.
         11    1    1    2    0    0  0.68138628087E+02 -0.44984495200E+02 -0.30543089098E+02  0.87174295166E+02  0.00000000000E+00 0. -1.
<mgrwt>
<rscale>  0 0.29923810E+03</rscale>
<asrwt>0</asrwt>
<pdfrwt beam="2">  1        3 0.23419760E-01 0.29923810E+03</pdfrwt>
<pdfrwt beam="1">  1       -3 0.22623752E-01 0.29923810E+03</pdfrwt>
<totfact> 0.78039106E+02</totfact>
</mgrwt>
</event>
<event>
 6    1  0.1190675E-005  0.2857301E+03  0.7546771E-02  0.1092600E+00
          1   -1    0    0  501    0  0.00000000000E+00  0.00000000000E+00  0.64649770295E+02  0.64649770295E+02  0.00000000000E+00 0. -1.
         -1   -1    0    0    0  501 -0.00000000000E+00 -0.00000000000E+00 -0.31570763630E+03  0.31570763630E+03  0.00000000000E+00 0.  1.
          5    1    1    2  502    0  0.23426793116E+02  0.74326223519E+02 -0.15794185943E+03  0.17618434408E+03  0.47000000000E+01 0.  1.
         -5    1    1    2    0  502 -0.68639583197E+01  0.17301509566E+02  0.23017640401E+02  0.29972619617E+02  0.47000000000E+01 0.  1.
        -11    1    1    2    0    0  0.25666685865E+02 -0.58725702607E+02 -0.99107009749E+02  0.11802409200E+03  0.00000000000E+00 0.  1.
         11    1    1    2    0    0 -0.42229520662E+02 -0.32902030479E+02 -0.17026637218E+02  0.56176350895E+02  0.00000000000E+00 0. -1.
<mgrwt>
<rscale>  0 0.28573013E+03</rscale>
<asrwt>0</asrwt>
<pdfrwt beam="1">  1        1 0.99461187E-02 0.28573013E+03</pdfrwt>
<pdfrwt beam="2">  1       -1 0.48570404E-01 0.28573013E+03</pdfrwt>
<totfact> 0.27961489E+03</totfact>
</mgrwt>
</event>
<event>
 6    1  0.1190675E-005  0.1295736E+03  0.7546771E-02  0.1242281E+00
         -2   -1    0    0    0  501 -0.00000000000E+00  0.00000000000E+00  0.13538759537E+03  0.13538759537E+03  0.00000000000E+00 0. -1.
          2   -1    0    0  501    0  0.00000000000E+00 -0.00000000000E+00 -0.12697863163E+03  0.12697863163E+03  0.00000000000E+00 0.  1.
          5    1    1    2  502    0  0.37405268308E+02 -0.39547820963E+02 -0.67737062001E+02  0.87026339740E+02  0.47000000000E+01 0.  1.
         -5    1    1    2    0  502 -0.70330614758E+01  0.55112235566E+02  0.67823118918E+01  0.56168605264E+02  0.47000000000E+01 0.  1.
        -11    1    1    2    0    0 -0.38582359302E+02  0.29911405735E+00 -0.83116239831E+01  0.39468607928E+02  0.00000000000E+00 0.  1.
         11    1    1    2    0    0  0.82101524699E+01 -0.15863528660E+02  0.77675337832E+02  0.79702674061E+02  0.00000000000E+00 0. -1.
<mgrwt>
<rscale>  0 0.12049617E+03</rscale>
<asrwt>0</asrwt>
<pdfrwt beam="2">  1        2 0.19535174E-01 0.12957357E+03</pdfrwt>
<pdfrwt beam="1">  1       -2 0.20828861E-01 0.12957357E+03</pdfrwt>
<totfact> 0.53095496E+03</totfact>
</mgrwt>
</event>
<event>
 6    1  0.1190675E-005  0.1250845E+03  0.7546771E-02  0.1249724E+00
         -2   -1    0    0    0  501 -0.00000000000E+00  0.00000000000E+00  0.10926091913E+03  0.10926091913E+03  0.00000000000E+00 0.  1.
          2   -1    0    0  501    0  0.00000000000E+00 -0.00000000000E+00 -0.18893152048E+03  0.18893152048E+03  0.00000000000E+00 0. -1.
          5    1    1    2  502    0  0.13425729385E+02  0.62491890113E+02 -0.76574923768E+02  0.99856374306E+02  0.47000000000E+01 0.  1.
         -5    1    1    2    0  502 -0.10046130838E+02 -0.59808739564E+02 -0.63282266800E+02  0.87776678933E+02  0.47000000000E+01 0.  1.
        -11    1    1    2    0    0 -0.39257158874E+02  0.24997471542E+02  0.22863239365E+02  0.51852924899E+02  0.00000000000E+00 0. -1.
         11    1    1    2    0    0  0.35877560328E+02 -0.27680622091E+02  0.37323349855E+02  0.58706461475E+02  0.00000000000E+00 0.  1.
<mgrwt>
<rscale>  0 0.11607025E+03</rscale>
<asrwt>0</asrwt>
<pdfrwt beam="2">  1        2 0.29066387E-01 0.12508449E+03</pdfrwt>
<pdfrwt beam="1">  1       -2 0.16809372E-01 0.12508449E+03</pdfrwt>
<totfact> 0.48865739E+03</totfact>
</mgrwt>
</event>
<event>
 6    1  0.1190675E-005  0.1467206E+03  0.7546771E-02  0.1215913E+00
         -3   -1    0    0    0  501 -0.00000000000E+00  0.00000000000E+00  0.24328286206E+02  0.24328286206E+02  0.00000000000E+00 0.  1.
          3   -1    0    0  501    0  0.00000000000E+00 -0.00000000000E+00 -0.94745232595E+03  0.94745232595E+03  0.00000000000E+00 0. -1.
          5    1    1    2  502    0 -0.20192149683E+02 -0.37932087327E+02 -0.40868988628E+03  0.41096968173E+03  0.47000000000E+01 0. -1.
         -5    1    1    2    0  502  0.90516104905E+02  0.70182419115E+01 -0.33887472899E+03  0.35085694081E+03  0.47000000000E+01 0. -1.
        -11    1    1    2    0    0 -0.20457106915E+02 -0.23348205224E+02 -0.17686599304E+02  0.35727408323E+02  0.00000000000E+00 0.  1.
         11    1    1    2    0    0 -0.49866848306E+02  0.54262050640E+02 -0.15787282517E+03  0.17422658128E+03  0.00000000000E+00 0. -1.
<mgrwt>
<rscale>  0 0.13809711E+03</rscale>
<asrwt>0</asrwt>
<pdfrwt beam="2">  1        3 0.14576187E+00 0.14672065E+03</pdfrwt>
<pdfrwt beam="1">  1       -3 0.37428139E-02 0.14672065E+03</pdfrwt>
<totfact> 0.31386116E+02</totfact>
</mgrwt>
</event>
<event>
 6    1  0.1190675E-005  0.1560812E+03  0.7546771E-02  0.1200649E+00
         -2   -1    0    0    0  501 -0.00000000000E+00  0.00000000000E+00  0.39061582456E+03  0.39061582456E+03  0.00000000000E+00 0.  1.
          2   -1    0    0  501    0  0.00000000000E+00 -0.00000000000E+00 -0.57163686258E+02  0.57163686258E+02  0.00000000000E+00 0. -1.
          5    1    1    2  502    0 -0.44358868306E+02 -0.69158151477E+02  0.10861005926E+03  0.13626736251E+03  0.47000000000E+01 0.  1.
         -5    1    1    2    0  502  0.55196039375E+02 -0.23690221523E+02  0.13094998197E+02  0.61655480991E+02  0.47000000000E+01 0.  1.
        -11    1    1    2    0    0 -0.81410944151E+00  0.10304758756E+03  0.21181940284E+03  0.23555663331E+03  0.00000000000E+00 0.  1.
         11    1    1    2    0    0 -0.10023061628E+02 -0.10199214557E+02 -0.72322002505E-01  0.14300034001E+02  0.00000000000E+00 0. -1.
<mgrwt>
<rscale>  0 0.14985658E+03</rscale>
<asrwt>0</asrwt>
<pdfrwt beam="2">  1        2 0.87944135E-02 0.15608117E+03</pdfrwt>
<pdfrwt beam="1">  1       -2 0.60094740E-01 0.15608117E+03</pdfrwt>
<totfact> 0.19323526E+03</totfact>
</mgrwt>
</event>
<event>
 6    1  0.1190675E-005  0.1818116E+03  0.7546771E-02  0.1171489E+00
          2   -1    0    0  501    0  0.00000000000E+00  0.00000000000E+00  0.17637492895E+03  0.17637492895E+03  0.00000000000E+00 0. -1.
         -2   -1    0    0    0  501 -0.00000000000E+00 -0.00000000000E+00 -0.17239158520E+03  0.17239158520E+03  0.00000000000E+00 0.  1.
          5    1    1    2  502    0 -0.13126391171E+02 -0.12846796545E+03  0.52265015843E+02  0.13939168617E+03  0.47000000000E+01 0. -1.
         -5    1    1    2    0  502  0.42284986731E+02 -0.29692579342E+00 -0.16984778381E+02  0.45811362831E+02  0.47000000000E+01 0. -1.
        -11    1    1    2    0    0  0.18252299804E+02  0.31544419092E+02  0.22426330354E+02  0.42791787964E+02  0.00000000000E+00 0.  1.
         11    1    1    2    0    0 -0.47410895364E+02  0.97220472153E+02 -0.53723224063E+02  0.12077167718E+03  0.00000000000E+00 0. -1.
<mgrwt>
<rscale>  0 0.17624344E+03</rscale>
<asrwt>0</asrwt>
<pdfrwt beam="1">  1        2 0.27134605E-01 0.18181164E+03</pdfrwt>
<pdfrwt beam="2">  1       -2 0.26521782E-01 0.18181164E+03</pdfrwt>
<totfact> 0.24623408E+03</totfact>
</mgrwt>
</event>
<event>
 6    1  0.1190675E-005  0.3439285E+03  0.7546771E-02  0.1065135E+00
          2   -1    0    0  501    0  0.00000000000E+00  0.00000000000E+00  0.74699485831E+03  0.74699485831E+03  0.00000000000E+00 0. -1.
         -2   -1    0    0    0  501 -0.00000000000E+00 -0.00000000000E+00 -0.39587549125E+02  0.39587549125E+02  0.00000000000E+00 0.  1.
          5    1    1    2  502    0  0.15359643891E+02 -0.24664057213E+02  0.11006013590E+03  0.11392786267E+03  0.47000000000E+01 0.  1.
         -5    1    1    2    0  502 -0.92077835238E+01  0.13951949840E+03  0.41843212171E+03  0.44120063938E+03  0.47000000000E+01 0.  1.
        -11    1    1    2    0    0  0.25499016023E+02 -0.67092540144E+02  0.42306007409E+02  0.83315106817E+02  0.00000000000E+00 0.  1.
         11    1    1    2    0    0 -0.31650876390E+02 -0.47762901044E+02  0.13660904417E+03  0.14813879857E+03  0.00000000000E+00 0. -1.
<mgrwt>
<rscale>  0 0.34392846E+03</rscale>
<asrwt>0</asrwt>
<pdfrwt beam="1">  1        2 0.11492228E+00 0.34392846E+03</pdfrwt>
<pdfrwt beam="2">  1       -2 0.60903927E-02 0.34392846E+03</pdfrwt>
<totfact> 0.56184642E+03</totfact>
</mgrwt>
</event>
<event>
 6    1  0.1190675E-005  0.1431586E+03  0.7546771E-02  0.1221511E+00
         -2   -1    0    0    0  501 -0.00000000000E+00  0.00000000000E+00  0.32283201701E+02  0.32283201701E+02  0.00000000000E+00 0.  1.
          2   -1    0    0  501    0  0.00000000000E+00 -0.00000000000E+00 -0.50251840634E+03  0.50251840634E+03  0.00000000000E+00 0. -1.
          5    1    1    2  502    0 -0.14033410980E+02 -0.32814091251E+02 -0.22298487264E+03  0.22587174377E+03  0.47000000000E+01 0.  1.
         -5    1    1    2    0  502 -0.54422603633E+02  0.46518403935E+02 -0.70105312110E+02  0.10031264365E+03  0.47000000000E+01 0.  1.
        -11    1    1    2    0    0  0.10330065432E+02 -0.43440458771E+02 -0.78817138693E+02  0.90586561155E+02  0.00000000000E+00 0.  1.
         11    1    1    2    0    0  0.58125949181E+02  0.29736146087E+02 -0.98327881203E+02  0.11803065947E+03  0.00000000000E+00 0. -1.
<mgrwt>
<rscale>  0 0.13408927E+03</rscale>
<asrwt>0</asrwt>
<pdfrwt beam="2">  1        2 0.77310518E-01 0.14315865E+03</pdfrwt>
<pdfrwt beam="1">  1       -2 0.49666468E-02 0.14315865E+03</pdfrwt>
<totfact> 0.11673869E+04</totfact>
</mgrwt>
</event>
<event>
 6    1  0.1190675E-005  0.1174900E+03  0.7546771E-02  0.1258770E+00
          3   -1    0    0  501    0  0.00000000000E+00  0.00000000000E+00  0.35167698396E+03  0.35167698396E+03  0.00000000000E+00 0. -1.
         -3   -1    0    0    0  501 -0.00000000000E+00 -0.00000000000E+00 -0.47116396875E+02  0.47116396875E+02  0.00000000000E+00 0.  1.
          5    1    1    2  502    0 -0.47159111462E+02 -0.36788805733E+02  0.19306353539E+03  0.20217076128E+03  0.47000000000E+01 0. -1.
         -5    1    1    2    0  502  0.48519506955E+02  0.18220201849E+02  0.84564044903E+02  0.99293937382E+02  0.47000000000E+01 0.  1.
        -11    1    1    2    0    0  0.14202433110E+02  0.28048186800E+02 -0.26346637654E+02  0.41018961526E+02  0.00000000000E+00 0.  1.
         11    1    1    2    0    0 -0.15562828603E+02 -0.94795829154E+01  0.53279644448E+02  0.56309720643E+02  0.00000000000E+00 0. -1.
<mgrwt>
<rscale>  0 0.11097777E+03</rscale>
<asrwt>0</asrwt>
<pdfrwt beam="1">  1        3 0.54104150E-01 0.11748996E+03</pdfrwt>
<pdfrwt beam="2">  1       -3 0.72486766E-02 0.11748996E+03</pdfrwt>
<totfact> 0.96220904E+02</totfact>
</mgrwt>
</event>
<event>
 6    1  0.1190675E-005  0.1400807E+03  0.7546771E-02  0.1224495E+00
          3   -1    0    0  501    0  0.00000000000E+00  0.00000000000E+00  0.47299291176E+03  0.47299291176E+03  0.00000000000E+00 0. -1.
         -3   -1    0    0    0  501 -0.00000000000E+00 -0.00000000000E+00 -0.34910423440E+02  0.34910423440E+02  0.00000000000E+00 0.  1.
          5    1    1    2  502    0  0.74977421031E+02  0.39059412683E+02  0.18696117999E+03  0.20524089312E+03  0.47000000000E+01 0.  1.
         -5    1    1    2    0  502 -0.51506026908E+02  0.19629741312E+02  0.11269286315E+03  0.12553871497E+03  0.47000000000E+01 0.  1.
        -11    1    1    2    0    0 -0.43261820940E+02 -0.21595614921E+02  0.21594483209E+02  0.52955428805E+02  0.00000000000E+00 0.  1.
         11    1    1    2    0    0  0.19790426817E+02 -0.37093539074E+02  0.11683396196E+03  0.12416829830E+03  0.00000000000E+00 0. -1.
<mgrwt>
<rscale>  0 0.13201549E+03</rscale>
<asrwt>0</asrwt>
<pdfrwt beam="1">  1        3 0.72768136E-01 0.14008070E+03</pdfrwt>
<pdfrwt beam="2">  1       -3 0.53708347E-02 0.14008070E+03</pdfrwt>
<totfact> 0.86521880E+02</totfact>
</mgrwt>
</event>
<event>
 6    1  0.1190675E-005  0.4843468E+03  0.7546771E-02  0.1075636E+00
         -2   -1    0    0    0  501 -0.00000000000E+00  0.00000000000E+00  0.15002514206E+03  0.15002514206E+03  0.00000000000E+00 0.  1.
          2   -1    0    0  501    0  0.00000000000E+00 -0.00000000000E+00 -0.82253716173E+03  0.82253716173E+03  0.00000000000E+00 0. -1.
          5    1    1    2  502    0  0.22235937789E+03  0.26734678705E+02 -0.48073658112E+03  0.53036608715E+03  0.47000000000E+01 0. -1.
         -5    1    1    2    0  502 -0.23379489143E+03 -0.44295758834E+02 -0.24003471623E+03  0.33802502941E+03  0.47000000000E+01 0.  1.
        -11    1    1    2    0    0  0.44447451801E+02 -0.14045747373E+02  0.24638639241E+02  0.52724961209E+02  0.00000000000E+00 0. -1.
         11    1    1    2    0    0 -0.33011938258E+02  0.31606827501E+02  0.23620638438E+02  0.51446226027E+02  0.00000000000E+00 0.  1.
<mgrwt>
<rscale>  0 0.32002903E+03</rscale>
<asrwt>0</asrwt>
<pdfrwt beam="2">  1        2 0.12654418E+00 0.48434685E+03</pdfrwt>
<pdfrwt beam="1">  1       -2 0.23080791E-01 0.48434685E+03</pdfrwt>
<totfact> 0.55706419E+02</totfact>
</mgrwt>
</event>
<event>
 6    1  0.1190675E-005  0.1490056E+03  0.7546771E-02  0.1206708E+00
          2   -1    0    0  501    0  0.00000000000E+00  0.00000000000E+00  0.13066594011E+04  0.13066594011E+04  0.00000000000E+00 0. -1.
         -2   -1    0    0    0  501 -0.00000000000E+00 -0.00000000000E+00 -0.15539847428E+02  0.15539847428E+02  0.00000000000E+00 0.  1.
          5    1    1    2  502    0 -0.10973300201E+03 -0.14970537094E+02  0.47881090492E+03  0.49147474134E+03  0.47000000000E+01 0. -1.
         -5    1    1    2    0  502  0.28663823323E+02  0.12592609499E+02  0.28351444020E+03  0.28527656122E+03  0.47000000000E+01 0. -1.
        -11    1    1    2    0    0 -0.23717292838E+02 -0.11556712836E+02  0.14404749706E+03  0.14644367177E+03  0.00000000000E+00 0. -1.
         11    1    1    2    0    0  0.10478647153E+03  0.13934640432E+02  0.38474671147E+03  0.39900427417E+03  0.00000000000E+00 0.  1.
<mgrwt>
<rscale>  0 0.14503692E+03</rscale>
<asrwt>0</asrwt>
<pdfrwt beam="1">  1        2 0.20102444E+00 0.14900555E+03</pdfrwt>
<pdfrwt beam="2">  1       -2 0.23907468E-02 0.14900555E+03</pdfrwt>
<totfact> 0.10075849E+04</totfact>
</mgrwt>
</event>
<event>
 6    1  0.1190675E-005  0.2794543E+03  0.7546771E-02  0.1095987E+00
          1   -1    0    0  501    0  0.00000000000E+00  0.00000000000E+00  0.23567632979E+03  0.23567632979E+03  0.00000000000E+00 0. -1.
         -1   -1    0    0    0  501 -0.00000000000E+00 -0.00000000000E+00 -0.82841079265E+02  0.82841079265E+02  0.00000000000E+00 0.  1.
          5    1    1    2  502    0 -0.81458374451E+01 -0.59164567098E+02  0.18031767643E+03  0.19000882901E+03  0.47000000000E+01 0. -1.
         -5    1    1    2    0  502  0.38696391954E+01  0.92488167333E+01 -0.17855357810E+02  0.21009962422E+02  0.47000000000E+01 0. -1.
        -11    1    1    2    0    0  0.32383985231E+02  0.27503435716E+02 -0.41545809842E+02  0.59424033783E+02  0.00000000000E+00 0.  1.
         11    1    1    2    0    0 -0.28107786981E+02  0.22412314649E+02  0.31918741743E+02  0.48074583839E+02  0.00000000000E+00 0. -1.
<mgrwt>
<rscale>  0 0.27945434E+03</rscale>
<asrwt>0</asrwt>
<pdfrwt beam="1">  1        1 0.36257897E-01 0.27945434E+03</pdfrwt>
<pdfrwt beam="2">  1       -1 0.12744782E-01 0.27945434E+03</pdfrwt>
<totfact> 0.49287944E+03</totfact>
</mgrwt>
</event>
<event>
 6    1  0.1190675E-005  0.2771376E+03  0.7546771E-02  0.1097263E+00
          1   -1    0    0  501    0  0.00000000000E+00  0.00000000000E+00  0.48312306341E+02  0.48312306341E+02  0.00000000000E+00 0. -1.
         -1   -1    0    0    0  501 -0.00000000000E+00 -0.00000000000E+00 -0.39744144528E+03  0.39744144528E+03  0.00000000000E+00 0.  1.
          5    1    1    2  502    0  0.33165226125E+02 -0.14237084065E+02 -0.23394879410E+02  0.43267044840E+02  0.47000000000E+01 0.  1.
         -5    1    1    2    0  502 -0.40722142103E+02  0.98004577106E+02 -0.19493770390E+03  0.22200447832E+03  0.47000000000E+01 0.  1.
        -11    1    1    2    0    0 -0.38516196542E+02 -0.62039620974E+02 -0.84090214874E+02  0.11137134373E+03  0.00000000000E+00 0.  1.
         11    1    1    2    0    0  0.46073112520E+02 -0.21727872067E+02 -0.46706340752E+02  0.69110884731E+02  0.00000000000E+00 0. -1.
<mgrwt>
<rscale>  0 0.27713760E+03</rscale>
<asrwt>0</asrwt>
<pdfrwt beam="1">  1        1 0.74326626E-02 0.27713760E+03</pdfrwt>
<pdfrwt beam="2">  1       -1 0.61144837E-01 0.27713760E+03</pdfrwt>
<totfact> 0.26873475E+03</totfact>
</mgrwt>
</event>
<event>
 6    1  0.1535580E-005  0.2039141E+03  0.7546771E-02  0.1150530E+00
          2   -1    0    0  501    0  0.00000000000E+00  0.00000000000E+00  0.64757701379E+03  0.64757701379E+03  0.00000000000E+00 0. -1.
         -2   -1    0    0    0  501 -0.00000000000E+00 -0.00000000000E+00 -0.62855470543E+02  0.62855470543E+02  0.00000000000E+00 0.  1.
          5    1    1    2  502    0  0.80735607620E+02 -0.54157937010E+02  0.25345500685E+03  0.27150110677E+03  0.47000000000E+01 0. -1.
         -5    1    1    2    0  502  0.80285947682E+02  0.59492804476E+02  0.14589100804E+03  0.17689404571E+03  0.47000000000E+01 0. -1.
        -11    1    1    2    0    0 -0.59892650798E+02 -0.12653922099E+02  0.13814697913E+02  0.62754260752E+02  0.00000000000E+00 0.  1.
         11    1    1    2    0    0 -0.10112890450E+03  0.73190546330E+01  0.17156083045E+03  0.19928307111E+03  0.00000000000E+00 0. -1.
<mgrwt>
<rscale>  0 0.19906570E+03</rscale>
<asrwt>0</asrwt>
<pdfrwt beam="1">  1        2 0.99627228E-01 0.20391413E+03</pdfrwt>
<pdfrwt beam="2">  1       -2 0.96700729E-02 0.20391413E+03</pdfrwt>
<totfact> 0.31928366E+03</totfact>
</mgrwt>
</event>
<event>
 6    1  0.1190675E-005  0.1270711E+03  0.7546771E-02  0.1247358E+00
         -1   -1    0    0    0  501 -0.00000000000E+00  0.00000000000E+00  0.21373572648E+02  0.21373572648E+02  0.00000000000E+00 0.  1.
          1   -1    0    0  501    0  0.00000000000E+00 -0.00000000000E+00 -0.58623169900E+03  0.58623169900E+03  0.00000000000E+00 0. -1.
          5    1    1    2  502    0 -0.49986535826E+02  0.11537231473E+02 -0.11638822942E+03  0.12727950119E+03  0.47000000000E+01 0.  1.
         -5    1    1    2    0  502  0.67187928262E+02 -0.26580205104E+02 -0.26540820019E+03  0.27510784746E+03  0.47000000000E+01 0.  1.
        -11    1    1    2    0    0  0.37126015811E+02  0.47442572041E+01 -0.71409445091E+02  0.80623556574E+02  0.00000000000E+00 0. -1.
         11    1    1    2    0    0 -0.54327408247E+02  0.10298716427E+02 -0.11165225164E+03  0.12459436642E+03  0.00000000000E+00 0.  1.
<mgrwt>
<rscale>  0 0.11745328E+03</rscale>
<asrwt>0</asrwt>
<pdfrwt beam="2">  1        1 0.90189483E-01 0.12707110E+03</pdfrwt>
<pdfrwt beam="1">  1       -1 0.32882423E-02 0.12707110E+03</pdfrwt>
<totfact> 0.11342507E+04</totfact>
</mgrwt>
</event>
<event>
 6    1  0.1190675E-005  0.1332459E+03  0.7546771E-02  0.1235184E+00
         -1   -1    0    0    0  501 -0.00000000000E+00  0.00000000000E+00  0.11382776244E+03  0.11382776244E+03  0.00000000000E+00 0.  1.
          1   -1    0    0  501    0  0.00000000000E+00 -0.00000000000E+00 -0.12627906082E+03  0.12627906082E+03  0.00000000000E+00 0. -1.
          5    1    1    2  502    0 -0.72031556096E+02  0.16262354790E+01  0.22387390640E+02  0.75594146434E+02  0.47000000000E+01 0. -1.
         -5    1    1    2    0  502  0.29569990543E+02  0.16429915884E+02 -0.49890581008E+02  0.60460619828E+02  0.47000000000E+01 0. -1.
        -11    1    1    2    0    0  0.38874607060E+02  0.48324665866E+01 -0.32666531180E+02  0.51006764911E+02  0.00000000000E+00 0. -1.
         11    1    1    2    0    0  0.35869584926E+01 -0.22888617950E+02  0.47718423164E+02  0.53045292083E+02  0.00000000000E+00 0.  1.
<mgrwt>
<rscale>  0 0.12492664E+03</rscale>
<asrwt>0</asrwt>
<pdfrwt beam="2">  1        1 0.19427548E-01 0.13324592E+03</pdfrwt>
<pdfrwt beam="1">  1       -1 0.17511963E-01 0.13324592E+03</pdfrwt>
<totfact> 0.63015528E+03</totfact>
</mgrwt>
</event>
<event>
 6    1  0.1190675E-005  0.1673769E+03  0.7546771E-02  0.1187156E+00
         -1   -1    0    0    0  501 -0.00000000000E+00  0.00000000000E+00  0.56378479713E+02  0.56378479713E+02  0.00000000000E+00 0.  1.
          1   -1    0    0  501    0  0.00000000000E+00 -0.00000000000E+00 -0.68475418538E+03  0.68475418538E+03  0.00000000000E+00 0. -1.
          5    1    1    2  502    0 -0.30477106652E+02  0.47363057966E+02 -0.18742268979E+03  0.19575869824E+03  0.47000000000E+01 0.  1.
         -5    1    1    2    0  502  0.10496823095E+03  0.35346576340E+02 -0.36612891825E+03  0.38254435657E+03  0.47000000000E+01 0.  1.
        -11    1    1    2    0    0 -0.67863614319E+02 -0.10160123626E+03 -0.73891756901E+02  0.14278751029E+03  0.00000000000E+00 0. -1.
         11    1    1    2    0    0 -0.66275099805E+01  0.18891601950E+02 -0.93234073237E+00  0.20042099991E+02  0.00000000000E+00 0.  1.
<mgrwt>
<rscale>  0 0.16137213E+03</rscale>
<asrwt>0</asrwt>
<pdfrwt beam="2">  1        1 0.10534680E+00 0.16737694E+03</pdfrwt>
<pdfrwt beam="1">  1       -1 0.86736118E-02 0.16737694E+03</pdfrwt>
<totfact> 0.21895648E+03</totfact>
</mgrwt>
</event>
<event>
 6    1  0.1190675E-005  0.2925365E+03  0.7546771E-02  0.1089032E+00
          1   -1    0    0  501    0  0.00000000000E+00  0.00000000000E+00  0.70015790430E+02  0.70015790430E+02  0.00000000000E+00 0. -1.
         -1   -1    0    0    0  501 -0.00000000000E+00 -0.00000000000E+00 -0.30556538690E+03  0.30556538690E+03  0.00000000000E+00 0.  1.
          5    1    1    2  502    0 -0.31675969039E+01  0.27831676627E+02 -0.27133153182E+01  0.28532226938E+02  0.47000000000E+01 0. -1.
         -5    1    1    2    0  502  0.38317128013E+01 -0.12508607504E+03 -0.99641728053E+02  0.16003678378E+03  0.47000000000E+01 0. -1.
        -11    1    1    2    0    0  0.15292732035E+02  0.57052350104E+02 -0.14696960671E+02  0.60867388300E+02  0.00000000000E+00 0. -1.
         11    1    1    2    0    0 -0.15956847933E+02  0.40202048312E+02 -0.11849759243E+03  0.12614477831E+03  0.00000000000E+00 0.  1.
<mgrwt>
<rscale>  0 0.29253651E+03</rscale>
<asrwt>0</asrwt>
<pdfrwt beam="1">  1        1 0.10771660E-01 0.29253651E+03</pdfrwt>
<pdfrwt beam="2">  1       -1 0.47010060E-01 0.29253651E+03</pdfrwt>
<totfact> 0.26685391E+03</totfact>
</mgrwt>
</event>
<event>
 6    1  0.1190675E-005  0.2928014E+03  0.7546771E-02  0.1100367E+00
         -1   -1    0    0    0  501 -0.00000000000E+00  0.00000000000E+00  0.39696054323E+03  0.39696054323E+03  0.00000000000E+00 0.  1.
          1   -1    0    0  501    0  0.00000000000E+00 -0.00000000000E+00 -0.49549226193E+03  0.49549226193E+03  0.00000000000E+00 0. -1.
          5    1    1    2  502    0  0.17056772093E+03 -0.17289595388E+03 -0.34000462717E+03  0.41786552238E+03  0.47000000000E+01 0. -1.
         -5    1    1    2    0  502 -0.43595808095E+02  0.23592356447E+02 -0.75583185515E+02  0.90510229802E+02  0.47000000000E+01 0.  1.
        -11    1    1    2    0    0 -0.73622227528E+02  0.14321079453E+03  0.25916954705E+03  0.30512033392E+03  0.00000000000E+00 0.  1.
         11    1    1    2    0    0 -0.53349685308E+02  0.60928029085E+01  0.57886546937E+02  0.78956719069E+02  0.00000000000E+00 0. -1.
<mgrwt>
<rscale>  0 0.27160095E+03</rscale>
<asrwt>0</asrwt>
<pdfrwt beam="2">  1        1 0.76229578E-01 0.29280143E+03</pdfrwt>
<pdfrwt beam="1">  1       -1 0.61070853E-01 0.29280143E+03</pdfrwt>
<totfact> 0.12939986E+02</totfact>
</mgrwt>
</event>
<event>
 6    1  0.1190675E-005  0.3457850E+03  0.7546771E-02  0.1064358E+00
          1   -1    0    0  501    0  0.00000000000E+00  0.00000000000E+00  0.19350326296E+03  0.19350326296E+03  0.00000000000E+00 0. -1.
         -1   -1    0    0    0  501 -0.00000000000E+00 -0.00000000000E+00 -0.15447711102E+03  0.15447711102E+03  0.00000000000E+00 0.  1.
          5    1    1    2  502    0 -0.19267384090E+02  0.17306771289E+02  0.11396454161E+02  0.28683193503E+02  0.47000000000E+01 0.  1.
         -5    1    1    2    0  502  0.12599480150E+03 -0.81385784298E+02  0.57843417121E+02  0.16082999346E+03  0.47000000000E+01 0.  1.
        -11    1    1    2    0    0 -0.17494112695E+02  0.41919597987E+02  0.24363880806E+02  0.51545080874E+02  0.00000000000E+00 0. -1.
         11    1    1    2    0    0 -0.89233304718E+02  0.22159415022E+02 -0.54577600145E+02  0.10692210615E+03  0.00000000000E+00 0.  1.
<mgrwt>
<rscale>  0 0.34578505E+03</rscale>
<asrwt>0</asrwt>
<pdfrwt beam="1">  1        1 0.29769733E-01 0.34578505E+03</pdfrwt>
<pdfrwt beam="2">  1       -1 0.23765710E-01 0.34578505E+03</pdfrwt>
<totfact> 0.23254600E+03</totfact>
</mgrwt>
</event>
<event>
 6    1  0.1190675E-005  0.1334999E+03  0.7546771E-02  0.1232755E+00
         -1   -1    0    0    0  501 -0.00000000000E+00  0.00000000000E+00  0.49315429819E+02  0.49315429819E+02  0.00000000000E+00 0.  1.
          1   -1    0    0  501    0  0.00000000000E+00 -0.00000000000E+00 -0.37897552280E+03  0.37897552280E+03  0.00000000000E+00 0. -1.
          5    1    1    2  502    0  0.35798752691E+02 -0.33926963327E+02 -0.18283715859E+03  0.18943100617E+03  0.47000000000E+01 0.  1.
         -5    1    1    2    0  502 -0.71345804516E+02  0.33158007295E+01 -0.96300423392E+02  0.11998783231E+03  0.47000000000E+01 0.  1.
        -11    1    1    2    0    0  0.24169532825E+02  0.54087935419E+02  0.30122058066E+01  0.59319005881E+02  0.00000000000E+00 0.  1.
         11    1    1    2    0    0  0.11377519000E+02 -0.23476772821E+02 -0.53534716804E+02  0.59553108265E+02  0.00000000000E+00 0. -1.
<mgrwt>
<rscale>  0 0.12649262E+03</rscale>
<asrwt>0</asrwt>
<pdfrwt beam="2">  1        1 0.58303928E-01 0.13349992E+03</pdfrwt>
<pdfrwt beam="1">  1       -1 0.75869890E-02 0.13349992E+03</pdfrwt>
<totfact> 0.58091868E+03</totfact>
</mgrwt>
</event>
<event>
 6    1  0.1190675E-005  0.1293138E+03  0.7546771E-02  0.1242615E+00
          1   -1    0    0  501    0  0.00000000000E+00  0.00000000000E+00  0.14398350529E+04  0.14398350529E+04  0.00000000000E+00 0. -1.
         -1   -1    0    0    0  501 -0.00000000000E+00 -0.00000000000E+00 -0.13525211799E+02  0.13525211799E+02  0.00000000000E+00 0.  1.
          5    1    1    2  502    0 -0.22103843860E+02  0.35012247064E+02  0.13095019375E+03  0.13742081575E+03  0.47000000000E+01 0.  1.
         -5    1    1    2    0  502 -0.10455312337E+02 -0.29151997482E+02  0.10724293901E+04  0.10728867784E+04  0.47000000000E+01 0.  1.
        -11    1    1    2    0    0  0.79931013923E+01  0.21866878303E+02  0.74993268079E+01  0.24459966050E+02  0.00000000000E+00 0.  1.
         11    1    1    2    0    0  0.24566054805E+02 -0.27727127885E+02  0.21543093038E+03  0.21859270444E+03  0.00000000000E+00 0. -1.
<mgrwt>
<rscale>  0 0.12029285E+03</rscale>
<asrwt>0</asrwt>
<pdfrwt beam="1">  1        1 0.22151296E+00 0.12931376E+03</pdfrwt>
<pdfrwt beam="2">  1       -1 0.20808030E-02 0.12931376E+03</pdfrwt>
<totfact> 0.49820284E+03</totfact>
</mgrwt>
</event>
<event>
 6    1  0.1190675E-005  0.1385247E+03  0.7546771E-02  0.1226674E+00
         -2   -1    0    0    0  501 -0.00000000000E+00  0.00000000000E+00  0.18075475937E+02  0.18075475937E+02  0.00000000000E+00 0. -1.
          2   -1    0    0  501    0  0.00000000000E+00 -0.00000000000E+00 -0.10987383821E+04  0.10987383821E+04  0.00000000000E+00 0.  1.
          5    1    1    2  502    0  0.39119127667E+02 -0.34698729447E+02 -0.29025963792E+03  0.29496958382E+03  0.47000000000E+01 0. -1.
         -5    1    1    2    0  502 -0.71267179984E+01  0.85100280629E+02 -0.56436200534E+03  0.57080593107E+03  0.47000000000E+01 0. -1.
        -11    1    1    2    0    0  0.23569638623E+02  0.74580042699E+01 -0.87745873343E+02  0.91161877894E+02  0.00000000000E+00 0.  1.
         11    1    1    2    0    0 -0.55562048292E+02 -0.57859555452E+02 -0.13829538956E+03  0.15987646525E+03  0.00000000000E+00 0. -1.
<mgrwt>
<rscale>  0 0.13052852E+03</rscale>
<asrwt>0</asrwt>
<pdfrwt beam="2">  1        2 0.16903678E+00 0.13852469E+03</pdfrwt>
<pdfrwt beam="1">  1       -2 0.27808408E-02 0.13852469E+03</pdfrwt>
<totfact> 0.10496104E+04</totfact>
</mgrwt>
</event>
<event>
 6    1  0.1190675E-005  0.1662468E+03  0.7546771E-02  0.1186497E+00
          1   -1    0    0  501    0  0.00000000000E+00  0.00000000000E+00  0.40242329721E+03  0.40242329721E+03  0.00000000000E+00 0. -1.
         -1   -1    0    0    0  501 -0.00000000000E+00 -0.00000000000E+00 -0.67895480662E+02  0.67895480662E+02  0.00000000000E+00 0.  1.
          5    1    1    2  502    0 -0.30505829016E+02  0.67879630824E+02  0.88105599790E+02  0.11542502588E+03  0.47000000000E+01 0. -1.
         -5    1    1    2    0  502 -0.76856361794E+02 -0.45855415013E+02  0.15610904803E+03  0.18000484524E+03  0.47000000000E+01 0. -1.
        -11    1    1    2    0    0  0.12770700423E+03 -0.17570764278E+02  0.78924768579E+02  0.15115200886E+03  0.00000000000E+00 0. -1.
         11    1    1    2    0    0 -0.20344813419E+02 -0.44534515339E+01  0.11388400152E+02  0.23736897895E+02  0.00000000000E+00 0.  1.
<mgrwt>
<rscale>  0 0.16196378E+03</rscale>
<asrwt>0</asrwt>
<pdfrwt beam="1">  1        1 0.61911275E-01 0.16624685E+03</pdfrwt>
<pdfrwt beam="2">  1       -1 0.10445459E-01 0.16624685E+03</pdfrwt>
<totfact> 0.33482986E+03</totfact>
</mgrwt>
</event>
<event>
 6    1  0.1190675E-005  0.1432712E+03  0.7546771E-02  0.1219515E+00
         -1   -1    0    0    0  501 -0.00000000000E+00  0.00000000000E+00  0.27801900482E+02  0.27801900482E+02  0.00000000000E+00 0.  1.
          1   -1    0    0  501    0  0.00000000000E+00 -0.00000000000E+00 -0.59808496031E+03  0.59808496031E+03  0.00000000000E+00 0. -1.
          5    1    1    2  502    0 -0.18653438986E+02  0.88305360544E+02 -0.31319275265E+03  0.32597174387E+03  0.47000000000E+01 0.  1.
         -5    1    1    2    0  502 -0.12561960679E+01 -0.21191406945E+02 -0.40419957881E+01  0.22115186791E+02  0.47000000000E+01 0.  1.
        -11    1    1    2    0    0 -0.41927023410E+01  0.18578406268E+02 -0.17017251952E+02  0.25540610729E+02  0.00000000000E+00 0. -1.
         11    1    1    2    0    0  0.24102337395E+02 -0.85692359867E+02 -0.23603105943E+03  0.25225931940E+03  0.00000000000E+00 0.  1.
<mgrwt>
<rscale>  0 0.13550048E+03</rscale>
<asrwt>0</asrwt>
<pdfrwt beam="2">  1        1 0.92013071E-01 0.14327116E+03</pdfrwt>
<pdfrwt beam="1">  1       -1 0.42772155E-02 0.14327116E+03</pdfrwt>
<totfact> 0.75687824E+03</totfact>
</mgrwt>
</event>
<event>
 6    1  0.1190675E-005  0.3242095E+03  0.7546771E-02  0.1075067E+00
         -2   -1    0    0    0  501 -0.00000000000E+00  0.00000000000E+00  0.11419319346E+03  0.11419319346E+03  0.00000000000E+00 0.  1.
          2   -1    0    0  501    0  0.00000000000E+00 -0.00000000000E+00 -0.12869674746E+04  0.12869674746E+04  0.00000000000E+00 0. -1.
          5    1    1    2  502    0  0.11446222653E+03 -0.13240788119E+02 -0.47965813724E+03  0.49332640148E+03  0.47000000000E+01 0.  1.
         -5    1    1    2    0  502  0.14107794122E+03 -0.14228054037E+03 -0.50422097398E+03  0.54259341893E+03  0.47000000000E+01 0.  1.
        -11    1    1    2    0    0 -0.13861553971E+03  0.10843666636E+03 -0.15549085035E+03  0.23484076095E+03  0.00000000000E+00 0.  1.
         11    1    1    2    0    0 -0.11692462804E+03  0.47084662127E+02 -0.33404319574E+02  0.13040008671E+03  0.00000000000E+00 0. -1.
<mgrwt>
<rscale>  0 0.32126758E+03</rscale>
<asrwt>0</asrwt>
<pdfrwt beam="2">  1        2 0.19799499E+00 0.32420945E+03</pdfrwt>
<pdfrwt beam="1">  1       -2 0.17568184E-01 0.32420945E+03</pdfrwt>
<totfact> 0.46787180E+02</totfact>
</mgrwt>
</event>
<event>
 6    1  0.1190675E-005  0.1439806E+03  0.7546771E-02  0.1216237E+00
         -1   -1    0    0    0  501 -0.00000000000E+00  0.00000000000E+00  0.53999232336E+02  0.53999232336E+02  0.00000000000E+00 0.  1.
          1   -1    0    0  501    0  0.00000000000E+00 -0.00000000000E+00 -0.39499526743E+03  0.39499526743E+03  0.00000000000E+00 0. -1.
          5    1    1    2  502    0  0.74321955928E+02 -0.16515278225E+02 -0.20991104370E+03  0.22334109299E+03  0.47000000000E+01 0.  1.
         -5    1    1    2    0  502 -0.14803667821E+02  0.56090949764E+02 -0.66882090968E+02  0.88660291668E+02  0.47000000000E+01 0.  1.
        -11    1    1    2    0    0 -0.15665693034E+02 -0.67046517947E+02 -0.42255081479E+02  0.80784536997E+02  0.00000000000E+00 0.  1.
         11    1    1    2    0    0 -0.43852595074E+02  0.27470846407E+02 -0.21947818941E+02  0.56208578111E+02  0.00000000000E+00 0. -1.
<mgrwt>
<rscale>  0 0.13786043E+03</rscale>
<asrwt>0</asrwt>
<pdfrwt beam="2">  1        1 0.60768503E-01 0.14398064E+03</pdfrwt>
<pdfrwt beam="1">  1       -1 0.83075741E-02 0.14398064E+03</pdfrwt>
<totfact> 0.48291323E+03</totfact>
</mgrwt>
</event>
<event>
 6    1  0.1190675E-005  0.1511799E+03  0.7546771E-02  0.1208518E+00
          2   -1    0    0  501    0  0.00000000000E+00  0.00000000000E+00  0.12942132477E+04  0.12942132477E+04  0.00000000000E+00 0. -1.
         -2   -1    0    0    0  501 -0.00000000000E+00 -0.00000000000E+00 -0.15528592572E+02  0.15528592572E+02  0.00000000000E+00 0.  1.
          5    1    1    2  502    0  0.50192672628E+02 -0.25276740750E+02  0.36705542739E+03  0.37136234972E+03  0.47000000000E+01 0. -1.
         -5    1    1    2    0  502 -0.38937726884E-01  0.93933414719E+02  0.49768122225E+03  0.50649005607E+03  0.47000000000E+01 0. -1.
        -11    1    1    2    0    0 -0.44259477023E+02 -0.55283857592E+02  0.41090348791E+03  0.41696148814E+03  0.00000000000E+00 0. -1.
         11    1    1    2    0    0 -0.58942578784E+01 -0.13372816377E+02  0.30445175325E+01  0.14927946302E+02  0.00000000000E+00 0.  1.
<mgrwt>
<rscale>  0 0.14363610E+03</rscale>
<asrwt>0</asrwt>
<pdfrwt beam="1">  1        2 0.19910965E+00 0.15117994E+03</pdfrwt>
<pdfrwt beam="2">  1       -2 0.23890153E-02 0.15117994E+03</pdfrwt>
<totfact> 0.10251069E+04</totfact>
</mgrwt>
</event>
<event>
 6    1  0.1190675E-005  0.1523301E+03  0.7546771E-02  0.1208026E+00
         -1   -1    0    0    0  501 -0.00000000000E+00  0.00000000000E+00  0.26560746532E+02  0.26560746532E+02  0.00000000000E+00 0.  1.
          1   -1    0    0  501    0  0.00000000000E+00 -0.00000000000E+00 -0.14525497695E+04  0.14525497695E+04  0.00000000000E+00 0. -1.
          5    1    1    2  502    0 -0.20655028157E+02 -0.26015357011E+02 -0.15440481059E+03  0.15800748249E+03  0.47000000000E+01 0.  1.
         -5    1    1    2    0  502  0.10770230247E+03  0.25109798617E+02 -0.11256725479E+04  0.11311017032E+04  0.47000000000E+01 0.  1.
        -11    1    1    2    0    0 -0.13757267812E+02 -0.33003141826E+02 -0.72626815598E+02  0.80951368931E+02  0.00000000000E+00 0.  1.
         11    1    1    2    0    0 -0.73290006506E+02  0.33908700220E+02 -0.73284848895E+02  0.10904996140E+03  0.00000000000E+00 0. -1.
<mgrwt>
<rscale>  0 0.14401565E+03</rscale>
<asrwt>0</asrwt>
<pdfrwt beam="2">  1        1 0.22346915E+00 0.15233007E+03</pdfrwt>
<pdfrwt beam="1">  1       -1 0.40862695E-02 0.15233007E+03</pdfrwt>
<totfact> 0.18338355E+03</totfact>
</mgrwt>
</event>
<event>
 6    1  0.1190675E-005  0.2415764E+03  0.7546771E-02  0.1118747E+00
          1   -1    0    0  501    0  0.00000000000E+00  0.00000000000E+00  0.28682883091E+03  0.28682883091E+03  0.00000000000E+00 0. -1.
         -1   -1    0    0    0  501 -0.00000000000E+00 -0.00000000000E+00 -0.50865859886E+02  0.50865859886E+02  0.00000000000E+00 0.  1.
          5    1    1    2  502    0  0.42589312993E+02 -0.14072344165E+02  0.76189532448E+02  0.88537084356E+02  0.47000000000E+01 0.  1.
         -5    1    1    2    0  502 -0.72945955107E+02  0.43540364140E+02  0.93336942041E+02  0.12629628033E+03  0.47000000000E+01 0.  1.
        -11    1    1    2    0    0  0.49501935514E+02  0.17597228905E+02  0.33348702421E+02  0.62227325492E+02  0.00000000000E+00 0. -1.
         11    1    1    2    0    0 -0.19145293400E+02 -0.47065248881E+02  0.33087794118E+02  0.60634000620E+02  0.00000000000E+00 0.  1.
<mgrwt>
<rscale>  0 0.24157645E+03</rscale>
<asrwt>0</asrwt>
<pdfrwt beam="1">  1        1 0.44127511E-01 0.24157645E+03</pdfrwt>
<pdfrwt beam="2">  1       -1 0.78255171E-02 0.24157645E+03</pdfrwt>
<totfact> 0.81381310E+03</totfact>
</mgrwt>
</event>
<event>
 6    1  0.1190675E-005  0.1445583E+03  0.7546771E-02  0.1217328E+00
          2   -1    0    0  501    0  0.00000000000E+00  0.00000000000E+00  0.17606594696E+03  0.17606594696E+03  0.00000000000E+00 0. -1.
         -2   -1    0    0    0  501 -0.00000000000E+00 -0.00000000000E+00 -0.97770043972E+02  0.97770043972E+02  0.00000000000E+00 0.  1.
          5    1    1    2  502    0  0.11518371388E+02  0.65213224081E+02  0.11158822902E+02  0.67320478333E+02  0.47000000000E+01 0.  1.
         -5    1    1    2    0  502 -0.71404882364E+02 -0.24158781564E+02  0.43961925480E+02  0.87390187344E+02  0.47000000000E+01 0.  1.
        -11    1    1    2    0    0 -0.68901586699E+01 -0.20245457662E+02  0.41617748579E+02  0.46790916204E+02  0.00000000000E+00 0. -1.
         11    1    1    2    0    0  0.66776669646E+02 -0.20808984855E+02 -0.18442593976E+02  0.72334409047E+02  0.00000000000E+00 0.  1.
<mgrwt>
<rscale>  0 0.13706883E+03</rscale>
<asrwt>0</asrwt>
<pdfrwt beam="1">  1        2 0.27087069E-01 0.14455827E+03</pdfrwt>
<pdfrwt beam="2">  1       -2 0.15041545E-01 0.14455827E+03</pdfrwt>
<totfact> 0.63939127E+03</totfact>
</mgrwt>
</event>
<event>
 6    1  0.1190675E-005  0.2760210E+03  0.7546771E-02  0.1117891E+00
          2   -1    0    0  501    0  0.00000000000E+00  0.00000000000E+00  0.63289217631E+03  0.63289217631E+03  0.00000000000E+00 0. -1.
         -2   -1    0    0    0  501 -0.00000000000E+00 -0.00000000000E+00 -0.84656848838E+02  0.84656848838E+02  0.00000000000E+00 0.  1.
          5    1    1    2  502    0 -0.10008041134E+02 -0.15030741753E+03  0.30792025509E+03  0.34282569061E+03  0.47000000000E+01 0. -1.
         -5    1    1    2    0  502 -0.97641462651E+02  0.65029516971E+02  0.13344715506E+03  0.17774399146E+03  0.47000000000E+01 0.  1.
        -11    1    1    2    0    0 -0.12928567139E+02 -0.28096939319E+01  0.20722386204E+02  0.24585758443E+02  0.00000000000E+00 0.  1.
         11    1    1    2    0    0  0.12057807092E+03  0.88087594491E+02  0.86145531130E+02  0.17239358464E+03  0.00000000000E+00 0. -1.
<mgrwt>
<rscale>  0 0.24287679E+03</rscale>
<asrwt>0</asrwt>
<pdfrwt beam="1">  1        2 0.97368024E-01 0.27602102E+03</pdfrwt>
<pdfrwt beam="2">  1       -2 0.13024131E-01 0.27602102E+03</pdfrwt>
<totfact> 0.20460510E+03</totfact>
</mgrwt>
</event>
<event>
 6    1  0.1190675E-005  0.1582748E+03  0.7546771E-02  0.1198409E+00
         -2   -1    0    0    0  501 -0.00000000000E+00  0.00000000000E+00  0.34198771177E+03  0.34198771177E+03  0.00000000000E+00 0.  1.
          2   -1    0    0  501    0  0.00000000000E+00 -0.00000000000E+00 -0.84742028257E+02  0.84742028257E+02  0.00000000000E+00 0. -1.
          5    1    1    2  502    0 -0.72515923099E+02 -0.45116574080E+02  0.45764053719E+02  0.97007746971E+02  0.47000000000E+01 0. -1.
         -5    1    1    2    0  502  0.39247056824E+02 -0.46094027541E+02 -0.18761846978E+02  0.63553817716E+02  0.47000000000E+01 0. -1.
        -11    1    1    2    0    0  0.17408637280E+02  0.10479206495E+03  0.15376648493E+03  0.18689186557E+03  0.00000000000E+00 0. -1.
         11    1    1    2    0    0  0.15860228995E+02 -0.13581463324E+02  0.76476991843E+02  0.79276309773E+02  0.00000000000E+00 0.  1.
<mgrwt>
<rscale>  0 0.15169215E+03</rscale>
<asrwt>0</asrwt>
<pdfrwt beam="2">  1        2 0.13037235E-01 0.15827475E+03</pdfrwt>
<pdfrwt beam="1">  1       -2 0.52613493E-01 0.15827475E+03</pdfrwt>
<totfact> 0.15654949E+03</totfact>
</mgrwt>
</event>
<event>
 6    1  0.1190675E-005  0.3715270E+03  0.7546771E-02  0.1054111E+00
          2   -1    0    0  501    0  0.00000000000E+00  0.00000000000E+00  0.10230177299E+04  0.10230177299E+04  0.00000000000E+00 0. -1.
         -2   -1    0    0    0  501 -0.00000000000E+00 -0.00000000000E+00 -0.33731656738E+02  0.33731656738E+02  0.00000000000E+00 0.  1.
          5    1    1    2  502    0 -0.12599469357E+03  0.90314983810E+01  0.27840446914E+03  0.30575704278E+03  0.47000000000E+01 0.  1.
         -5    1    1    2    0  502 -0.19234287031E+02 -0.19232946741E+02  0.35508328215E+03  0.35615458905E+03  0.47000000000E+01 0.  1.
        -11    1    1    2    0    0  0.96046645280E+02  0.22045238439E+02  0.12826966066E+03  0.16175307247E+03  0.00000000000E+00 0. -1.
         11    1    1    2    0    0  0.49182335317E+02 -0.11843790079E+02  0.22752866118E+03  0.23308468231E+03  0.00000000000E+00 0.  1.
<mgrwt>
<rscale>  0 0.37152703E+03</rscale>
<asrwt>0</asrwt>
<pdfrwt beam="1">  1        2 0.15738732E+00 0.37152703E+03</pdfrwt>
<pdfrwt beam="2">  1       -2 0.51894864E-02 0.37152703E+03</pdfrwt>
<totfact> 0.47216479E+03</totfact>
</mgrwt>
</event>
<event>
 6    1  0.1190675E-005  0.1304823E+03  0.7546771E-02  0.1240691E+00
         -2   -1    0    0    0  501 -0.00000000000E+00  0.00000000000E+00  0.84140289941E+02  0.84140289941E+02  0.00000000000E+00 0.  1.
          2   -1    0    0  501    0  0.00000000000E+00 -0.00000000000E+00 -0.17987799342E+03  0.17987799342E+03  0.00000000000E+00 0. -1.
          5    1    1    2  502    0  0.25418301094E+02  0.55482325451E+02 -0.11323566622E+03  0.12871979091E+03  0.47000000000E+01 0.  1.
         -5    1    1    2    0  502  0.56600786605E+01 -0.34654773753E+02  0.10943943446E+02  0.37078966173E+02  0.47000000000E+01 0.  1.
        -11    1    1    2    0    0 -0.52716719264E+02 -0.39294786236E+02  0.17003594646E+02  0.67913584401E+02  0.00000000000E+00 0.  1.
         11    1    1    2    0    0  0.21638339510E+02  0.18467234539E+02 -0.10449575359E+02  0.30305941883E+02  0.00000000000E+00 0. -1.
<mgrwt>
<rscale>  0 0.12147052E+03</rscale>
<asrwt>0</asrwt>
<pdfrwt beam="2">  1        2 0.27673537E-01 0.13048230E+03</pdfrwt>
<pdfrwt beam="1">  1       -2 0.12944660E-01 0.13048230E+03</pdfrwt>
<totfact> 0.79116705E+03</totfact>
</mgrwt>
</event>
<event>
 6    1  0.1190675E-005  0.1786638E+03  0.7546771E-02  0.1174700E+00
          2   -1    0    0  501    0  0.00000000000E+00  0.00000000000E+00  0.38827276073E+02  0.38827276073E+02  0.00000000000E+00 0. -1.
         -2   -1    0    0    0  501 -0.00000000000E+00 -0.00000000000E+00 -0.99306773734E+03  0.99306773734E+03  0.00000000000E+00 0.  1.
          5    1    1    2  502    0 -0.26810694146E+02  0.12189514404E+03 -0.12249810417E+03  0.17494317645E+03  0.47000000000E+01 0. -1.
         -5    1    1    2    0  502 -0.40972316490E+02 -0.13719241243E+02 -0.10998833405E+03  0.11826441530E+03  0.47000000000E+01 0. -1.
        -11    1    1    2    0    0  0.43819284881E+02 -0.71129858532E+01 -0.11819855157E+03  0.12626013578E+03  0.00000000000E+00 0. -1.
         11    1    1    2    0    0  0.23963725755E+02 -0.10106291695E+03 -0.60355547148E+03  0.61242728588E+03  0.00000000000E+00 0.  1.
<mgrwt>
<rscale>  0 0.17305372E+03</rscale>
<asrwt>0</asrwt>
<pdfrwt beam="1">  1        2 0.59734266E-02 0.17866378E+03</pdfrwt>
<pdfrwt beam="2">  1       -2 0.15277966E+00 0.17866378E+03</pdfrwt>
<totfact> 0.37265838E+02</totfact>
</mgrwt>
</event>
<event>
 6    1  0.1190675E-005  0.1381134E+03  0.7546771E-02  0.1227626E+00
          2   -1    0    0  501    0  0.00000000000E+00  0.00000000000E+00  0.12805392290E+04  0.12805392290E+04  0.00000000000E+00 0. -1.
         -2   -1    0    0    0  501 -0.00000000000E+00 -0.00000000000E+00 -0.14884492263E+02  0.14884492263E+02  0.00000000000E+00 0.  1.
          5    1    1    2  502    0  0.20455152098E+02 -0.78113713968E+02  0.73582248467E+03  0.74025467544E+03  0.47000000000E+01 0.  1.
         -5    1    1    2    0  502  0.26899954879E+02  0.43363208172E+02  0.25023172421E+03  0.25542509899E+03  0.47000000000E+01 0.  1.
        -11    1    1    2    0    0 -0.28368789780E+02 -0.14568213515E+02  0.27335834294E+02  0.42003201250E+02  0.00000000000E+00 0.  1.
         11    1    1    2    0    0 -0.18986317197E+02  0.49318719311E+02  0.25226469353E+03  0.25774074555E+03  0.00000000000E+00 0. -1.
<mgrwt>
<rscale>  0 0.12988548E+03</rscale>
<asrwt>0</asrwt>
<pdfrwt beam="1">  1        2 0.19700595E+00 0.13811340E+03</pdfrwt>
<pdfrwt beam="2">  1       -2 0.22899229E-02 0.13811340E+03</pdfrwt>
<totfact> 0.11045197E+04</totfact>
</mgrwt>
</event>
<event>
 6    1  0.1190675E-005  0.1785139E+03  0.7546771E-02  0.1175015E+00
          1   -1    0    0  501    0  0.00000000000E+00  0.00000000000E+00  0.10683780633E+04  0.10683780633E+04  0.00000000000E+00 0. -1.
         -1   -1    0    0    0  501 -0.00000000000E+00 -0.00000000000E+00 -0.45604066697E+02  0.45604066697E+02  0.00000000000E+00 0.  1.
          5    1    1    2  502    0  0.49320216283E+02  0.76664207148E+02  0.40336231863E+03  0.41356152442E+03  0.47000000000E+01 0.  1.
         -5    1    1    2    0  502  0.73764051392E+02 -0.43666889415E+02  0.48958259324E+03  0.49705245006E+03  0.47000000000E+01 0.  1.
        -11    1    1    2    0    0 -0.95591678796E+01 -0.41598221349E+02  0.35002848126E+02  0.55199538829E+02  0.00000000000E+00 0.  1.
         11    1    1    2    0    0 -0.11352509980E+03  0.86009036164E+01  0.94826236657E+02  0.14816861674E+03  0.00000000000E+00 0. -1.
<mgrwt>
<rscale>  0 0.17274536E+03</rscale>
<asrwt>0</asrwt>
<pdfrwt beam="1">  1        1 0.16436584E+00 0.17851385E+03</pdfrwt>
<pdfrwt beam="2">  1       -1 0.70160110E-02 0.17851385E+03</pdfrwt>
<totfact> 0.14978259E+03</totfact>
</mgrwt>
</event>
<event>
 6    1  0.1190675E-005  0.1613142E+03  0.7546771E-02  0.1190982E+00
         -2   -1    0    0    0  501 -0.00000000000E+00  0.00000000000E+00  0.38619655225E+02  0.38619655225E+02  0.00000000000E+00 0.  1.
          2   -1    0    0  501    0  0.00000000000E+00 -0.00000000000E+00 -0.65755285905E+03  0.65755285905E+03  0.00000000000E+00 0. -1.
          5    1    1    2  502    0 -0.11608414394E+03 -0.13151652613E+02 -0.22299180197E+03  0.25178548049E+03  0.47000000000E+01 0. -1.
         -5    1    1    2    0  502  0.31621987106E+01  0.28054669856E+02 -0.18054741158E+03  0.18280186495E+03  0.47000000000E+01 0.  1.
        -11    1    1    2    0    0  0.12440832888E+03 -0.16293049885E+02 -0.15177533153E+03  0.19692294693E+03  0.00000000000E+00 0.  1.
         11    1    1    2    0    0 -0.11486383644E+02  0.13900326418E+01 -0.63618658745E+02  0.64662221895E+02  0.00000000000E+00 0. -1.
<mgrwt>
<rscale>  0 0.15799259E+03</rscale>
<asrwt>0</asrwt>
<pdfrwt beam="2">  1        2 0.10116197E+00 0.16131418E+03</pdfrwt>
<pdfrwt beam="1">  1       -2 0.59414858E-02 0.16131418E+03</pdfrwt>
<totfact> 0.66115449E+03</totfact>
</mgrwt>
</event>
<event>
 6    1  0.1190675E-005  0.2020496E+03  0.7546771E-02  0.1156475E+00
          2   -1    0    0  501    0  0.00000000000E+00  0.00000000000E+00  0.11444856562E+04  0.11444856562E+04  0.00000000000E+00 0. -1.
         -2   -1    0    0    0  501 -0.00000000000E+00 -0.00000000000E+00 -0.81034052279E+02  0.81034052279E+02  0.00000000000E+00 0.  1.
          5    1    1    2  502    0  0.44057051409E+02 -0.13858229908E+03  0.53779385706E+03  0.55712691560E+03  0.47000000000E+01 0. -1.
         -5    1    1    2    0  502 -0.92814059226E+01  0.52811906327E+01  0.50091289616E+03  0.50104875512E+03  0.47000000000E+01 0.  1.
        -11    1    1    2    0    0 -0.38777759887E+02  0.14658578262E+03  0.22451754613E+02  0.15328140009E+03  0.00000000000E+00 0.  1.
         11    1    1    2    0    0  0.40021144000E+01 -0.13284674179E+02  0.22930960598E+01  0.14062637635E+02  0.00000000000E+00 0. -1.
<mgrwt>
<rscale>  0 0.19221880E+03</rscale>
<asrwt>0</asrwt>
<pdfrwt beam="1">  1        2 0.17607470E+00 0.20204958E+03</pdfrwt>
<pdfrwt beam="2">  1       -2 0.12466778E-01 0.20204958E+03</pdfrwt>
<totfact> 0.10046774E+03</totfact>
</mgrwt>
</event>
<event>
 6    1  0.1190675E-005  0.3313747E+03  0.7546771E-02  0.1070530E+00
         -1   -1    0    0    0  501 -0.00000000000E+00  0.00000000000E+00  0.20159927214E+02  0.20159927214E+02  0.00000000000E+00 0.  1.
          1   -1    0    0  501    0  0.00000000000E+00 -0.00000000000E+00 -0.13617261859E+04  0.13617261859E+04  0.00000000000E+00 0. -1.
          5    1    1    2  502    0 -0.86233617483E+02 -0.28161356018E+02 -0.88772354092E+03  0.89235893779E+03  0.47000000000E+01 0.  1.
         -5    1    1    2    0  502 -0.99487270816E+01 -0.31161280569E+02 -0.47147171623E+02  0.57575588311E+02  0.47000000000E+01 0.  1.
        -11    1    1    2    0    0  0.22905886825E+02  0.46242289557E+02 -0.69073577084E+02  0.86221737665E+02  0.00000000000E+00 0.  1.
         11    1    1    2    0    0  0.73276457740E+02  0.13080347030E+02 -0.33762196909E+03  0.34572984938E+03  0.00000000000E+00 0. -1.
<mgrwt>
<rscale>  0 0.33137472E+03</rscale>
<asrwt>0</asrwt>
<pdfrwt beam="2">  1        1 0.20949635E+00 0.33137472E+03</pdfrwt>
<pdfrwt beam="1">  1       -1 0.31015270E-02 0.33137472E+03</pdfrwt>
<totfact> 0.31857420E+03</totfact>
</mgrwt>
</event>
<event>
 6    1  0.1190675E-005  0.1406457E+03  0.7546771E-02  0.1224809E+00
          2   -1    0    0  501    0  0.00000000000E+00  0.00000000000E+00  0.32233255864E+03  0.32233255864E+03  0.00000000000E+00 0. -1.
         -2   -1    0    0    0  501 -0.00000000000E+00 -0.00000000000E+00 -0.50724257634E+02  0.50724257634E+02  0.00000000000E+00 0.  1.
          5    1    1    2  502    0  0.27468836337E+02 -0.26874814477E+02  0.65040507526E+02  0.75691150355E+02  0.47000000000E+01 0.  1.
         -5    1    1    2    0  502 -0.53135141686E+02  0.86014783346E+02  0.12925735295E+03  0.16416893594E+03  0.47000000000E+01 0.  1.
        -11    1    1    2    0    0  0.45734019441E+02 -0.35323212481E+02  0.94816573186E+01  0.58559642243E+02  0.00000000000E+00 0.  1.
         11    1    1    2    0    0 -0.20067714092E+02 -0.23816756389E+02  0.67828783213E+02  0.74637087737E+02  0.00000000000E+00 0. -1.
<mgrwt>
<rscale>  0 0.13180026E+03</rscale>
<asrwt>0</asrwt>
<pdfrwt beam="1">  1        2 0.49589623E-01 0.14064566E+03</pdfrwt>
<pdfrwt beam="2">  1       -2 0.78037321E-02 0.14064566E+03</pdfrwt>
<totfact> 0.94471895E+03</totfact>
</mgrwt>
</event>
<event>
 6    1  0.1190675E-005  0.1355631E+03  0.7546771E-02  0.1231934E+00
         -1   -1    0    0    0  501 -0.00000000000E+00  0.00000000000E+00  0.27171423595E+02  0.27171423595E+02  0.00000000000E+00 0. -1.
          1   -1    0    0  501    0  0.00000000000E+00 -0.00000000000E+00 -0.55661451487E+03  0.55661451487E+03  0.00000000000E+00 0.  1.
          5    1    1    2  502    0  0.60647903692E+01  0.58306957436E+02 -0.13548453695E+03  0.14769777493E+03  0.47000000000E+01 0. -1.
         -5    1    1    2    0  502  0.46369442259E+02 -0.56498014161E+02 -0.98900355367E+02  0.12306714050E+03  0.47000000000E+01 0. -1.
        -11    1    1    2    0    0 -0.48987979086E+02 -0.41295687003E+02 -0.16291699390E+03  0.17506313936E+03  0.00000000000E+00 0.  1.
         11    1    1    2    0    0 -0.34462535417E+01  0.39486743729E+02 -0.13214120506E+03  0.13795788367E+03  0.00000000000E+00 0. -1.
<mgrwt>
<rscale>  0 0.12702758E+03</rscale>
<asrwt>0</asrwt>
<pdfrwt beam="2">  1        1 0.85632994E-01 0.13556313E+03</pdfrwt>
<pdfrwt beam="1">  1       -1 0.41802194E-02 0.13556313E+03</pdfrwt>
<totfact> 0.85961763E+03</totfact>
</mgrwt>
</event>
<event>
 6    1  0.1190675E-005  0.1374039E+03  0.7546771E-02  0.1228269E+00
         -2   -1    0    0    0  501 -0.00000000000E+00  0.00000000000E+00  0.15115474892E+03  0.15115474892E+03  0.00000000000E+00 0.  1.
          2   -1    0    0  501    0  0.00000000000E+00 -0.00000000000E+00 -0.10252885376E+03  0.10252885376E+03  0.00000000000E+00 0. -1.
          5    1    1    2  502    0 -0.30921051202E+02  0.40275684850E+02 -0.15546978070E+02  0.53310793698E+02  0.47000000000E+01 0. -1.
         -5    1    1    2    0  502  0.80299668025E+02 -0.11702935675E+02  0.22167692990E+02  0.84252548928E+02  0.47000000000E+01 0. -1.
        -11    1    1    2    0    0 -0.15903880132E+02  0.17766437639E+02  0.52809109509E+02  0.57942918090E+02  0.00000000000E+00 0.  1.
         11    1    1    2    0    0 -0.33474736691E+02 -0.46339186814E+02 -0.10803929268E+02  0.58177341970E+02  0.00000000000E+00 0. -1.
<mgrwt>
<rscale>  0 0.12945323E+03</rscale>
<asrwt>0</asrwt>
<pdfrwt beam="2">  1        2 0.15773670E-01 0.13740393E+03</pdfrwt>
<pdfrwt beam="1">  1       -2 0.23254577E-01 0.13740393E+03</pdfrwt>
<totfact> 0.56419991E+03</totfact>
</mgrwt>
</event>
<event>
 6    1  0.1190675E-005  0.1653976E+03  0.7546771E-02  0.1189957E+00
         -1   -1    0    0    0  501 -0.00000000000E+00  0.00000000000E+00  0.55838802337E+03  0.55838802337E+03  0.00000000000E+00 0. -1.
          1   -1    0    0  501    0  0.00000000000E+00 -0.00000000000E+00 -0.66641694683E+02  0.66641694683E+02  0.00000000000E+00 0.  1.
          5    1    1    2  502    0 -0.14272097950E+02 -0.13040352120E+02  0.59911826825E+02  0.63128920130E+02  0.47000000000E+01 0. -1.
         -5    1    1    2    0  502 -0.31929622331E+02  0.11101149111E+03  0.86982797403E+01  0.11593447292E+03  0.47000000000E+01 0. -1.
        -11    1    1    2    0    0  0.52251571361E+01 -0.12981282610E+02  0.16988279646E+01  0.14096169045E+02  0.00000000000E+00 0.  1.
         11    1    1    2    0    0  0.40976563146E+02 -0.84989856379E+02  0.42143739416E+03  0.43187015596E+03  0.00000000000E+00 0. -1.
<mgrwt>
<rscale>  0 0.15888913E+03</rscale>
<asrwt>0</asrwt>
<pdfrwt beam="2">  1        1 0.10252569E-01 0.16539756E+03</pdfrwt>
<pdfrwt beam="1">  1       -1 0.85905847E-01 0.16539756E+03</pdfrwt>
<totfact> 0.86412470E+02</totfact>
</mgrwt>
</event>
<event>
 6    1  0.1190675E-005  0.2086263E+03  0.7546771E-02  0.1172362E+00
         -1   -1    0    0    0  501 -0.00000000000E+00  0.00000000000E+00  0.30437745200E+02  0.30437745200E+02  0.00000000000E+00 0.  1.
          1   -1    0    0  501    0  0.00000000000E+00 -0.00000000000E+00 -0.86670492476E+03  0.86670492476E+03  0.00000000000E+00 0. -1.
          5    1    1    2  502    0 -0.18723072194E+02  0.74509726475E+02 -0.39163563414E+03  0.39912756444E+03  0.47000000000E+01 0. -1.
         -5    1    1    2    0  502 -0.60264354537E+01 -0.11771306131E+03 -0.27061195317E+03  0.29520433928E+03  0.47000000000E+01 0.  1.
        -11    1    1    2    0    0  0.36207120103E+02 -0.17253205398E+02 -0.91242369033E+02  0.99668443097E+02  0.00000000000E+00 0.  1.
         11    1    1    2    0    0 -0.11457612455E+02  0.60456540234E+02 -0.82777223219E+02  0.10314232315E+03  0.00000000000E+00 0. -1.
<mgrwt>
<rscale>  0 0.17536884E+03</rscale>
<asrwt>0</asrwt>
<pdfrwt beam="2">  1        1 0.13333921E+00 0.20862628E+03</pdfrwt>
<pdfrwt beam="1">  1       -1 0.46827305E-02 0.20862628E+03</pdfrwt>
<totfact> 0.39092426E+03</totfact>
</mgrwt>
</event>
<event>
 6    1  0.1190675E-005  0.4356279E+03  0.7546771E-02  0.1032097E+00
         -2   -1    0    0    0  501 -0.00000000000E+00  0.00000000000E+00  0.56615853515E+02  0.56615853515E+02  0.00000000000E+00 0. -1.
          2   -1    0    0  501    0  0.00000000000E+00 -0.00000000000E+00 -0.83797927088E+03  0.83797927088E+03  0.00000000000E+00 0.  1.
          5    1    1    2  502    0  0.17365633333E+01  0.65990783395E+01 -0.22499541692E+03  0.22514793164E+03  0.47000000000E+01 0. -1.
         -5    1    1    2    0  502 -0.57294524837E+02  0.15648486019E+03 -0.34160275562E+03  0.38011143983E+03  0.47000000000E+01 0. -1.
        -11    1    1    2    0    0  0.84912634980E+01 -0.11268796830E+03 -0.81643258564E+02  0.13941413639E+03  0.00000000000E+00 0. -1.
         11    1    1    2    0    0  0.47066698005E+02 -0.50395970230E+02 -0.13312198626E+03  0.14992161653E+03  0.00000000000E+00 0.  1.
<mgrwt>
<rscale>  0 0.43562788E+03</rscale>
<asrwt>0</asrwt>
<pdfrwt beam="2">  1        2 0.12891989E+00 0.43562788E+03</pdfrwt>
<pdfrwt beam="1">  1       -2 0.87101309E-02 0.43562788E+03</pdfrwt>
<totfact> 0.27736819E+03</totfact>
</mgrwt>
</event>
<event>
 6    1  0.1190675E-005  0.1304873E+03  0.7546771E-02  0.1239583E+00
          4   -1    0    0  501    0  0.00000000000E+00  0.00000000000E+00  0.11726313336E+04  0.11726313336E+04  0.00000000000E+00 0. -1.
         -4   -1    0    0    0  501 -0.00000000000E+00 -0.00000000000E+00 -0.11839276305E+02  0.11839276305E+02  0.00000000000E+00 0.  1.
          5    1    1    2  502    0  0.90273784662E+01  0.40982308219E+02  0.73247266171E+03  0.73368885319E+03  0.47000000000E+01 0. -1.
         -5    1    1    2    0  502  0.20934648158E+02 -0.20582131452E+02  0.40618535443E+02  0.50337253105E+02  0.47000000000E+01 0. -1.
        -11    1    1    2    0    0 -0.41858686915E+02 -0.50576056477E+02  0.29548306344E+03  0.30268849985E+03  0.00000000000E+00 0. -1.
         11    1    1    2    0    0  0.11896660291E+02  0.30175879710E+02  0.92217796677E+02  0.97756003735E+02  0.00000000000E+00 0.  1.
<mgrwt>
<rscale>  0 0.12215568E+03</rscale>
<asrwt>0</asrwt>
<pdfrwt beam="1">  1        4 0.18040473E+00 0.13048730E+03</pdfrwt>
<pdfrwt beam="2">  1       -4 0.18214280E-02 0.13048730E+03</pdfrwt>
<totfact> 0.38001238E+02</totfact>
</mgrwt>
</event>
<event>
 6    1  0.1190675E-005  0.1388133E+03  0.7546771E-02  0.1226554E+00
         -2   -1    0    0    0  501 -0.00000000000E+00  0.00000000000E+00  0.20514793166E+03  0.20514793166E+03  0.00000000000E+00 0.  1.
          2   -1    0    0  501    0  0.00000000000E+00 -0.00000000000E+00 -0.97439340654E+02  0.97439340654E+02  0.00000000000E+00 0. -1.
          5    1    1    2  502    0 -0.18592688573E+02 -0.36073386963E+02 -0.46846264249E+01  0.41121928944E+02  0.47000000000E+01 0. -1.
         -5    1    1    2    0  502  0.68866269130E+02  0.69498320568E+02 -0.91076885243E+01  0.98374893016E+02  0.47000000000E+01 0. -1.
        -11    1    1    2    0    0 -0.19496138004E+01  0.25804568965E+02  0.96608742622E+01  0.27622622340E+02  0.00000000000E+00 0. -1.
         11    1    1    2    0    0 -0.48323966757E+02 -0.59229502569E+02  0.11184003170E+03  0.13546782802E+03  0.00000000000E+00 0.  1.
<mgrwt>
<rscale>  0 0.13060929E+03</rscale>
<asrwt>0</asrwt>
<pdfrwt beam="2">  1        2 0.14990668E-01 0.13881331E+03</pdfrwt>
<pdfrwt beam="1">  1       -2 0.31561220E-01 0.13881331E+03</pdfrwt>
<totfact> 0.34896336E+03</totfact>
</mgrwt>
</event>
<event>
 6    1  0.1190675E-005  0.1260493E+03  0.7546771E-02  0.1246482E+00
          1   -1    0    0  501    0  0.00000000000E+00  0.00000000000E+00  0.31650012724E+03  0.31650012724E+03  0.00000000000E+00 0. -1.
         -1   -1    0    0    0  501 -0.00000000000E+00 -0.00000000000E+00 -0.39215034264E+02  0.39215034264E+02  0.00000000000E+00 0.  1.
          5    1    1    2  502    0  0.13186629136E+02  0.53299738653E+02  0.49171867574E+02  0.73856021347E+02  0.47000000000E+01 0.  1.
         -5    1    1    2    0  502 -0.27101997253E+02 -0.61673940456E+02  0.11155602490E+03  0.13040333538E+03  0.47000000000E+01 0.  1.
        -11    1    1    2    0    0 -0.37996462371E+02  0.40673511560E+01  0.23643254268E+02  0.44936376918E+02  0.00000000000E+00 0.  1.
         11    1    1    2    0    0  0.51911830487E+02  0.43068506476E+01  0.92913946238E+02  0.10651942786E+03  0.00000000000E+00 0. -1.
<mgrwt>
<rscale>  0 0.11797116E+03</rscale>
<asrwt>0</asrwt>
<pdfrwt beam="1">  1        1 0.48692326E-01 0.12604931E+03</pdfrwt>
<pdfrwt beam="2">  1       -1 0.60330824E-02 0.12604931E+03</pdfrwt>
<totfact> 0.10200548E+04</totfact>
</mgrwt>
</event>
<event>
 6    1  0.1190675E-005  0.1275053E+03  0.7546771E-02  0.1247007E+00
         -3   -1    0    0    0  501 -0.00000000000E+00  0.00000000000E+00  0.31264443825E+03  0.31264443825E+03  0.00000000000E+00 0.  1.
          3   -1    0    0  501    0  0.00000000000E+00 -0.00000000000E+00 -0.45608559332E+02  0.45608559332E+02  0.00000000000E+00 0. -1.
          5    1    1    2  502    0  0.52035000510E+02 -0.17975232826E+02 -0.60862071650E+01  0.55586708761E+02  0.47000000000E+01 0. -1.
         -5    1    1    2    0  502 -0.27739147298E+02  0.25051410614E+02  0.88633293174E+02  0.96306719005E+02  0.47000000000E+01 0. -1.
        -11    1    1    2    0    0 -0.23366767319E+02  0.30789748896E+02  0.34991315155E+02  0.52138340866E+02  0.00000000000E+00 0. -1.
         11    1    1    2    0    0 -0.92908589269E+00 -0.37865926683E+02  0.14949747775E+03  0.15422122895E+03  0.00000000000E+00 0.  1.
<mgrwt>
<rscale>  0 0.11766035E+03</rscale>
<asrwt>0</asrwt>
<pdfrwt beam="2">  1        3 0.70167016E-02 0.12750526E+03</pdfrwt>
<pdfrwt beam="1">  1       -3 0.48099143E-01 0.12750526E+03</pdfrwt>
<totfact> 0.12995763E+03</totfact>
</mgrwt>
</event>
<event>
 6    1  0.2081037E-005  0.2662234E+03  0.7546771E-02  0.1105846E+00
          1   -1    0    0  501    0  0.00000000000E+00  0.00000000000E+00  0.90478519638E+03  0.90478519638E+03  0.00000000000E+00 0. -1.
         -1   -1    0    0    0  501 -0.00000000000E+00 -0.00000000000E+00 -0.78007192558E+02  0.78007192558E+02  0.00000000000E+00 0.  1.
          5    1    1    2  502    0 -0.87093546104E+02 -0.20992931654E+02  0.10578408256E+03  0.13870238309E+03  0.47000000000E+01 0.  1.
         -5    1    1    2    0  502 -0.14042378273E+03  0.80033514005E+02  0.43447067985E+03  0.46358501245E+03  0.47000000000E+01 0.  1.
        -11    1    1    2    0    0  0.25801180410E+02  0.14792548187E+02  0.67334502078E+02  0.73610159370E+02  0.00000000000E+00 0. -1.
         11    1    1    2    0    0  0.20171614843E+03 -0.73833130538E+02  0.21918873934E+03  0.30689483403E+03  0.00000000000E+00 0.  1.
<mgrwt>
<rscale>  0 0.26217009E+03</rscale>
<asrwt>0</asrwt>
<pdfrwt beam="1">  1        1 0.13919772E+00 0.26622340E+03</pdfrwt>
<pdfrwt beam="2">  1       -1 0.12001107E-01 0.26622340E+03</pdfrwt>
<totfact> 0.86926323E+02</totfact>
</mgrwt>
</event>
<event>
 6    1  0.1190675E-005  0.2841136E+03  0.7546771E-02  0.1095299E+00
          2   -1    0    0  501    0  0.00000000000E+00  0.00000000000E+00  0.94815887436E+03  0.94815887436E+03  0.00000000000E+00 0. -1.
         -2   -1    0    0    0  501 -0.00000000000E+00 -0.00000000000E+00 -0.81396672768E+02  0.81396672768E+02  0.00000000000E+00 0.  1.
          5    1    1    2  502    0 -0.67873091356E+02  0.17325282145E+03  0.37738091413E+03  0.42078704950E+03  0.47000000000E+01 0. -1.
         -5    1    1    2    0  502  0.38352279496E+02  0.80176140176E+02  0.92898233382E+02  0.12865178802E+03  0.47000000000E+01 0. -1.
        -11    1    1    2    0    0  0.24619812726E+02 -0.20624049082E+03  0.37357392969E+03  0.42743275047E+03  0.00000000000E+00 0. -1.
         11    1    1    2    0    0  0.49009991347E+01 -0.47188470814E+02  0.22909124385E+02  0.52683959137E+02  0.00000000000E+00 0.  1.
<mgrwt>
<rscale>  0 0.28071580E+03</rscale>
<asrwt>0</asrwt>
<pdfrwt beam="1">  1        2 0.14587059E+00 0.28411364E+03</pdfrwt>
<pdfrwt beam="2">  1       -2 0.12522566E-01 0.28411364E+03</pdfrwt>
<totfact> 0.13054328E+03</totfact>
</mgrwt>
</event>
<event>
 6    1  0.1190675E-005  0.1384225E+03  0.7546771E-02  0.1227131E+00
          1   -1    0    0  501    0  0.00000000000E+00  0.00000000000E+00  0.85545790240E+02  0.85545790240E+02  0.00000000000E+00 0. -1.
         -1   -1    0    0    0  501 -0.00000000000E+00 -0.00000000000E+00 -0.20257026339E+03  0.20257026339E+03  0.00000000000E+00 0.  1.
          5    1    1    2  502    0 -0.27345820713E+02 -0.27766494209E+02  0.20309417533E+01  0.39306320554E+02  0.47000000000E+01 0. -1.
         -5    1    1    2    0  502  0.72289616814E+02  0.66690793262E+02 -0.17008064810E+02  0.99924045523E+02  0.47000000000E+01 0. -1.
        -11    1    1    2    0    0  0.23395717129E+02 -0.32112752040E+02 -0.37932889347E+02  0.54931707763E+02  0.00000000000E+00 0.  1.
         11    1    1    2    0    0 -0.68339513230E+02 -0.68115470141E+01 -0.64114460744E+02  0.93953979787E+02  0.00000000000E+00 0. -1.
<mgrwt>
<rscale>  0 0.13021915E+03</rscale>
<asrwt>0</asrwt>
<pdfrwt beam="1">  1        1 0.13160891E-01 0.13842247E+03</pdfrwt>
<pdfrwt beam="2">  1       -1 0.31164656E-01 0.13842247E+03</pdfrwt>
<totfact> 0.40715614E+03</totfact>
</mgrwt>
</event>
<event>
 6    1  0.1750712E-005  0.2806344E+03  0.7546771E-02  0.1095343E+00
         -3   -1    0    0    0  501 -0.00000000000E+00  0.00000000000E+00  0.80622753870E+02  0.80622753870E+02  0.00000000000E+00 0.  1.
          3   -1    0    0  501    0  0.00000000000E+00 -0.00000000000E+00 -0.24421044916E+03  0.24421044916E+03  0.00000000000E+00 0. -1.
          5    1    1    2  502    0  0.16303025685E+02  0.15997714218E+02  0.10695614977E+02  0.25655441653E+02  0.47000000000E+01 0. -1.
         -5    1    1    2    0  502 -0.50198699322E+02 -0.96476232210E+02 -0.11961622704E+03  0.16173343676E+03  0.47000000000E+01 0. -1.
        -11    1    1    2    0    0  0.34990086434E+02  0.34122775502E+02  0.17289247424E+02  0.51841952443E+02  0.00000000000E+00 0.  1.
         11    1    1    2    0    0 -0.10944127963E+01  0.46355742490E+02 -0.71956330658E+02  0.85602372180E+02  0.00000000000E+00 0. -1.
<mgrwt>
<rscale>  0 0.28063442E+03</rscale>
<asrwt>0</asrwt>
<pdfrwt beam="2">  1        3 0.37570838E-01 0.28063442E+03</pdfrwt>
<pdfrwt beam="1">  1       -3 0.12403501E-01 0.28063442E+03</pdfrwt>
<totfact> 0.91786452E+02</totfact>
</mgrwt>
</event>
<event>
 6    1  0.1190675E-005  0.1339821E+03  0.7546771E-02  0.1236561E+00
         -2   -1    0    0    0  501 -0.00000000000E+00  0.00000000000E+00  0.14560892888E+02  0.14560892888E+02  0.00000000000E+00 0.  1.
          2   -1    0    0  501    0  0.00000000000E+00 -0.00000000000E+00 -0.16625274294E+04  0.16625274294E+04  0.00000000000E+00 0. -1.
          5    1    1    2  502    0 -0.39627402610E+01 -0.82539456906E+02 -0.74753321909E+03  0.75210136877E+03  0.47000000000E+01 0. -1.
         -5    1    1    2    0  502 -0.28188467426E+02  0.38095666283E+02 -0.70058531694E+03  0.70220206906E+03  0.47000000000E+01 0.  1.
        -11    1    1    2    0    0  0.14162791604E+02 -0.23104230403E+02 -0.74312344587E+02  0.79099397510E+02  0.00000000000E+00 0. -1.
         11    1    1    2    0    0  0.17988416083E+02  0.67548021026E+02 -0.12553565588E+03  0.14368548693E+03  0.00000000000E+00 0.  1.
<mgrwt>
<rscale>  0 0.12405013E+03</rscale>
<asrwt>0</asrwt>
<pdfrwt beam="2">  1        2 0.25577345E+00 0.13398207E+03</pdfrwt>
<pdfrwt beam="1">  1       -2 0.22401374E-02 0.13398207E+03</pdfrwt>
<totfact> 0.71821914E+03</totfact>
</mgrwt>
</event>
<event>
 6    1  0.1190675E-005  0.1386074E+03  0.7546771E-02  0.1226736E+00
         -1   -1    0    0    0  501 -0.00000000000E+00  0.00000000000E+00  0.20064164678E+02  0.20064164678E+02  0.00000000000E+00 0.  1.
          1   -1    0    0  501    0  0.00000000000E+00 -0.00000000000E+00 -0.88005154762E+03  0.88005154762E+03  0.00000000000E+00 0. -1.
          5    1    1    2  502    0 -0.27036389901E+02 -0.54699917042E+02 -0.17313177796E+03  0.18362938175E+03  0.47000000000E+01 0.  1.
         -5    1    1    2    0  502 -0.32844484349E+02  0.54750040911E+02 -0.46470451273E+03  0.46909348886E+03  0.47000000000E+01 0.  1.
        -11    1    1    2    0    0  0.50593066998E+02  0.29110450694E+02 -0.20315155107E+03  0.21137083401E+03  0.00000000000E+00 0. -1.
         11    1    1    2    0    0  0.92878072513E+01 -0.29160574562E+02 -0.18999541180E+02  0.36022007681E+02  0.00000000000E+00 0.  1.
<mgrwt>
<rscale>  0 0.13048611E+03</rscale>
<asrwt>0</asrwt>
<pdfrwt beam="2">  1        1 0.13539253E+00 0.13860740E+03</pdfrwt>
<pdfrwt beam="1">  1       -1 0.30867949E-02 0.13860740E+03</pdfrwt>
<totfact> 0.69423534E+03</totfact>
</mgrwt>
</event>
<event>
 6    1  0.1190675E-005  0.1427096E+03  0.7546771E-02  0.1220086E+00
         -4   -1    0    0    0  501 -0.00000000000E+00  0.00000000000E+00  0.15126453818E+02  0.15126453818E+02  0.00000000000E+00 0. -1.
          4   -1    0    0  501    0  0.00000000000E+00 -0.00000000000E+00 -0.11058228041E+04  0.11058228041E+04  0.00000000000E+00 0.  1.
          5    1    1    2  502    0  0.14452235456E+02  0.46255016840E+02 -0.89433432780E+02  0.10182741572E+03  0.47000000000E+01 0. -1.
         -5    1    1    2    0  502 -0.56116443688E+02  0.85662700491E+01 -0.57183778311E+03  0.57466770958E+03  0.47000000000E+01 0. -1.
        -11    1    1    2    0    0  0.38650816463E+01 -0.62370368579E+02 -0.35682889229E+03  0.36225938236E+03  0.00000000000E+00 0.  1.
         11    1    1    2    0    0  0.37799126586E+02  0.75490816905E+01 -0.72596242116E+02  0.82194750285E+02  0.00000000000E+00 0. -1.
<mgrwt>
<rscale>  0 0.13509448E+03</rscale>
<asrwt>0</asrwt>
<pdfrwt beam="2">  1        4 0.17012663E+00 0.14270961E+03</pdfrwt>
<pdfrwt beam="1">  1       -4 0.23271461E-02 0.14270961E+03</pdfrwt>
<totfact> 0.30972060E+02</totfact>
</mgrwt>
</event>
<event>
 6    1  0.1190675E-005  0.1475277E+03  0.7546771E-02  0.1213167E+00
         -1   -1    0    0    0  501 -0.00000000000E+00  0.00000000000E+00  0.23888767542E+03  0.23888767542E+03  0.00000000000E+00 0.  1.
          1   -1    0    0  501    0  0.00000000000E+00 -0.00000000000E+00 -0.12379327014E+03  0.12379327014E+03  0.00000000000E+00 0. -1.
          5    1    1    2  502    0  0.34139310834E+02  0.76649700047E+02  0.11885278667E+02  0.84876492096E+02  0.47000000000E+01 0. -1.
         -5    1    1    2    0  502  0.22140704951E+02 -0.22136544802E+02 -0.64325173601E+02  0.71694179612E+02  0.47000000000E+01 0. -1.
        -11    1    1    2    0    0 -0.53984116805E+02 -0.76948094974E+02  0.11228221116E+03  0.14643288268E+03  0.00000000000E+00 0. -1.
         11    1    1    2    0    0 -0.22958989798E+01  0.22434939729E+02  0.55252089057E+02  0.59677391179E+02  0.00000000000E+00 0.  1.
<mgrwt>
<rscale>  0 0.14012067E+03</rscale>
<asrwt>0</asrwt>
<pdfrwt beam="2">  1        1 0.19045119E-01 0.14752774E+03</pdfrwt>
<pdfrwt beam="1">  1       -1 0.36751950E-01 0.14752774E+03</pdfrwt>
<totfact> 0.19109346E+03</totfact>
</mgrwt>
</event>
<event>
 6    1  0.1190675E-005  0.1378633E+03  0.7546771E-02  0.1237428E+00
         -2   -1    0    0    0  501 -0.00000000000E+00  0.00000000000E+00  0.16389300126E+03  0.16389300126E+03  0.00000000000E+00 0.  1.
          2   -1    0    0  501    0  0.00000000000E+00 -0.00000000000E+00 -0.82529613341E+02  0.82529613341E+02  0.00000000000E+00 0. -1.
          5    1    1    2  502    0  0.59105369318E+02 -0.70273986783E+01  0.34349627821E+02  0.68882624412E+02  0.47000000000E+01 0. -1.
         -5    1    1    2    0  502 -0.35060684390E+02  0.59975329883E+02 -0.12373651509E+02  0.70721206410E+02  0.47000000000E+01 0. -1.
        -11    1    1    2    0    0 -0.11154857404E+02 -0.47509921906E+01  0.55464224748E+02  0.56773964080E+02  0.00000000000E+00 0.  1.
         11    1    1    2    0    0 -0.12889827525E+02 -0.48196939014E+02  0.39231868622E+01  0.50044819703E+02  0.00000000000E+00 0. -1.
<mgrwt>
<rscale>  0 0.12350245E+03</rscale>
<asrwt>0</asrwt>
<pdfrwt beam="2">  1        2 0.12696864E-01 0.13786329E+03</pdfrwt>
<pdfrwt beam="1">  1       -2 0.25214308E-01 0.13786329E+03</pdfrwt>
<totfact> 0.63324824E+03</totfact>
</mgrwt>
</event>
<event>
 6    1  0.1190675E-005  0.1168980E+03  0.7546771E-02  0.1260656E+00
          2   -1    0    0  501    0  0.00000000000E+00  0.00000000000E+00  0.56949223470E+02  0.56949223470E+02  0.00000000000E+00 0. -1.
         -2   -1    0    0    0  501 -0.00000000000E+00 -0.00000000000E+00 -0.19101180418E+03  0.19101180418E+03  0.00000000000E+00 0.  1.
          5    1    1    2  502    0  0.43922427175E+02  0.31186054065E+02 -0.97917434687E+01  0.54951959176E+02  0.47000000000E+01 0. -1.
         -5    1    1    2    0  502 -0.34227934245E+02 -0.37016635953E+02 -0.70765069192E+02  0.87014756437E+02  0.47000000000E+01 0.  1.
        -11    1    1    2    0    0 -0.34972812331E+02 -0.83904304920E+01 -0.65407468169E+02  0.74643377592E+02  0.00000000000E+00 0.  1.
         11    1    1    2    0    0  0.25278319400E+02  0.14221012380E+02  0.11901700119E+02  0.31350934445E+02  0.00000000000E+00 0. -1.
<mgrwt>
<rscale>  0 0.10995337E+03</rscale>
<asrwt>0</asrwt>
<pdfrwt beam="1">  1        2 0.87614189E-02 0.11689803E+03</pdfrwt>
<pdfrwt beam="2">  1       -2 0.29386432E-01 0.11689803E+03</pdfrwt>
<totfact> 0.74905848E+03</totfact>
</mgrwt>
</event>
<event>
 6    1  0.1190675E-005  0.1361053E+03  0.7546771E-02  0.1231121E+00
          1   -1    0    0  501    0  0.00000000000E+00  0.00000000000E+00  0.45215466541E+02  0.45215466541E+02  0.00000000000E+00 0. -1.
         -1   -1    0    0    0  501 -0.00000000000E+00 -0.00000000000E+00 -0.32166645830E+03  0.32166645830E+03  0.00000000000E+00 0.  1.
          5    1    1    2  502    0 -0.68626918820E+02  0.85909080680E+01 -0.67376504033E+02  0.96670269390E+02  0.47000000000E+01 0. -1.
         -5    1    1    2    0  502  0.38062667140E+02 -0.52886547661E+02 -0.93411835630E+02  0.11398953719E+03  0.47000000000E+01 0. -1.
        -11    1    1    2    0    0  0.25629598653E+02  0.20559294789E+02  0.49230392395E+01  0.33223444203E+02  0.00000000000E+00 0. -1.
         11    1    1    2    0    0  0.49346530270E+01  0.23736344804E+02 -0.12058569134E+03  0.12299867406E+03  0.00000000000E+00 0.  1.
<mgrwt>
<rscale>  0 0.12756044E+03</rscale>
<asrwt>0</asrwt>
<pdfrwt beam="1">  1        1 0.69562257E-02 0.13610534E+03</pdfrwt>
<pdfrwt beam="2">  1       -1 0.49487147E-01 0.13610534E+03</pdfrwt>
<totfact> 0.42242658E+03</totfact>
</mgrwt>
</event>
<event>
 6    1  0.1190675E-005  0.2810601E+03  0.7546771E-02  0.1095111E+00
          2   -1    0    0  501    0  0.00000000000E+00  0.00000000000E+00  0.23906674407E+03  0.23906674407E+03  0.00000000000E+00 0. -1.
         -2   -1    0    0    0  501 -0.00000000000E+00 -0.00000000000E+00 -0.82607433021E+02  0.82607433021E+02  0.00000000000E+00 0.  1.
          5    1    1    2  502    0  0.21407570906E+02 -0.15894684449E+02 -0.16786755470E+02  0.31856086468E+02  0.47000000000E+01 0.  1.
         -5    1    1    2    0  502  0.32891290537E+02  0.82960567751E+02  0.12926385003E+03  0.15714810122E+03  0.47000000000E+01 0.  1.
        -11    1    1    2    0    0 -0.36033342498E+01 -0.64348882125E+02  0.49966714834E+02  0.81550200734E+02  0.00000000000E+00 0. -1.
         11    1    1    2    0    0 -0.50695527192E+02 -0.27170011768E+01 -0.59844983410E+01  0.51119788665E+02  0.00000000000E+00 0.  1.
<mgrwt>
<rscale>  0 0.28106007E+03</rscale>
<asrwt>0</asrwt>
<pdfrwt beam="1">  1        2 0.36779499E-01 0.28106007E+03</pdfrwt>
<pdfrwt beam="2">  1       -2 0.12708836E-01 0.28106007E+03</pdfrwt>
<totfact> 0.62659110E+03</totfact>
</mgrwt>
</event>
<event>
 6    1  0.1190675E-005  0.3711733E+03  0.7546771E-02  0.1054245E+00
          2   -1    0    0  501    0  0.00000000000E+00  0.00000000000E+00  0.20566671985E+04  0.20566671985E+04  0.00000000000E+00 0. -1.
         -2   -1    0    0    0  501 -0.00000000000E+00 -0.00000000000E+00 -0.16746711886E+02  0.16746711886E+02  0.00000000000E+00 0.  1.
          5    1    1    2  502    0  0.75181812933E+01 -0.15104019490E+03  0.10063804499E+04  0.10176902100E+04  0.47000000000E+01 0. -1.
         -5    1    1    2    0  502  0.24675691178E+02  0.15224867620E+02  0.40640531058E+03  0.40746540073E+03  0.47000000000E+01 0. -1.
        -11    1    1    2    0    0  0.11872700541E+02  0.93029648122E+02  0.26863453627E+03  0.28453469125E+03  0.00000000000E+00 0.  1.
         11    1    1    2    0    0 -0.44066573012E+02  0.42785679155E+02  0.35850018983E+03  0.36372360840E+03  0.00000000000E+00 0. -1.
<mgrwt>
<rscale>  0 0.37117335E+03</rscale>
<asrwt>0</asrwt>
<pdfrwt beam="1">  1        2 0.31641014E+00 0.37117335E+03</pdfrwt>
<pdfrwt beam="2">  1       -2 0.25764188E-02 0.37117335E+03</pdfrwt>
<totfact> 0.36746597E+03</totfact>
</mgrwt>
</event>
<event>
 6    1  0.1190675E-005  0.1263686E+03  0.7546771E-02  0.1247917E+00
          1   -1    0    0  501    0  0.00000000000E+00  0.00000000000E+00  0.31568442315E+03  0.31568442315E+03  0.00000000000E+00 0. -1.
         -1   -1    0    0    0  501 -0.00000000000E+00 -0.00000000000E+00 -0.63554171749E+02  0.63554171749E+02  0.00000000000E+00 0.  1.
          5    1    1    2  502    0 -0.48658473127E+02 -0.11517134813E+02  0.44886904576E+02  0.67358856906E+02  0.47000000000E+01 0.  1.
         -5    1    1    2    0  502  0.54211942260E+02 -0.61816518463E+01  0.21155091582E+03  0.21852466105E+03  0.47000000000E+01 0.  1.
        -11    1    1    2    0    0 -0.21177385012E+02 -0.18388382541E+02 -0.34003584117E+02  0.44077862711E+02  0.00000000000E+00 0.  1.
         11    1    1    2    0    0  0.15623915879E+02  0.36087169200E+02  0.29696015124E+02  0.49277214233E+02  0.00000000000E+00 0. -1.
<mgrwt>
<rscale>  0 0.11712463E+03</rscale>
<asrwt>0</asrwt>
<pdfrwt beam="1">  1        1 0.48566833E-01 0.12636863E+03</pdfrwt>
<pdfrwt beam="2">  1       -1 0.97775651E-02 0.12636863E+03</pdfrwt>
<totfact> 0.49529485E+03</totfact>
</mgrwt>
</event>
<event>
 6    1  0.1190675E-005  0.5124455E+03  0.7546771E-02  0.1010581E+00
          2   -1    0    0  501    0  0.00000000000E+00  0.00000000000E+00  0.30071270169E+03  0.30071270169E+03  0.00000000000E+00 0. -1.
         -2   -1    0    0    0  501 -0.00000000000E+00 -0.00000000000E+00 -0.21831501350E+03  0.21831501350E+03  0.00000000000E+00 0.  1.
          5    1    1    2  502    0 -0.85773433350E+02  0.32121695152E+02  0.22721866513E+03  0.24502917572E+03  0.47000000000E+01 0. -1.
         -5    1    1    2    0  502  0.26365022570E+02 -0.18466983484E+02  0.44188760595E+02  0.54871490385E+02  0.47000000000E+01 0.  1.
        -11    1    1    2    0    0  0.26363849482E+02 -0.23863739897E+02 -0.17987371199E+03  0.18335507331E+03  0.00000000000E+00 0.  1.
         11    1    1    2    0    0  0.33044561298E+02  0.10209028229E+02 -0.91360255476E+01  0.35771975785E+02  0.00000000000E+00 0. -1.
<mgrwt>
<rscale>  0 0.51244550E+03</rscale>
<asrwt>0</asrwt>
<pdfrwt beam="1">  1        2 0.46263493E-01 0.51244550E+03</pdfrwt>
<pdfrwt beam="2">  1       -2 0.33586925E-01 0.51244550E+03</pdfrwt>
<totfact> 0.90992517E+02</totfact>
</mgrwt>
</event>
<event>
 6    1  0.1190675E-005  0.1669239E+03  0.7546771E-02  0.1187905E+00
          2   -1    0    0  501    0  0.00000000000E+00  0.00000000000E+00  0.21336761215E+03  0.21336761215E+03  0.00000000000E+00 0.  1.
         -2   -1    0    0    0  501 -0.00000000000E+00 -0.00000000000E+00 -0.11296592087E+03  0.11296592087E+03  0.00000000000E+00 0. -1.
          5    1    1    2  502    0  0.98281126110E+02 -0.50484202512E+02  0.13859053295E+02  0.11145401658E+03  0.47000000000E+01 0. -1.
         -5    1    1    2    0  502 -0.29822404137E+02 -0.36415606890E+02  0.45712278770E+02  0.65781263624E+02  0.47000000000E+01 0. -1.
        -11    1    1    2    0    0 -0.62413751755E+02  0.76880376421E+02  0.67588869969E+02  0.11989296906E+03  0.00000000000E+00 0.  1.
         11    1    1    2    0    0 -0.60449702184E+01  0.10019432982E+02 -0.26758510751E+02  0.29205283766E+02  0.00000000000E+00 0. -1.
<mgrwt>
<rscale>  0 0.16070346E+03</rscale>
<asrwt>0</asrwt>
<pdfrwt beam="1">  1        2 0.32825786E-01 0.16692394E+03</pdfrwt>
<pdfrwt beam="2">  1       -2 0.17379372E-01 0.16692394E+03</pdfrwt>
<totfact> 0.41202676E+03</totfact>
</mgrwt>
</event>
<event>
 6    1  0.1190675E-005  0.2749657E+03  0.7546771E-02  0.1100476E+00
         -1   -1    0    0    0  501 -0.00000000000E+00  0.00000000000E+00  0.19140875975E+03  0.19140875975E+03  0.00000000000E+00 0.  1.
          1   -1    0    0  501    0  0.00000000000E+00 -0.00000000000E+00 -0.49386282572E+03  0.49386282572E+03  0.00000000000E+00 0. -1.
          5    1    1    2  502    0 -0.68285886937E+02  0.10524999308E+01 -0.13986536573E+03  0.15571923658E+03  0.47000000000E+01 0.  1.
         -5    1    1    2    0  502 -0.12564585464E+03 -0.15063385197E+03 -0.18225766499E+03  0.26780101679E+03  0.47000000000E+01 0.  1.
        -11    1    1    2    0    0  0.15975001192E+03  0.15845669761E+03  0.10439507819E+02  0.22525002697E+03  0.00000000000E+00 0.  1.
         11    1    1    2    0    0  0.34181729660E+02 -0.88753455748E+01  0.92294569241E+01  0.36501305137E+02  0.00000000000E+00 0. -1.
<mgrwt>
<rscale>  0 0.27140870E+03</rscale>
<asrwt>0</asrwt>
<pdfrwt beam="2">  1        1 0.75978896E-01 0.27496574E+03</pdfrwt>
<pdfrwt beam="1">  1       -1 0.29447502E-01 0.27496574E+03</pdfrwt>
<totfact> 0.48692156E+02</totfact>
</mgrwt>
</event>
<event>
 6    1  0.1190675E-005  0.1437445E+03  0.7546771E-02  0.1217643E+00
          1   -1    0    0  501    0  0.00000000000E+00  0.00000000000E+00  0.80338604353E+03  0.80338604353E+03  0.00000000000E+00 0. -1.
         -1   -1    0    0    0  501 -0.00000000000E+00 -0.00000000000E+00 -0.21451332692E+02  0.21451332692E+02  0.00000000000E+00 0.  1.
          5    1    1    2  502    0  0.48503226790E+02  0.10417187254E+02  0.39907097984E+03  0.40217013533E+03  0.47000000000E+01 0. -1.
         -5    1    1    2    0  502 -0.11400675890E+02  0.50020347840E+02  0.61054765048E+02  0.79886074780E+02  0.47000000000E+01 0. -1.
        -11    1    1    2    0    0 -0.18696032172E+02 -0.79270327393E+02  0.29133591209E+03  0.30250609927E+03  0.00000000000E+00 0. -1.
         11    1    1    2    0    0 -0.18406518728E+02  0.18832792299E+02  0.30473053862E+02  0.40275066842E+02  0.00000000000E+00 0.  1.
<mgrwt>
<rscale>  0 0.13684162E+03</rscale>
<asrwt>0</asrwt>
<pdfrwt beam="1">  1        1 0.12359783E+00 0.14374453E+03</pdfrwt>
<pdfrwt beam="2">  1       -1 0.33002057E-02 0.14374453E+03</pdfrwt>
<totfact> 0.72614065E+03</totfact>
</mgrwt>
</event>
<event>
 6    1  0.1190675E-005  0.2848674E+03  0.7546771E-02  0.1093060E+00
          2   -1    0    0  501    0  0.00000000000E+00  0.00000000000E+00  0.24027905669E+03  0.24027905669E+03  0.00000000000E+00 0. -1.
         -2   -1    0    0    0  501 -0.00000000000E+00 -0.00000000000E+00 -0.84432475841E+02  0.84432475841E+02  0.00000000000E+00 0.  1.
          5    1    1    2  502    0 -0.87398077769E+01 -0.40837409775E+02  0.18638782379E+03  0.19106697552E+03  0.47000000000E+01 0. -1.
         -5    1    1    2    0  502  0.20637697896E+02  0.80734478862E+01 -0.12523774706E+02  0.25884939021E+02  0.47000000000E+01 0. -1.
        -11    1    1    2    0    0 -0.48229832318E+02 -0.10328872517E+02 -0.13899450108E+02  0.51244483081E+02  0.00000000000E+00 0.  1.
         11    1    1    2    0    0  0.36331942199E+02  0.43092834406E+02 -0.41180181232E+01  0.56515134914E+02  0.00000000000E+00 0. -1.
<mgrwt>
<rscale>  0 0.28486738E+03</rscale>
<asrwt>0</asrwt>
<pdfrwt beam="1">  1        2 0.36966008E-01 0.28486738E+03</pdfrwt>
<pdfrwt beam="2">  1       -2 0.12989612E-01 0.28486738E+03</pdfrwt>
<totfact> 0.60166871E+03</totfact>
</mgrwt>
</event>
<event>
 6    1  0.1190675E-005  0.3290504E+03  0.7546771E-02  0.1071558E+00
         -2   -1    0    0    0  501 -0.00000000000E+00  0.00000000000E+00  0.37020873443E+02  0.37020873443E+02  0.00000000000E+00 0.  1.
          2   -1    0    0  501    0  0.00000000000E+00 -0.00000000000E+00 -0.73116976828E+03  0.73116976828E+03  0.00000000000E+00 0. -1.
          5    1    1    2  502    0 -0.21971698708E+02  0.23824175251E+02 -0.41827022171E+02  0.53121903714E+02  0.47000000000E+01 0.  1.
         -5    1    1    2    0  502  0.11901609031E+03  0.34364486647E+02 -0.45226642152E+03  0.46894856192E+03  0.47000000000E+01 0.  1.
        -11    1    1    2    0    0 -0.78227831302E+02 -0.13004329541E+02 -0.65220516083E+02  0.10267629666E+03  0.00000000000E+00 0.  1.
         11    1    1    2    0    0 -0.18816560303E+02 -0.45184332357E+02 -0.13483493506E+03  0.14344387943E+03  0.00000000000E+00 0. -1.
<mgrwt>
<rscale>  0 0.32905041E+03</rscale>
<asrwt>0</asrwt>
<pdfrwt beam="2">  1        2 0.11248765E+00 0.32905041E+03</pdfrwt>
<pdfrwt beam="1">  1       -2 0.56955195E-02 0.32905041E+03</pdfrwt>
<totfact> 0.63922926E+03</totfact>
</mgrwt>
</event>
<event>
 6    1  0.1190675E-005  0.2412314E+03  0.7546771E-02  0.1121451E+00
         -1   -1    0    0    0  501 -0.00000000000E+00  0.00000000000E+00  0.13007926412E+03  0.13007926412E+03  0.00000000000E+00 0.  1.
          1   -1    0    0  501    0  0.00000000000E+00 -0.00000000000E+00 -0.80725505719E+03  0.80725505719E+03  0.00000000000E+00 0. -1.
          5    1    1    2  502    0  0.11012825304E+03  0.22013824426E+02 -0.18480770467E+03  0.21630723124E+03  0.47000000000E+01 0.  1.
         -5    1    1    2    0  502  0.77364821926E+02  0.66808858166E+02 -0.48338176915E+03  0.49409388171E+03  0.47000000000E+01 0.  1.
        -11    1    1    2    0    0 -0.59667260590E+02 -0.60331324623E+02  0.30466790853E+02  0.90156952377E+02  0.00000000000E+00 0.  1.
         11    1    1    2    0    0 -0.12782581438E+03 -0.28491357969E+02 -0.39453110108E+02  0.13677625597E+03  0.00000000000E+00 0. -1.
<mgrwt>
<rscale>  0 0.23752791E+03</rscale>
<asrwt>0</asrwt>
<pdfrwt beam="2">  1        1 0.12419309E+00 0.24123136E+03</pdfrwt>
<pdfrwt beam="1">  1       -1 0.20012194E-01 0.24123136E+03</pdfrwt>
<totfact> 0.46149477E+02</totfact>
</mgrwt>
</event>
<event>
 6    1  0.1190675E-005  0.1289383E+03  0.7546771E-02  0.1236952E+00
         -1   -1    0    0    0  501 -0.00000000000E+00  0.00000000000E+00  0.77010348911E+02  0.77010348911E+02  0.00000000000E+00 0.  1.
          1   -1    0    0  501    0  0.00000000000E+00 -0.00000000000E+00 -0.19456504721E+03  0.19456504721E+03  0.00000000000E+00 0. -1.
          5    1    1    2  502    0  0.19577467734E+01 -0.46650772750E+02 -0.29497424100E+01  0.47020403559E+02  0.47000000000E+01 0. -1.
         -5    1    1    2    0  502  0.26446517120E+02  0.60545854689E+02 -0.90825588184E+02  0.11241261609E+03  0.47000000000E+01 0. -1.
        -11    1    1    2    0    0 -0.67921641760E+02 -0.86241436692E+01 -0.67793185080E+01  0.68801776378E+02  0.00000000000E+00 0. -1.
         11    1    1    2    0    0  0.39517377866E+02 -0.52709382706E+01 -0.17000049199E+02  0.43340600093E+02  0.00000000000E+00 0.  1.
<mgrwt>
<rscale>  0 0.12380303E+03</rscale>
<asrwt>0</asrwt>
<pdfrwt beam="2">  1        1 0.29933084E-01 0.12893826E+03</pdfrwt>
<pdfrwt beam="1">  1       -1 0.11847746E-01 0.12893826E+03</pdfrwt>
<totfact> 0.67226576E+03</totfact>
</mgrwt>
</event>
<event>
 6    1  0.1190675E-005  0.1450151E+03  0.7546771E-02  0.1217012E+00
          1   -1    0    0  501    0  0.00000000000E+00  0.00000000000E+00  0.63813929122E+02  0.63813929122E+02  0.00000000000E+00 0. -1.
         -1   -1    0    0    0  501 -0.00000000000E+00 -0.00000000000E+00 -0.26891330752E+03  0.26891330752E+03  0.00000000000E+00 0.  1.
          5    1    1    2  502    0  0.39071560979E+02 -0.52748965760E+02 -0.80657026281E+02  0.10409940516E+03  0.47000000000E+01 0. -1.
         -5    1    1    2    0  502 -0.68920225509E+02 -0.14426657599E+02 -0.23260328440E+02  0.74305173527E+02  0.47000000000E+01 0. -1.
        -11    1    1    2    0    0  0.55837376554E+02  0.14925152189E+02 -0.44215320208E+02  0.72770648818E+02  0.00000000000E+00 0. -1.
         11    1    1    2    0    0 -0.25988712024E+02  0.52250471170E+02 -0.56966703471E+02  0.81552009138E+02  0.00000000000E+00 0.  1.
<mgrwt>
<rscale>  0 0.13729765E+03</rscale>
<asrwt>0</asrwt>
<pdfrwt beam="1">  1        1 0.98175274E-02 0.14501509E+03</pdfrwt>
<pdfrwt beam="2">  1       -1 0.41371279E-01 0.14501509E+03</pdfrwt>
<totfact> 0.36843645E+03</totfact>
</mgrwt>
</event>
<event>
 6    1  0.1190675E-005  0.2765420E+03  0.7546771E-02  0.1099357E+00
         -2   -1    0    0    0  501 -0.00000000000E+00  0.00000000000E+00  0.21132323299E+03  0.21132323299E+03  0.00000000000E+00 0.  1.
          2   -1    0    0  501    0  0.00000000000E+00 -0.00000000000E+00 -0.47763499575E+03  0.47763499575E+03  0.00000000000E+00 0. -1.
          5    1    1    2  502    0  0.91197863546E+02  0.21019251208E+02 -0.39024583464E+02  0.10150796693E+03  0.47000000000E+01 0.  1.
         -5    1    1    2    0  502  0.15547682967E+03 -0.21276714675E+02 -0.27726982991E+03  0.31863206325E+03  0.47000000000E+01 0.  1.
        -11    1    1    2    0    0 -0.13183399950E+03  0.49826274308E+01 -0.21203796989E+02  0.13362122215E+03  0.00000000000E+00 0. -1.
         11    1    1    2    0    0 -0.11484069371E+03 -0.47251639640E+01  0.71186447611E+02  0.13519697641E+03  0.00000000000E+00 0.  1.
<mgrwt>
<rscale>  0 0.27338552E+03</rscale>
<asrwt>0</asrwt>
<pdfrwt beam="2">  1        2 0.73482307E-01 0.27654202E+03</pdfrwt>
<pdfrwt beam="1">  1       -2 0.32511267E-01 0.27654202E+03</pdfrwt>
<totfact> 0.58048933E+02</totfact>
</mgrwt>
</event>
<event>
 6    1  0.1190675E-005  0.1391905E+03  0.7546771E-02  0.1234908E+00
          1   -1    0    0  501    0  0.00000000000E+00  0.00000000000E+00  0.55047458672E+02  0.55047458672E+02  0.00000000000E+00 0.  1.
         -1   -1    0    0    0  501 -0.00000000000E+00 -0.00000000000E+00 -0.24184396329E+03  0.24184396329E+03  0.00000000000E+00 0. -1.
          5    1    1    2  502    0  0.55177953424E+02 -0.44927687456E+00  0.37598305199E+01  0.55507069093E+02  0.47000000000E+01 0.  1.
         -5    1    1    2    0  502 -0.50165295490E+02 -0.54579575788E+01 -0.10505454251E+03  0.11664001490E+03  0.47000000000E+01 0. -1.
        -11    1    1    2    0    0  0.11905797514E+02 -0.37482694927E+02 -0.19316350187E+02  0.43815771339E+02  0.00000000000E+00 0.  1.
         11    1    1    2    0    0 -0.16918455448E+02  0.43389929381E+02 -0.66185442437E+02  0.80928566631E+02  0.00000000000E+00 0. -1.
<mgrwt>
<rscale>  0 0.12510305E+03</rscale>
<asrwt>0</asrwt>
<pdfrwt beam="1">  1        1 0.84688400E-02 0.13919052E+03</pdfrwt>
<pdfrwt beam="2">  1       -1 0.37206763E-01 0.13919052E+03</pdfrwt>
<totfact> 0.53885539E+03</totfact>
</mgrwt>
</event>
<event>
 6    1  0.1190675E-005  0.1316231E+03  0.7546771E-02  0.1233899E+00
          1   -1    0    0  501    0  0.00000000000E+00  0.00000000000E+00  0.33774361698E+03  0.33774361698E+03  0.00000000000E+00 0. -1.
         -1   -1    0    0    0  501 -0.00000000000E+00 -0.00000000000E+00 -0.79871557368E+02  0.79871557368E+02  0.00000000000E+00 0.  1.
          5    1    1    2  502    0 -0.23875115678E+02  0.14462642142E+02  0.26064548682E+03  0.26217808635E+03  0.47000000000E+01 0. -1.
         -5    1    1    2    0  502 -0.70236313955E+00  0.40906808270E+02  0.15995358092E+02  0.44179200506E+02  0.47000000000E+01 0.  1.
        -11    1    1    2    0    0  0.54068324459E+02 -0.29675197637E+02  0.10292421865E+02  0.62529473150E+02  0.00000000000E+00 0.  1.
         11    1    1    2    0    0 -0.29490845642E+02 -0.25694252775E+02 -0.29061207161E+02  0.48728414339E+02  0.00000000000E+00 0. -1.
<mgrwt>
<rscale>  0 0.12575185E+03</rscale>
<asrwt>0</asrwt>
<pdfrwt beam="1">  1        1 0.51960556E-01 0.13162306E+03</pdfrwt>
<pdfrwt beam="2">  1       -1 0.12287932E-01 0.13162306E+03</pdfrwt>
<totfact> 0.32161671E+03</totfact>
</mgrwt>
</event>
<event>
 6    1  0.1190675E-005  0.1333323E+03  0.7546771E-02  0.1237011E+00
          2   -1    0    0  501    0  0.00000000000E+00  0.00000000000E+00  0.26544347661E+03  0.26544347661E+03  0.00000000000E+00 0. -1.
         -2   -1    0    0    0  501 -0.00000000000E+00 -0.00000000000E+00 -0.51194910679E+02  0.51194910679E+02  0.00000000000E+00 0.  1.
          5    1    1    2  502    0 -0.48990306993E+02 -0.73625483226E+01  0.61406624354E+02  0.79038729820E+02  0.47000000000E+01 0.  1.
         -5    1    1    2    0  502  0.77191668689E+02 -0.29478724216E+02  0.74593201493E+02  0.11141716477E+03  0.47000000000E+01 0.  1.
        -11    1    1    2    0    0 -0.42016103994E+02  0.26632692862E+02  0.91727326172E+02  0.10434824239E+03  0.00000000000E+00 0. -1.
         11    1    1    2    0    0  0.13814742297E+02  0.10208579677E+02 -0.13478586084E+02  0.21834250310E+02  0.00000000000E+00 0.  1.
<mgrwt>
<rscale>  0 0.12376563E+03</rscale>
<asrwt>0</asrwt>
<pdfrwt beam="1">  1        2 0.40837457E-01 0.13333227E+03</pdfrwt>
<pdfrwt beam="2">  1       -2 0.78761403E-02 0.13333227E+03</pdfrwt>
<totfact> 0.11397304E+04</totfact>
</mgrwt>
</event>
<event>
 6    1  0.1190675E-005  0.1473906E+03  0.7546771E-02  0.1216149E+00
         -3   -1    0    0    0  501 -0.00000000000E+00  0.00000000000E+00  0.16347552099E+03  0.16347552099E+03  0.00000000000E+00 0. -1.
          3   -1    0    0  501    0  0.00000000000E+00 -0.00000000000E+00 -0.15875820102E+03  0.15875820102E+03  0.00000000000E+00 0.  1.
          5    1    1    2  502    0 -0.28747852157E+02 -0.19520253035E+02  0.23091819788E+02  0.41985728805E+02  0.47000000000E+01 0.  1.
         -5    1    1    2    0  502  0.26250230808E+02 -0.58517266201E+02 -0.11486497481E+03  0.13164116947E+03  0.47000000000E+01 0.  1.
        -11    1    1    2    0    0  0.32035949058E+02  0.73746678727E+02  0.83913855180E+02  0.11621708027E+03  0.00000000000E+00 0. -1.
         11    1    1    2    0    0 -0.29538327709E+02  0.42908405084E+01  0.12576619804E+02  0.32389743466E+02  0.00000000000E+00 0.  1.
<mgrwt>
<rscale>  0 0.13792449E+03</rscale>
<asrwt>0</asrwt>
<pdfrwt beam="2">  1        3 0.24424339E-01 0.14739060E+03</pdfrwt>
<pdfrwt beam="1">  1       -3 0.25150080E-01 0.14739060E+03</pdfrwt>
<totfact> 0.54622700E+02</totfact>
</mgrwt>
</event>
<event>
 6    1  0.1190675E-005  0.1560177E+03  0.7546771E-02  0.1201496E+00
          2   -1    0    0  501    0  0.00000000000E+00  0.00000000000E+00  0.47570446315E+03  0.47570446315E+03  0.00000000000E+00 0. -1.
         -2   -1    0    0    0  501 -0.00000000000E+00 -0.00000000000E+00 -0.52171417315E+02  0.52171417315E+02  0.00000000000E+00 0.  1.
          5    1    1    2  502    0 -0.56936002086E+02 -0.89737971976E+01  0.66813548404E+02  0.88365024868E+02  0.47000000000E+01 0. -1.
         -5    1    1    2    0  502  0.27184555515E+02 -0.79522578063E+02  0.27027000195E+03  0.28307384979E+03  0.47000000000E+01 0. -1.
        -11    1    1    2    0    0  0.42215787746E+02  0.78813138110E+02  0.24777370651E+02  0.92777160822E+02  0.00000000000E+00 0.  1.
         11    1    1    2    0    0 -0.12464341175E+02  0.96832371507E+01  0.61672124825E+02  0.63659844981E+02  0.00000000000E+00 0. -1.
<mgrwt>
<rscale>  0 0.14917064E+03</rscale>
<asrwt>0</asrwt>
<pdfrwt beam="1">  1        2 0.73185299E-01 0.15601768E+03</pdfrwt>
<pdfrwt beam="2">  1       -2 0.80263722E-02 0.15601768E+03</pdfrwt>
<totfact> 0.59951685E+03</totfact>
</mgrwt>
</event>
<event>
 6    1  0.1190675E-005  0.1325057E+03  0.7546771E-02  0.1230129E+00
         -1   -1    0    0    0  501 -0.00000000000E+00  0.00000000000E+00  0.21102627523E+02  0.21102627523E+02  0.00000000000E+00 0.  1.
          1   -1    0    0  501    0  0.00000000000E+00 -0.00000000000E+00 -0.81030335401E+03  0.81030335401E+03  0.00000000000E+00 0. -1.
          5    1    1    2  502    0  0.78680606184E+02  0.20352975423E+02 -0.28578549929E+03  0.29715370266E+03  0.47000000000E+01 0. -1.
         -5    1    1    2    0  502 -0.47071124400E+02  0.10509579132E+02 -0.26080343923E+03  0.26526715952E+03  0.47000000000E+01 0. -1.
        -11    1    1    2    0    0 -0.60043675191E+02 -0.50525343697E+02 -0.19456108405E+03  0.20979053533E+03  0.00000000000E+00 0. -1.
         11    1    1    2    0    0  0.28434193407E+02  0.19662789142E+02 -0.48050703920E+02  0.59194584032E+02  0.00000000000E+00 0.  1.
<mgrwt>
<rscale>  0 0.12821461E+03</rscale>
<asrwt>0</asrwt>
<pdfrwt beam="2">  1        1 0.12466205E+00 0.13250569E+03</pdfrwt>
<pdfrwt beam="1">  1       -1 0.32465582E-02 0.13250569E+03</pdfrwt>
<totfact> 0.73097509E+03</totfact>
</mgrwt>
</event>
<event>
 6    1  0.1190675E-005  0.1294731E+03  0.7546771E-02  0.1241381E+00
          2   -1    0    0  501    0  0.00000000000E+00  0.00000000000E+00  0.93132964043E+02  0.93132964043E+02  0.00000000000E+00 0. -1.
         -2   -1    0    0    0  501 -0.00000000000E+00 -0.00000000000E+00 -0.14255784255E+03  0.14255784255E+03  0.00000000000E+00 0.  1.
          5    1    1    2  502    0  0.13050277084E+02 -0.59050400551E+02  0.27518348432E+02  0.66607875192E+02  0.47000000000E+01 0.  1.
         -5    1    1    2    0  502 -0.35528035034E+02  0.33922652396E+02 -0.39893524681E+02  0.63455267161E+02  0.47000000000E+01 0.  1.
        -11    1    1    2    0    0  0.54797449876E+02 -0.46087846955E+01 -0.21242411911E+02  0.58951178725E+02  0.00000000000E+00 0. -1.
         11    1    1    2    0    0 -0.32319691927E+02  0.29736532850E+02 -0.15807290351E+02  0.46676485519E+02  0.00000000000E+00 0.  1.
<mgrwt>
<rscale>  0 0.12104645E+03</rscale>
<asrwt>0</asrwt>
<pdfrwt beam="1">  1        2 0.14328148E-01 0.12947307E+03</pdfrwt>
<pdfrwt beam="2">  1       -2 0.21931976E-01 0.12947307E+03</pdfrwt>
<totfact> 0.69525762E+03</totfact>
</mgrwt>
</event>
<event>
 6    1  0.1190675E-005  0.2599258E+03  0.7546771E-02  0.1107188E+00
         -1   -1    0    0    0  501 -0.00000000000E+00  0.00000000000E+00  0.87459337527E+02  0.87459337527E+02  0.00000000000E+00 0.  1.
          1   -1    0    0  501    0  0.00000000000E+00 -0.00000000000E+00 -0.19312241837E+03  0.19312241837E+03  0.00000000000E+00 0. -1.
          5    1    1    2  502    0  0.32519326051E+02 -0.58064462600E+02 -0.12715255710E+03  0.14359265706E+03  0.47000000000E+01 0. -1.
         -5    1    1    2    0  502 -0.25179761485E+01  0.17837445604E+01  0.25067333039E+02  0.25690136906E+02  0.47000000000E+01 0.  1.
        -11    1    1    2    0    0 -0.44248849333E+02  0.21964288993E+02  0.32801246927E+02  0.59298503002E+02  0.00000000000E+00 0.  1.
         11    1    1    2    0    0  0.14247499430E+02  0.34316429046E+02 -0.36379103707E+02  0.52000458930E+02  0.00000000000E+00 0. -1.
<mgrwt>
<rscale>  0 0.25992583E+03</rscale>
<asrwt>0</asrwt>
<pdfrwt beam="2">  1        1 0.29711141E-01 0.25992583E+03</pdfrwt>
<pdfrwt beam="1">  1       -1 0.13455283E-01 0.25992583E+03</pdfrwt>
<totfact> 0.58005204E+03</totfact>
</mgrwt>
</event>
<event>
 6    1  0.1190675E-005  0.2847424E+03  0.7546771E-02  0.1093127E+00
          2   -1    0    0  501    0  0.00000000000E+00  0.00000000000E+00  0.20294700658E+03  0.20294700658E+03  0.00000000000E+00 0. -1.
         -2   -1    0    0    0  501 -0.00000000000E+00 -0.00000000000E+00 -0.99876129043E+02  0.99876129043E+02  0.00000000000E+00 0.  1.
          5    1    1    2  502    0 -0.12049272946E+02 -0.17935822957E+02  0.62066816622E+02  0.65888226939E+02  0.47000000000E+01 0.  1.
         -5    1    1    2    0  502  0.49873188193E+02  0.95557115611E+02  0.30926092483E+02  0.11223640426E+03  0.47000000000E+01 0.  1.
        -11    1    1    2    0    0 -0.27097383388E+02 -0.47636644464E+02 -0.38242304067E+02  0.66828077203E+02  0.00000000000E+00 0.  1.
         11    1    1    2    0    0 -0.10726531859E+02 -0.29984648190E+02  0.48320272500E+02  0.57870427226E+02  0.00000000000E+00 0. -1.
<mgrwt>
<rscale>  0 0.28474242E+03</rscale>
<asrwt>0</asrwt>
<pdfrwt beam="1">  1        2 0.31222616E-01 0.28474242E+03</pdfrwt>
<pdfrwt beam="2">  1       -2 0.15365558E-01 0.28474242E+03</pdfrwt>
<totfact> 0.54872496E+03</totfact>
</mgrwt>
</event>
<event>
 6    1  0.1190675E-005  0.1438487E+03  0.7546771E-02  0.1217420E+00
          1   -1    0    0  501    0  0.00000000000E+00  0.00000000000E+00  0.11312418238E+04  0.11312418238E+04  0.00000000000E+00 0. -1.
         -1   -1    0    0    0  501 -0.00000000000E+00 -0.00000000000E+00 -0.15884579563E+02  0.15884579563E+02  0.00000000000E+00 0.  1.
          5    1    1    2  502    0  0.29788859470E+02 -0.58487999001E+02  0.64838932773E+03  0.65172005684E+03  0.47000000000E+01 0. -1.
         -5    1    1    2    0  502  0.36614580339E+02  0.21779880925E+02  0.80208507927E+02  0.90942209399E+02  0.47000000000E+01 0.  1.
        -11    1    1    2    0    0 -0.64635678762E+02 -0.14167276167E+02  0.18862517472E+03  0.19989482039E+03  0.00000000000E+00 0.  1.
         11    1    1    2    0    0 -0.17677610462E+01  0.50875394242E+02  0.19813423388E+03  0.20456931674E+03  0.00000000000E+00 0. -1.
<mgrwt>
<rscale>  0 0.13700232E+03</rscale>
<asrwt>0</asrwt>
<pdfrwt beam="1">  1        1 0.17403714E+00 0.14384866E+03</pdfrwt>
<pdfrwt beam="2">  1       -1 0.24437824E-02 0.14384866E+03</pdfrwt>
<totfact> 0.63901497E+03</totfact>
</mgrwt>
</event>
<event>
 6    1  0.1190675E-005  0.1537983E+03  0.7546771E-02  0.1204801E+00
          2   -1    0    0  501    0  0.00000000000E+00  0.00000000000E+00  0.88273898199E+02  0.88273898199E+02  0.00000000000E+00 0.  1.
         -2   -1    0    0    0  501 -0.00000000000E+00 -0.00000000000E+00 -0.23717735725E+03  0.23717735725E+03  0.00000000000E+00 0. -1.
          5    1    1    2  502    0  0.39317467857E+02  0.16927446511E+02 -0.54732113590E+02  0.69642630494E+02  0.47000000000E+01 0. -1.
         -5    1    1    2    0  502 -0.51756125541E+02  0.71804202038E+02  0.13321535879E+02  0.89633103704E+02  0.47000000000E+01 0. -1.
        -11    1    1    2    0    0  0.20656109578E+02 -0.20657782147E+02  0.93723114315E+01  0.30679945367E+02  0.00000000000E+00 0.  1.
         11    1    1    2    0    0 -0.82174518934E+01 -0.68073866403E+02 -0.11686519277E+03  0.13549557588E+03  0.00000000000E+00 0. -1.
<mgrwt>
<rscale>  0 0.14653133E+03</rscale>
<asrwt>0</asrwt>
<pdfrwt beam="1">  1        2 0.13580600E-01 0.15379832E+03</pdfrwt>
<pdfrwt beam="2">  1       -2 0.36488824E-01 0.15379832E+03</pdfrwt>
<totfact> 0.30200827E+03</totfact>
</mgrwt>
</event>
<event>
 6    1  0.1190675E-005  0.1330963E+03  0.7546771E-02  0.1233498E+00
          2   -1    0    0  501    0  0.00000000000E+00  0.00000000000E+00  0.91626843632E+03  0.91626843632E+03  0.00000000000E+00 0. -1.
         -2   -1    0    0    0  501 -0.00000000000E+00 -0.00000000000E+00 -0.18465919511E+02  0.18465919511E+02  0.00000000000E+00 0.  1.
          5    1    1    2  502    0  0.41152384185E+01 -0.59524581731E+02  0.64973078673E+03  0.65248164437E+03  0.47000000000E+01 0. -1.
         -5    1    1    2    0  502 -0.16205511274E+02  0.15442937127E+02  0.20117658942E+02  0.30461666141E+02  0.47000000000E+01 0. -1.
        -11    1    1    2    0    0  0.41735704107E+02  0.58300565360E+02  0.12993588071E+03  0.14840538404E+03  0.00000000000E+00 0.  1.
         11    1    1    2    0    0 -0.29645431251E+02 -0.14218920755E+02  0.98018190428E+02  0.10338566127E+03  0.00000000000E+00 0. -1.
<mgrwt>
<rscale>  0 0.12601063E+03</rscale>
<asrwt>0</asrwt>
<pdfrwt beam="1">  1        2 0.14096434E+00 0.13309630E+03</pdfrwt>
<pdfrwt beam="2">  1       -2 0.28409114E-02 0.13309630E+03</pdfrwt>
<totfact> 0.13038173E+04</totfact>
</mgrwt>
</event>
<event>
 6    1  0.1190675E-005  0.1595767E+03  0.7546771E-02  0.1197335E+00
          2   -1    0    0  501    0  0.00000000000E+00  0.00000000000E+00  0.11778041795E+04  0.11778041795E+04  0.00000000000E+00 0. -1.
         -2   -1    0    0    0  501 -0.00000000000E+00 -0.00000000000E+00 -0.23520872986E+02  0.23520872986E+02  0.00000000000E+00 0.  1.
          5    1    1    2  502    0 -0.83043246251E+01 -0.65625690087E+02  0.64498572872E+03  0.64838597553E+03  0.47000000000E+01 0. -1.
         -5    1    1    2    0  502 -0.73741167982E+02  0.98688406562E+01  0.25644677246E+03  0.26706214815E+03  0.47000000000E+01 0. -1.
        -11    1    1    2    0    0  0.62014808228E+01  0.51651224431E+02  0.14430233270E+03  0.15339318946E+03  0.00000000000E+00 0. -1.
         11    1    1    2    0    0  0.75844011784E+02  0.41056249999E+01  0.10854847263E+03  0.13248373934E+03  0.00000000000E+00 0.  1.
<mgrwt>
<rscale>  0 0.15258274E+03</rscale>
<asrwt>0</asrwt>
<pdfrwt beam="1">  1        2 0.18120060E+00 0.15957667E+03</pdfrwt>
<pdfrwt beam="2">  1       -2 0.36185968E-02 0.15957667E+03</pdfrwt>
<totfact> 0.64585840E+03</totfact>
</mgrwt>
</event>
<event>
 6    1  0.1190675E-005  0.2306586E+03  0.7546771E-02  0.1126177E+00
         -2   -1    0    0    0  501 -0.00000000000E+00  0.00000000000E+00  0.86569961665E+02  0.86569961665E+02  0.00000000000E+00 0.  1.
          2   -1    0    0  501    0  0.00000000000E+00 -0.00000000000E+00 -0.15364277554E+03  0.15364277554E+03  0.00000000000E+00 0. -1.
          5    1    1    2  502    0 -0.26747070900E+02  0.47587940093E+02  0.36655598698E+02  0.65922232668E+02  0.47000000000E+01 0. -1.
         -5    1    1    2    0  502  0.52993952225E+01 -0.16091129758E+02 -0.65619312681E+02  0.67933734207E+02  0.47000000000E+01 0. -1.
        -11    1    1    2    0    0 -0.12745980004E+02 -0.50347517098E+02 -0.42441355310E+02  0.67071611914E+02  0.00000000000E+00 0. -1.
         11    1    1    2    0    0  0.34193655682E+02  0.18850706763E+02  0.43322554219E+01  0.39285158411E+02  0.00000000000E+00 0.  1.
<mgrwt>
<rscale>  0 0.23065862E+03</rscale>
<asrwt>0</asrwt>
<pdfrwt beam="2">  1        2 0.23637350E-01 0.23065862E+03</pdfrwt>
<pdfrwt beam="1">  1       -2 0.13318456E-01 0.23065862E+03</pdfrwt>
<totfact> 0.93590919E+03</totfact>
</mgrwt>
</event>
<event>
 6    1  0.1190675E-005  0.1373990E+03  0.7546771E-02  0.1226893E+00
         -2   -1    0    0    0  501 -0.00000000000E+00  0.00000000000E+00  0.16635222601E+02  0.16635222601E+02  0.00000000000E+00 0.  1.
          2   -1    0    0  501    0  0.00000000000E+00 -0.00000000000E+00 -0.10599692459E+04  0.10599692459E+04  0.00000000000E+00 0. -1.
          5    1    1    2  502    0 -0.15636547657E+02 -0.68394969260E+02 -0.46100395328E+03  0.46633583219E+03  0.47000000000E+01 0.  1.
         -5    1    1    2    0  502 -0.38916676095E+02  0.51748590126E+02 -0.29588789528E+03  0.30292599893E+03  0.47000000000E+01 0.  1.
        -11    1    1    2    0    0 -0.14666464885E+02  0.59173192380E+01 -0.39572386760E+01  0.16302748147E+02  0.00000000000E+00 0.  1.
         11    1    1    2    0    0  0.69219688637E+02  0.10729059896E+02 -0.28248493607E+03  0.29103988924E+03  0.00000000000E+00 0. -1.
<mgrwt>
<rscale>  0 0.13037997E+03</rscale>
<asrwt>0</asrwt>
<pdfrwt beam="2">  1        2 0.16307220E+00 0.13739903E+03</pdfrwt>
<pdfrwt beam="1">  1       -2 0.25592649E-02 0.13739903E+03</pdfrwt>
<totfact> 0.12474672E+04</totfact>
</mgrwt>
</event>
<event>
 6    1  0.1190675E-005  0.1266737E+03  0.7546771E-02  0.1251918E+00
          1   -1    0    0  501    0  0.00000000000E+00  0.00000000000E+00  0.30062833025E+03  0.30062833025E+03  0.00000000000E+00 0. -1.
         -1   -1    0    0    0  501 -0.00000000000E+00 -0.00000000000E+00 -0.37626151897E+02  0.37626151897E+02  0.00000000000E+00 0.  1.
          5    1    1    2  502    0  0.22083059108E+01  0.62589701186E+02  0.68593526052E+02  0.93002737196E+02  0.47000000000E+01 0.  1.
         -5    1    1    2    0  502  0.18107065170E+02 -0.59497776817E+02  0.10042254922E+03  0.11821433774E+03  0.47000000000E+01 0.  1.
        -11    1    1    2    0    0  0.30999361855E+02  0.28553668401E+01  0.20737875266E+02  0.37405521327E+02  0.00000000000E+00 0.  1.
         11    1    1    2    0    0 -0.51314732936E+02 -0.59472912089E+01  0.73248227805E+02  0.89631885876E+02  0.00000000000E+00 0. -1.
<mgrwt>
<rscale>  0 0.11480694E+03</rscale>
<asrwt>0</asrwt>
<pdfrwt beam="1">  1        1 0.46250511E-01 0.12667367E+03</pdfrwt>
<pdfrwt beam="2">  1       -1 0.57886390E-02 0.12667367E+03</pdfrwt>
<totfact> 0.11563906E+04</totfact>
</mgrwt>
</event>
<event>
 6    1  0.1190675E-005  0.1308799E+03  0.7546771E-02  0.1239675E+00
          2   -1    0    0  501    0  0.00000000000E+00  0.00000000000E+00  0.93850659039E+03  0.93850659039E+03  0.00000000000E+00 0. -1.
         -2   -1    0    0    0  501 -0.00000000000E+00 -0.00000000000E+00 -0.18200237680E+02  0.18200237680E+02  0.00000000000E+00 0.  1.
          5    1    1    2  502    0 -0.61590670828E+01 -0.39241293552E+02  0.41980784957E+03  0.42170906296E+03  0.47000000000E+01 0. -1.
         -5    1    1    2    0  502  0.14741161725E+02  0.77089150069E+02  0.31507432472E+03  0.32473675340E+03  0.47000000000E+01 0. -1.
        -11    1    1    2    0    0  0.26210696040E+02  0.15390374404E+02  0.31786937592E+02  0.43980377587E+02  0.00000000000E+00 0.  1.
         11    1    1    2    0    0 -0.34792790682E+02 -0.53238230920E+02  0.15363724083E+03  0.16628063412E+03  0.00000000000E+00 0. -1.
<mgrwt>
<rscale>  0 0.12209854E+03</rscale>
<asrwt>0</asrwt>
<pdfrwt beam="1">  1        2 0.14438559E+00 0.13087989E+03</pdfrwt>
<pdfrwt beam="2">  1       -2 0.28000373E-02 0.13087989E+03</pdfrwt>
<totfact> 0.12888015E+04</totfact>
</mgrwt>
</event>
<event>
 6    1  0.1190675E-005  0.1254773E+03  0.7546771E-02  0.1245512E+00
         -1   -1    0    0    0  501 -0.00000000000E+00  0.00000000000E+00  0.17902325781E+02  0.17902325781E+02  0.00000000000E+00 0.  1.
          1   -1    0    0  501    0  0.00000000000E+00 -0.00000000000E+00 -0.89774531431E+03  0.89774531431E+03  0.00000000000E+00 0. -1.
          5    1    1    2  502    0  0.41751293240E+02 -0.12671916576E+02 -0.25351408083E+03  0.25728433131E+03  0.47000000000E+01 0. -1.
         -5    1    1    2    0  502 -0.69111630890E+02  0.42943097071E+02 -0.43417884396E+03  0.44176225015E+03  0.47000000000E+01 0.  1.
        -11    1    1    2    0    0  0.47375726405E+02 -0.47776298830E+02 -0.16681749229E+03  0.17987526210E+03  0.00000000000E+00 0.  1.
         11    1    1    2    0    0 -0.20015388756E+02  0.17505118334E+02 -0.25332571439E+02  0.36725796529E+02  0.00000000000E+00 0. -1.
<mgrwt>
<rscale>  0 0.11854778E+03</rscale>
<asrwt>0</asrwt>
<pdfrwt beam="2">  1        1 0.13811461E+00 0.12547735E+03</pdfrwt>
<pdfrwt beam="1">  1       -1 0.27542050E-02 0.12547735E+03</pdfrwt>
<totfact> 0.78983180E+03</totfact>
</mgrwt>
</event>
<event>
 6    1  0.1190675E-005  0.3859644E+03  0.7546771E-02  0.1049606E+00
          2   -1    0    0  501    0  0.00000000000E+00  0.00000000000E+00  0.25949531659E+04  0.25949531659E+04  0.00000000000E+00 0. -1.
         -2   -1    0    0    0  501 -0.00000000000E+00 -0.00000000000E+00 -0.56243379571E+02  0.56243379571E+02  0.00000000000E+00 0.  1.
          5    1    1    2  502    0  0.10624036089E+03  0.89267536261E+02  0.29694978576E+03  0.32780630344E+03  0.47000000000E+01 0.  1.
         -5    1    1    2    0  502  0.22261204734E+03  0.69475820931E+02  0.90611494069E+03  0.93565452442E+03  0.47000000000E+01 0.  1.
        -11    1    1    2    0    0 -0.20680661860E+03 -0.66142208752E+02  0.90401470982E+03  0.92972381106E+03  0.00000000000E+00 0. -1.
         11    1    1    2    0    0 -0.12204578963E+03 -0.92601148439E+02  0.43163035003E+03  0.45801190653E+03  0.00000000000E+00 0.  1.
<mgrwt>
<rscale>  0 0.38361358E+03</rscale>
<asrwt>0</asrwt>
<pdfrwt beam="1">  1        2 0.39922347E+00 0.38596441E+03</pdfrwt>
<pdfrwt beam="2">  1       -2 0.86528297E-02 0.38596441E+03</pdfrwt>
<totfact> 0.29013550E+02</totfact>
</mgrwt>
</event>
<event>
 6    1  0.1190675E-005  0.2400606E+03  0.7546771E-02  0.1122417E+00
          1   -1    0    0  501    0  0.00000000000E+00  0.00000000000E+00  0.24874980944E+03  0.24874980944E+03  0.00000000000E+00 0. -1.
         -1   -1    0    0    0  501 -0.00000000000E+00 -0.00000000000E+00 -0.22467953666E+03  0.22467953666E+03  0.00000000000E+00 0.  1.
          5    1    1    2  502    0  0.63354886121E+00  0.16550085230E+02 -0.20031565301E+02  0.26413260187E+02  0.47000000000E+01 0.  1.
         -5    1    1    2    0  502  0.15809503918E+03 -0.14619937320E+03 -0.11263003510E+02  0.21567856497E+03  0.47000000000E+01 0.  1.
        -11    1    1    2    0    0 -0.80949727102E+02  0.41244480238E+02 -0.17979744220E+02  0.92613371984E+02  0.00000000000E+00 0.  1.
         11    1    1    2    0    0 -0.77778860938E+02  0.88404807736E+02  0.73344585810E+02  0.13872414897E+03  0.00000000000E+00 0. -1.
<mgrwt>
<rscale>  0 0.23610232E+03</rscale>
<asrwt>0</asrwt>
<pdfrwt beam="1">  1        1 0.38269201E-01 0.24006062E+03</pdfrwt>
<pdfrwt beam="2">  1       -1 0.34566083E-01 0.24006062E+03</pdfrwt>
<totfact> 0.88921904E+02</totfact>
</mgrwt>
</event>
<event>
 6    1  0.1190675E-005  0.1517343E+03  0.7546771E-02  0.1218019E+00
         -1   -1    0    0    0  501 -0.00000000000E+00  0.00000000000E+00  0.19530411943E+03  0.19530411943E+03  0.00000000000E+00 0.  1.
          1   -1    0    0  501    0  0.00000000000E+00 -0.00000000000E+00 -0.97755475492E+02  0.97755475492E+02  0.00000000000E+00 0. -1.
          5    1    1    2  502    0  0.41933042991E+02 -0.13692175307E+02  0.41134932052E+02  0.60498168518E+02  0.47000000000E+01 0. -1.
         -5    1    1    2    0  502  0.14537563683E+02  0.78572175171E+02 -0.43833759671E+02  0.91260155357E+02  0.47000000000E+01 0. -1.
        -11    1    1    2    0    0 -0.11263496656E+02 -0.47064891140E+02  0.33997694358E+02  0.59142316125E+02  0.00000000000E+00 0. -1.
         11    1    1    2    0    0 -0.45207110017E+02 -0.17815108724E+02  0.66249777199E+02  0.82158954922E+02  0.00000000000E+00 0.  1.
<mgrwt>
<rscale>  0 0.13657073E+03</rscale>
<asrwt>0</asrwt>
<pdfrwt beam="2">  1        1 0.15039304E-01 0.15173432E+03</pdfrwt>
<pdfrwt beam="1">  1       -1 0.30046788E-01 0.15173432E+03</pdfrwt>
<totfact> 0.36586433E+03</totfact>
</mgrwt>
</event>
<event>
 6    1  0.1190675E-005  0.1270643E+03  0.7546771E-02  0.1247696E+00
          2   -1    0    0  501    0  0.00000000000E+00  0.00000000000E+00  0.53229098257E+03  0.53229098257E+03  0.00000000000E+00 0. -1.
         -2   -1    0    0    0  501 -0.00000000000E+00 -0.00000000000E+00 -0.22911491739E+02  0.22911491739E+02  0.00000000000E+00 0.  1.
          5    1    1    2  502    0  0.65282772705E+01  0.44856412215E+02  0.34952055665E+02  0.57432154026E+02  0.47000000000E+01 0.  1.
         -5    1    1    2    0  502 -0.29186411761E+02 -0.47398106375E+02  0.22613846642E+03  0.23293587769E+03  0.47000000000E+01 0.  1.
        -11    1    1    2    0    0  0.55942869820E+02 -0.11554754982E+01  0.12268786072E+03  0.13484528533E+03  0.00000000000E+00 0.  1.
         11    1    1    2    0    0 -0.33284735329E+02  0.36971696585E+01  0.12560110803E+03  0.12998915727E+03  0.00000000000E+00 0. -1.
<mgrwt>
<rscale>  0 0.11725470E+03</rscale>
<asrwt>0</asrwt>
<pdfrwt beam="1">  1        2 0.81890911E-01 0.12706429E+03</pdfrwt>
<pdfrwt beam="2">  1       -2 0.35248453E-02 0.12706429E+03</pdfrwt>
<totfact> 0.18085054E+04</totfact>
</mgrwt>
</event>
<event>
 6    1  0.1190675E-005  0.1450595E+03  0.7546771E-02  0.1216775E+00
          2   -1    0    0  501    0  0.00000000000E+00  0.00000000000E+00  0.75309533464E+03  0.75309533464E+03  0.00000000000E+00 0. -1.
         -2   -1    0    0    0  501 -0.00000000000E+00 -0.00000000000E+00 -0.22909164021E+02  0.22909164021E+02  0.00000000000E+00 0.  1.
          5    1    1    2  502    0 -0.29017222428E+02 -0.74218960457E+02  0.18097160357E+03  0.19779601762E+03  0.47000000000E+01 0. -1.
         -5    1    1    2    0  502  0.58708686371E+02  0.68672866544E+01  0.24990588146E+03  0.25684413381E+03  0.47000000000E+01 0. -1.
        -11    1    1    2    0    0 -0.30082199182E+02 -0.11122028665E+02  0.45261237797E+02  0.55472676844E+02  0.00000000000E+00 0.  1.
         11    1    1    2    0    0  0.39073523950E+00  0.78473702468E+02  0.25404744779E+03  0.26589167039E+03  0.00000000000E+00 0. -1.
<mgrwt>
<rscale>  0 0.13746987E+03</rscale>
<asrwt>0</asrwt>
<pdfrwt beam="1">  1        2 0.11586080E+00 0.14505951E+03</pdfrwt>
<pdfrwt beam="2">  1       -2 0.35244874E-02 0.14505951E+03</pdfrwt>
<totfact> 0.12229413E+04</totfact>
</mgrwt>
</event>
<event>
 6    1  0.1190675E-005  0.4019086E+03  0.7546771E-02  0.1090030E+00
         -2   -1    0    0    0  501 -0.00000000000E+00  0.00000000000E+00  0.11490248190E+03  0.11490248190E+03  0.00000000000E+00 0.  1.
          2   -1    0    0  501    0  0.00000000000E+00 -0.00000000000E+00 -0.69711593195E+03  0.69711593195E+03  0.00000000000E+00 0. -1.
          5    1    1    2  502    0  0.17262373750E+03 -0.13836018697E+03 -0.44194269536E+03  0.49424480985E+03  0.47000000000E+01 0. -1.
         -5    1    1    2    0  502 -0.11665982219E+03  0.10803349550E+03 -0.13355520922E+03  0.20770130999E+03  0.47000000000E+01 0.  1.
        -11    1    1    2    0    0 -0.67486041082E+02 -0.70331444702E+01 -0.16376973134E+02  0.69799972143E+02  0.00000000000E+00 0.  1.
         11    1    1    2    0    0  0.11522125772E+02  0.37359835942E+02  0.96614276628E+01  0.40272321865E+02  0.00000000000E+00 0. -1.
<mgrwt>
<rscale>  0 0.29061132E+03</rscale>
<asrwt>0</asrwt>
<pdfrwt beam="2">  1        2 0.10724860E+00 0.40190859E+03</pdfrwt>
<pdfrwt beam="1">  1       -2 0.17677305E-01 0.40190859E+03</pdfrwt>
<totfact> 0.10956906E+03</totfact>
</mgrwt>
</event>
<event>
 6    1  0.1190675E-005  0.1186903E+03  0.7546771E-02  0.1259828E+00
         -2   -1    0    0    0  501 -0.00000000000E+00  0.00000000000E+00  0.95795960979E+02  0.95795960979E+02  0.00000000000E+00 0.  1.
          2   -1    0    0  501    0  0.00000000000E+00 -0.00000000000E+00 -0.22649590665E+03  0.22649590665E+03  0.00000000000E+00 0. -1.
          5    1    1    2  502    0  0.24741198416E+02  0.36848617307E+02 -0.17670544190E+03  0.18225490581E+03  0.47000000000E+01 0. -1.
         -5    1    1    2    0  502 -0.22867954041E+02 -0.27190080213E+02 -0.70887394264E+01  0.36531958757E+02  0.47000000000E+01 0.  1.
        -11    1    1    2    0    0  0.33392546111E+02  0.93860624955E+01 -0.27177619946E+01  0.34792909266E+02  0.00000000000E+00 0. -1.
         11    1    1    2    0    0 -0.35265790487E+02 -0.19044599590E+02  0.55811997646E+02  0.68712093793E+02  0.00000000000E+00 0.  1.
<mgrwt>
<rscale>  0 0.11040165E+03</rscale>
<asrwt>0</asrwt>
<pdfrwt beam="2">  1        2 0.34845524E-01 0.11869032E+03</pdfrwt>
<pdfrwt beam="1">  1       -2 0.14737840E-01 0.11869032E+03</pdfrwt>
<totfact> 0.49719029E+03</totfact>
</mgrwt>
</event>
<event>
 6    1  0.1351855E-005  0.2576035E+03  0.7546771E-02  0.1110901E+00
         -1   -1    0    0    0  501 -0.00000000000E+00  0.00000000000E+00  0.21734353866E+03  0.21734353866E+03  0.00000000000E+00 0.  1.
          1   -1    0    0  501    0  0.00000000000E+00 -0.00000000000E+00 -0.28817586208E+03  0.28817586208E+03  0.00000000000E+00 0. -1.
          5    1    1    2  502    0 -0.16118691162E+02 -0.76869810931E+02 -0.12167399840E+02  0.79617307517E+02  0.47000000000E+01 0. -1.
         -5    1    1    2    0  502  0.14000135144E+03 -0.11124676670E+03 -0.20693749382E+02  0.18007371482E+03  0.47000000000E+01 0. -1.
        -11    1    1    2    0    0 -0.96248469363E+02  0.18357874729E+03 -0.11987134997E+02  0.20762614411E+03  0.00000000000E+00 0.  1.
         11    1    1    2    0    0 -0.27634190920E+02  0.45378303345E+01 -0.25984039194E+02  0.38202234290E+02  0.00000000000E+00 0. -1.
<mgrwt>
<rscale>  0 0.25384051E+03</rscale>
<asrwt>0</asrwt>
<pdfrwt beam="2">  1        1 0.44334748E-01 0.25760352E+03</pdfrwt>
<pdfrwt beam="1">  1       -1 0.33437467E-01 0.25760352E+03</pdfrwt>
<totfact> 0.78295735E+02</totfact>
</mgrwt>
</event>
<event>
 6    1  0.1190675E-005  0.1530806E+03  0.7546771E-02  0.1205533E+00
         -2   -1    0    0    0  501 -0.00000000000E+00  0.00000000000E+00  0.49777201870E+02  0.49777201870E+02  0.00000000000E+00 0.  1.
          2   -1    0    0  501    0  0.00000000000E+00 -0.00000000000E+00 -0.39319684007E+03  0.39319684007E+03  0.00000000000E+00 0. -1.
          5    1    1    2  502    0  0.22116821411E+02  0.31628960978E+02 -0.23184717143E+02  0.45267715548E+02  0.47000000000E+01 0. -1.
         -5    1    1    2    0  502  0.30290165017E+02 -0.10277886136E+03 -0.17340791050E+03  0.20389551702E+03  0.47000000000E+01 0. -1.
        -11    1    1    2    0    0 -0.77447964400E+02  0.50002641138E+02 -0.12080237797E+03  0.15195942167E+03  0.00000000000E+00 0.  1.
         11    1    1    2    0    0  0.25040977972E+02  0.21147259239E+02 -0.26024632579E+02  0.41851387695E+02  0.00000000000E+00 0. -1.
<mgrwt>
<rscale>  0 0.14595539E+03</rscale>
<asrwt>0</asrwt>
<pdfrwt beam="2">  1        2 0.60491823E-01 0.15308055E+03</pdfrwt>
<pdfrwt beam="1">  1       -2 0.76580309E-02 0.15308055E+03</pdfrwt>
<totfact> 0.79144234E+03</totfact>
</mgrwt>
</event>
<event>
 6    1  0.1190675E-005  0.1460443E+03  0.7546771E-02  0.1209850E+00
          2   -1    0    0  501    0  0.00000000000E+00  0.00000000000E+00  0.85558286055E+03  0.85558286055E+03  0.00000000000E+00 0. -1.
         -2   -1    0    0    0  501 -0.00000000000E+00 -0.00000000000E+00 -0.33150054766E+02  0.33150054766E+02  0.00000000000E+00 0.  1.
          5    1    1    2  502    0  0.43390446600E+02  0.23324775038E+02  0.48653821286E+03  0.48904836014E+03  0.47000000000E+01 0. -1.
         -5    1    1    2    0  502 -0.18507321387E+02  0.68736164666E+02  0.18709625769E+03  0.20023556357E+03  0.47000000000E+01 0.  1.
        -11    1    1    2    0    0 -0.26710296209E+02 -0.10219476616E+03  0.87128761042E+02  0.13692564097E+03  0.00000000000E+00 0.  1.
         11    1    1    2    0    0  0.18271709965E+01  0.10133826458E+02  0.61669574196E+02  0.62523350630E+02  0.00000000000E+00 0. -1.
<mgrwt>
<rscale>  0 0.14261739E+03</rscale>
<asrwt>0</asrwt>
<pdfrwt beam="1">  1        2 0.13162812E+00 0.14604427E+03</pdfrwt>
<pdfrwt beam="2">  1       -2 0.51000091E-02 0.14604427E+03</pdfrwt>
<totfact> 0.60086404E+03</totfact>
</mgrwt>
</event>
<event>
 6    1  0.1190675E-005  0.1496749E+03  0.7546771E-02  0.1210514E+00
         -2   -1    0    0    0  501 -0.00000000000E+00  0.00000000000E+00  0.30378585258E+02  0.30378585258E+02  0.00000000000E+00 0.  1.
          2   -1    0    0  501    0  0.00000000000E+00 -0.00000000000E+00 -0.61022506117E+03  0.61022506117E+03  0.00000000000E+00 0. -1.
          5    1    1    2  502    0 -0.24452492900E+02  0.80415180616E+02 -0.29163952636E+03  0.30354609044E+03  0.47000000000E+01 0.  1.
         -5    1    1    2    0  502 -0.39894951484E+02 -0.29074957520E+02 -0.55155829623E+02  0.74170181678E+02  0.47000000000E+01 0.  1.
        -11    1    1    2    0    0  0.55955801567E+02 -0.66727081236E+02 -0.22885797081E+03  0.24486634293E+03  0.00000000000E+00 0. -1.
         11    1    1    2    0    0  0.83916428167E+01  0.15386858140E+02 -0.41931491231E+01  0.18021031384E+02  0.00000000000E+00 0.  1.
<mgrwt>
<rscale>  0 0.14211279E+03</rscale>
<asrwt>0</asrwt>
<pdfrwt beam="2">  1        2 0.93880778E-01 0.14967486E+03</pdfrwt>
<pdfrwt beam="1">  1       -2 0.46736285E-02 0.14967486E+03</pdfrwt>
<totfact> 0.10316535E+04</totfact>
</mgrwt>
</event>
<event>
 6    1  0.1190675E-005  0.1891159E+03  0.7546771E-02  0.1180129E+00
         -2   -1    0    0    0  501 -0.00000000000E+00  0.00000000000E+00  0.95036234699E+02  0.95036234699E+02  0.00000000000E+00 0.  1.
          2   -1    0    0  501    0  0.00000000000E+00 -0.00000000000E+00 -0.20698345398E+04  0.20698345398E+04  0.00000000000E+00 0. -1.
          5    1    1    2  502    0 -0.10182575251E+02 -0.87970497522E+02 -0.10493386034E+04  0.10530793359E+04  0.47000000000E+01 0. -1.
         -5    1    1    2    0  502  0.50242259744E+02  0.85897486570E+02 -0.97814164315E+03  0.98320182411E+03  0.47000000000E+01 0.  1.
        -11    1    1    2    0    0  0.22974535888E+02  0.10636612508E+02  0.59450968127E+02  0.64617214704E+02  0.00000000000E+00 0.  1.
         11    1    1    2    0    0 -0.63034220381E+02 -0.85636015564E+01 -0.67690267472E+01  0.63972399781E+02  0.00000000000E+00 0. -1.
<mgrwt>
<rscale>  0 0.16783128E+03</rscale>
<asrwt>0</asrwt>
<pdfrwt beam="2">  1        2 0.31843607E+00 0.18911587E+03</pdfrwt>
<pdfrwt beam="1">  1       -2 0.14620960E-01 0.18911587E+03</pdfrwt>
<totfact> 0.25056016E+02</totfact>
</mgrwt>
</event>
<event>
 6    1  0.1190675E-005  0.1596924E+03  0.7546771E-02  0.1197306E+00
         -2   -1    0    0    0  501 -0.00000000000E+00  0.00000000000E+00  0.54106462833E+02  0.54106462833E+02  0.00000000000E+00 0.  1.
          2   -1    0    0  501    0  0.00000000000E+00 -0.00000000000E+00 -0.39772191500E+03  0.39772191500E+03  0.00000000000E+00 0. -1.
          5    1    1    2  502    0 -0.30080922078E+02  0.42512784535E+02 -0.10870973443E+03  0.12063206490E+03  0.47000000000E+01 0.  1.
         -5    1    1    2    0  502  0.94034024107E+02  0.33562401096E+02 -0.91934034844E+02  0.13580423123E+03  0.47000000000E+01 0.  1.
        -11    1    1    2    0    0 -0.25851608075E+02  0.97034583818E+01 -0.43052625046E+01  0.27946341976E+02  0.00000000000E+00 0.  1.
         11    1    1    2    0    0 -0.38101493954E+02 -0.85778644013E+02 -0.13866642039E+03  0.16744573973E+03  0.00000000000E+00 0. -1.
<mgrwt>
<rscale>  0 0.15260671E+03</rscale>
<asrwt>0</asrwt>
<pdfrwt beam="2">  1        2 0.61187988E-01 0.15969237E+03</pdfrwt>
<pdfrwt beam="1">  1       -2 0.83240711E-02 0.15969237E+03</pdfrwt>
<totfact> 0.68882401E+03</totfact>
</mgrwt>
</event>
<event>
 6    1  0.1190675E-005  0.1563123E+03  0.7546771E-02  0.1200896E+00
          1   -1    0    0  501    0  0.00000000000E+00  0.00000000000E+00  0.17655353624E+04  0.17655353624E+04  0.00000000000E+00 0. -1.
         -1   -1    0    0    0  501 -0.00000000000E+00 -0.00000000000E+00 -0.40437415083E+02  0.40437415083E+02  0.00000000000E+00 0.  1.
          5    1    1    2  502    0 -0.56843640109E+02  0.69095546137E+01  0.50456474549E+03  0.50782537723E+03  0.47000000000E+01 0.  1.
         -5    1    1    2    0  502  0.23079908482E+02 -0.94485876241E+02  0.11398520710E+04  0.11440039758E+04  0.47000000000E+01 0.  1.
        -11    1    1    2    0    0  0.35746364954E+02  0.43841556961E+02 -0.61490326603E+01  0.56900749791E+02  0.00000000000E+00 0.  1.
         11    1    1    2    0    0 -0.19826333264E+01  0.43734764666E+02  0.86830163455E+02  0.97242674588E+02  0.00000000000E+00 0. -1.
<mgrwt>
<rscale>  0 0.14965662E+03</rscale>
<asrwt>0</asrwt>
<pdfrwt beam="1">  1        1 0.27162076E+00 0.15631233E+03</pdfrwt>
<pdfrwt beam="2">  1       -1 0.62211422E-02 0.15631233E+03</pdfrwt>
<totfact> 0.61674000E+02</totfact>
</mgrwt>
</event>
<event>
 6    1  0.1190675E-005  0.1505656E+03  0.7546771E-02  0.1209102E+00
         -2   -1    0    0    0  501 -0.00000000000E+00  0.00000000000E+00  0.40540032795E+02  0.40540032795E+02  0.00000000000E+00 0.  1.
          2   -1    0    0  501    0  0.00000000000E+00 -0.00000000000E+00 -0.50746843392E+03  0.50746843392E+03  0.00000000000E+00 0. -1.
          5    1    1    2  502    0  0.70929271907E+02  0.10317456478E+02 -0.11426681623E+03  0.13496816963E+03  0.47000000000E+01 0.  1.
         -5    1    1    2    0  502 -0.12885092334E+02 -0.70947316837E+02 -0.22209920699E+03  0.23355876159E+03  0.47000000000E+01 0.  1.
        -11    1    1    2    0    0 -0.32367333418E+02  0.70315913647E+02 -0.44803965064E+02  0.89439181962E+02  0.00000000000E+00 0.  1.
         11    1    1    2    0    0 -0.25676846155E+02 -0.96860532878E+01 -0.85758412829E+02  0.90042353522E+02  0.00000000000E+00 0. -1.
<mgrwt>
<rscale>  0 0.14318815E+03</rscale>
<asrwt>0</asrwt>
<pdfrwt beam="2">  1        2 0.78072072E-01 0.15056559E+03</pdfrwt>
<pdfrwt beam="1">  1       -2 0.62369277E-02 0.15056559E+03</pdfrwt>
<totfact> 0.82097950E+03</totfact>
</mgrwt>
</event>
<event>
 6    1  0.1190675E-005  0.1884842E+03  0.7546771E-02  0.1164802E+00
          2   -1    0    0  501    0  0.00000000000E+00  0.00000000000E+00  0.88477776052E+03  0.88477776052E+03  0.00000000000E+00 0.  1.
         -2   -1    0    0    0  501 -0.00000000000E+00 -0.00000000000E+00 -0.41554091940E+02  0.41554091940E+02  0.00000000000E+00 0. -1.
          5    1    1    2  502    0  0.69831917520E+02  0.89822455590E+02  0.22400271186E+03  0.25128445068E+03  0.47000000000E+01 0.  1.
         -5    1    1    2    0  502  0.11043930423E+02  0.25766308827E+02  0.38909881991E+03  0.39013568502E+03  0.47000000000E+01 0.  1.
        -11    1    1    2    0    0 -0.67969872847E+02 -0.13069034152E+03  0.19283183663E+03  0.24266022789E+03  0.00000000000E+00 0. -1.
         11    1    1    2    0    0 -0.12905975096E+02  0.15101577105E+02  0.37290300185E+02  0.42251488875E+02  0.00000000000E+00 0.  1.
<mgrwt>
<rscale>  0 0.18313568E+03</rscale>
<asrwt>0</asrwt>
<pdfrwt beam="1">  1        2 0.13611964E+00 0.18848422E+03</pdfrwt>
<pdfrwt beam="2">  1       -2 0.63929379E-02 0.18848422E+03</pdfrwt>
<totfact> 0.41195762E+03</totfact>
</mgrwt>
</event>
<event>
 6    1  0.1190675E-005  0.1257909E+03  0.7546771E-02  0.1256230E+00
         -2   -1    0    0    0  501 -0.00000000000E+00  0.00000000000E+00  0.98226745314E+02  0.98226745314E+02  0.00000000000E+00 0.  1.
          2   -1    0    0  501    0  0.00000000000E+00 -0.00000000000E+00 -0.11440797441E+03  0.11440797441E+03  0.00000000000E+00 0. -1.
          5    1    1    2  502    0 -0.65942396191E+02 -0.22301164596E+02 -0.20300688114E+02  0.72663260976E+02  0.47000000000E+01 0. -1.
         -5    1    1    2    0  502  0.51930240765E+02  0.20427489064E+02 -0.14214238221E+02  0.57776870663E+02  0.47000000000E+01 0. -1.
        -11    1    1    2    0    0  0.13329945149E+02  0.19664413331E+02  0.44559334103E+02  0.50496641918E+02  0.00000000000E+00 0.  1.
         11    1    1    2    0    0  0.68221027720E+00 -0.17790737799E+02 -0.26225636867E+02  0.31697946170E+02  0.00000000000E+00 0. -1.
<mgrwt>
<rscale>  0 0.11237696E+03</rscale>
<asrwt>0</asrwt>
<pdfrwt beam="2">  1        2 0.17601227E-01 0.12579089E+03</pdfrwt>
<pdfrwt beam="1">  1       -2 0.15111807E-01 0.12579089E+03</pdfrwt>
<totfact> 0.10176006E+04</totfact>
</mgrwt>
</event>
<event>
 6    1  0.1190675E-005  0.2249525E+03  0.7546771E-02  0.1133518E+00
          2   -1    0    0  501    0  0.00000000000E+00  0.00000000000E+00  0.63376782740E+03  0.63376782740E+03  0.00000000000E+00 0.  1.
         -2   -1    0    0    0  501 -0.00000000000E+00 -0.00000000000E+00 -0.78197427387E+02  0.78197427387E+02  0.00000000000E+00 0. -1.
          5    1    1    2  502    0  0.12477010944E+03 -0.11199912396E+03  0.23627578558E+03  0.28975803842E+03  0.47000000000E+01 0.  1.
         -5    1    1    2    0  502  0.42254787013E+02  0.27851814430E+02  0.13622226145E+03  0.14539527195E+03  0.47000000000E+01 0.  1.
        -11    1    1    2    0    0 -0.84743308455E+02  0.78674105882E+02  0.14640938713E+03  0.18656567719E+03  0.00000000000E+00 0. -1.
         11    1    1    2    0    0 -0.82281588002E+02  0.54732036505E+01  0.36662965852E+02  0.90246267222E+02  0.00000000000E+00 0.  1.
<mgrwt>
<rscale>  0 0.22049031E+03</rscale>
<asrwt>0</asrwt>
<pdfrwt beam="1">  1        2 0.97502739E-01 0.22495246E+03</pdfrwt>
<pdfrwt beam="2">  1       -2 0.12030374E-01 0.22495246E+03</pdfrwt>
<totfact> 0.23155223E+03</totfact>
</mgrwt>
</event>
<event>
 6    1  0.1190675E-005  0.1322866E+03  0.7546771E-02  0.1236891E+00
          2   -1    0    0  501    0  0.00000000000E+00  0.00000000000E+00  0.22123997588E+03  0.22123997588E+03  0.00000000000E+00 0. -1.
         -2   -1    0    0    0  501 -0.00000000000E+00 -0.00000000000E+00 -0.62169952514E+02  0.62169952514E+02  0.00000000000E+00 0.  1.
          5    1    1    2  502    0 -0.45540440812E+02  0.81660487118E+01  0.64827199805E+02  0.79782654352E+02  0.47000000000E+01 0. -1.
         -5    1    1    2    0  502  0.74830904955E+02  0.23708173264E+02  0.35675721110E+02  0.86351542502E+02  0.47000000000E+01 0. -1.
        -11    1    1    2    0    0 -0.99144822251E+00 -0.26369662427E+02  0.78109795701E+02  0.82446845001E+02  0.00000000000E+00 0. -1.
         11    1    1    2    0    0 -0.28299015921E+02 -0.55045595485E+01 -0.19542693251E+02  0.34828886537E+02  0.00000000000E+00 0.  1.
<mgrwt>
<rscale>  0 0.12384119E+03</rscale>
<asrwt>0</asrwt>
<pdfrwt beam="1">  1        2 0.34036919E-01 0.13228656E+03</pdfrwt>
<pdfrwt beam="2">  1       -2 0.95646082E-02 0.13228656E+03</pdfrwt>
<totfact> 0.10231057E+04</totfact>
</mgrwt>
</event>
<event>
 6    1  0.1190675E-005  0.1416157E+03  0.7546771E-02  0.1221366E+00
          3   -1    0    0  501    0  0.00000000000E+00  0.00000000000E+00  0.24259314814E+03  0.24259314814E+03  0.00000000000E+00 0. -1.
         -3   -1    0    0    0  501 -0.00000000000E+00 -0.00000000000E+00 -0.67565989755E+02  0.67565989755E+02  0.00000000000E+00 0.  1.
          5    1    1    2  502    0  0.13368755396E+02 -0.44794354119E+02  0.61114852337E+02  0.77086788478E+02  0.47000000000E+01 0. -1.
         -5    1    1    2    0  502 -0.78978447405E+02  0.33585088552E+02  0.28736103157E+02  0.90627848657E+02  0.47000000000E+01 0. -1.
        -11    1    1    2    0    0  0.10388668903E+02  0.46225998897E+02  0.46958265412E+02  0.66707166827E+02  0.00000000000E+00 0. -1.
         11    1    1    2    0    0  0.55221023107E+02 -0.35016733330E+02  0.38217937480E+02  0.75737333933E+02  0.00000000000E+00 0.  1.
<mgrwt>
<rscale>  0 0.13419128E+03</rscale>
<asrwt>0</asrwt>
<pdfrwt beam="1">  1        3 0.37322022E-01 0.14161570E+03</pdfrwt>
<pdfrwt beam="2">  1       -3 0.10394768E-01 0.14161570E+03</pdfrwt>
<totfact> 0.11391697E+03</totfact>
</mgrwt>
</event>
<event>
 6    1  0.1190675E-005  0.2531781E+03  0.7546771E-02  0.1111313E+00
          2   -1    0    0  501    0  0.00000000000E+00  0.00000000000E+00  0.64086037040E+03  0.64086037040E+03  0.00000000000E+00 0. -1.
         -2   -1    0    0    0  501 -0.00000000000E+00 -0.00000000000E+00 -0.25005108372E+02  0.25005108372E+02  0.00000000000E+00 0.  1.
          5    1    1    2  502    0  0.22473731247E+01 -0.90844121164E+01  0.21984450141E+03  0.22009378008E+03  0.47000000000E+01 0.  1.
         -5    1    1    2    0  502  0.30526901606E+02  0.59611468692E+02  0.51325264000E+02  0.84509121673E+02  0.47000000000E+01 0.  1.
        -11    1    1    2    0    0 -0.58673692243E+02 -0.53929931735E+02  0.22320492025E+03  0.23700522383E+03  0.00000000000E+00 0.  1.
         11    1    1    2    0    0  0.25899417513E+02  0.34028751593E+01  0.12148057637E+03  0.12425735319E+03  0.00000000000E+00 0. -1.
<mgrwt>
<rscale>  0 0.25317806E+03</rscale>
<asrwt>0</asrwt>
<pdfrwt beam="1">  1        2 0.98593891E-01 0.25317806E+03</pdfrwt>
<pdfrwt beam="2">  1       -2 0.38469402E-02 0.25317806E+03</pdfrwt>
<totfact> 0.13479281E+04</totfact>
</mgrwt>
</event>
<event>
 6    1  0.1190675E-005  0.2790793E+03  0.7546771E-02  0.1098772E+00
          1   -1    0    0  501    0  0.00000000000E+00  0.00000000000E+00  0.20964827782E+04  0.20964827782E+04  0.00000000000E+00 0. -1.
         -1   -1    0    0    0  501 -0.00000000000E+00 -0.00000000000E+00 -0.39384160217E+02  0.39384160217E+02  0.00000000000E+00 0.  1.
          5    1    1    2  502    0  0.18040746536E+03  0.11349825638E+03  0.13110812418E+04  0.13283014795E+04  0.47000000000E+01 0. -1.
         -5    1    1    2    0  502  0.44612091048E+02 -0.17838229884E+02  0.11319842657E+03  0.12306264621E+03  0.47000000000E+01 0.  1.
        -11    1    1    2    0    0 -0.44898622665E+02 -0.31875231795E+02  0.63895084224E+02  0.84347486667E+02  0.00000000000E+00 0.  1.
         11    1    1    2    0    0 -0.18012093374E+03 -0.63784794701E+02  0.56892386536E+03  0.60015532605E+03  0.00000000000E+00 0. -1.
<mgrwt>
<rscale>  0 0.27442683E+03</rscale>
<asrwt>0</asrwt>
<pdfrwt beam="1">  1        1 0.32253572E+00 0.27907929E+03</pdfrwt>
<pdfrwt beam="2">  1       -1 0.60591032E-02 0.27907929E+03</pdfrwt>
<totfact> 0.38384985E+02</totfact>
</mgrwt>
</event>
<event>
 6    1  0.1190675E-005  0.2082426E+03  0.7546771E-02  0.1146957E+00
          2   -1    0    0  501    0  0.00000000000E+00  0.00000000000E+00  0.72677876347E+03  0.72677876347E+03  0.00000000000E+00 0. -1.
         -2   -1    0    0    0  501 -0.00000000000E+00 -0.00000000000E+00 -0.56564642769E+02  0.56564642769E+02  0.00000000000E+00 0.  1.
          5    1    1    2  502    0 -0.10459218636E+03 -0.14721622428E+01  0.25270138731E+03  0.27353569028E+03  0.47000000000E+01 0. -1.
         -5    1    1    2    0  502 -0.30065570978E+02 -0.96544153695E+02  0.17500933560E+03  0.20217583861E+03  0.47000000000E+01 0. -1.
        -11    1    1    2    0    0  0.62953700244E+02  0.24552382371E+02  0.16713777026E+03  0.18028039855E+03  0.00000000000E+00 0. -1.
         11    1    1    2    0    0  0.71704057091E+02  0.73463933567E+02  0.75365627533E+02  0.12735147880E+03  0.00000000000E+00 0.  1.
<mgrwt>
<rscale>  0 0.20333273E+03</rscale>
<asrwt>0</asrwt>
<pdfrwt beam="1">  1        2 0.11181211E+00 0.20824264E+03</pdfrwt>
<pdfrwt beam="2">  1       -2 0.87022532E-02 0.20824264E+03</pdfrwt>
<totfact> 0.32844568E+03</totfact>
</mgrwt>
</event>
<event>
 6    1  0.1190675E-005  0.4996613E+03  0.7546771E-02  0.1013867E+00
         -1   -1    0    0    0  501 -0.00000000000E+00  0.00000000000E+00  0.70314951407E+02  0.70314951407E+02  0.00000000000E+00 0.  1.
          1   -1    0    0  501    0  0.00000000000E+00 -0.00000000000E+00 -0.88765415924E+03  0.88765415924E+03  0.00000000000E+00 0. -1.
          5    1    1    2  502    0  0.44126941687E+01 -0.33472620926E+02 -0.10521169726E+03  0.11059601919E+03  0.47000000000E+01 0. -1.
         -5    1    1    2    0  502  0.14469482998E+03  0.80089900167E+02 -0.62641935539E+03  0.64789990333E+03  0.47000000000E+01 0. -1.
        -11    1    1    2    0    0 -0.88809484617E+02  0.89702112290E+01 -0.13642799863E+02  0.90297924869E+02  0.00000000000E+00 0.  1.
         11    1    1    2    0    0 -0.60298039534E+02 -0.55587490471E+02 -0.72065355328E+02  0.10917526326E+03  0.00000000000E+00 0. -1.
<mgrwt>
<rscale>  0 0.49966132E+03</rscale>
<asrwt>0</asrwt>
<pdfrwt beam="2">  1        1 0.13656217E+00 0.49966132E+03</pdfrwt>
<pdfrwt beam="1">  1       -1 0.10817686E-01 0.49966132E+03</pdfrwt>
<totfact> 0.10490983E+03</totfact>
</mgrwt>
</event>
<event>
 6    1  0.1190675E-005  0.1273062E+03  0.7546771E-02  0.1245883E+00
          2   -1    0    0  501    0  0.00000000000E+00  0.00000000000E+00  0.15282700862E+03  0.15282700862E+03  0.00000000000E+00 0. -1.
         -2   -1    0    0    0  501 -0.00000000000E+00 -0.00000000000E+00 -0.14874234562E+03  0.14874234562E+03  0.00000000000E+00 0.  1.
          5    1    1    2  502    0 -0.71105813340E+02  0.18622481838E+02  0.50079156807E+02  0.89066522707E+02  0.47000000000E+01 0.  1.
         -5    1    1    2    0  502  0.52322799493E+02 -0.34944287947E+01  0.53407128340E+02  0.74995318100E+02  0.47000000000E+01 0.  1.
        -11    1    1    2    0    0 -0.35912914466E+02 -0.11067595311E+02 -0.25243157801E+02  0.45270808555E+02  0.00000000000E+00 0.  1.
         11    1    1    2    0    0  0.54695928313E+02 -0.40604577321E+01 -0.74158464352E+02  0.92236704874E+02  0.00000000000E+00 0. -1.
<mgrwt>
<rscale>  0 0.11832704E+03</rscale>
<asrwt>0</asrwt>
<pdfrwt beam="1">  1        2 0.23511848E-01 0.12730623E+03</pdfrwt>
<pdfrwt beam="2">  1       -2 0.22883438E-01 0.12730623E+03</pdfrwt>
<totfact> 0.36692473E+03</totfact>
</mgrwt>
</event>
<event>
 6    1  0.1190675E-005  0.1259755E+03  0.7546771E-02  0.1246773E+00
          1   -1    0    0  501    0  0.00000000000E+00  0.00000000000E+00  0.33478882436E+03  0.33478882436E+03  0.00000000000E+00 0. -1.
         -1   -1    0    0    0  501 -0.00000000000E+00 -0.00000000000E+00 -0.40824600364E+02  0.40824600364E+02  0.00000000000E+00 0.  1.
          5    1    1    2  502    0 -0.13454328515E+02 -0.30908036009E+01 -0.13123536968E+02  0.19618594375E+02  0.47000000000E+01 0. -1.
         -5    1    1    2    0  502  0.75829419582E+01 -0.11496950388E+02  0.23559523534E+03  0.23604424541E+03  0.47000000000E+01 0. -1.
        -11    1    1    2    0    0  0.34658671728E+02  0.43404862197E+02  0.39535732587E+02  0.68178293756E+02  0.00000000000E+00 0.  1.
         11    1    1    2    0    0 -0.28787285171E+02 -0.28817108209E+02  0.31956793041E+02  0.51772291185E+02  0.00000000000E+00 0. -1.
<mgrwt>
<rscale>  0 0.11779866E+03</rscale>
<asrwt>0</asrwt>
<pdfrwt beam="1">  1        1 0.51505971E-01 0.12597552E+03</pdfrwt>
<pdfrwt beam="2">  1       -1 0.62807080E-02 0.12597552E+03</pdfrwt>
<totfact> 0.89614597E+03</totfact>
</mgrwt>
</event>
<event>
 6    1  0.1190675E-005  0.1415084E+03  0.7546771E-02  0.1222427E+00
          1   -1    0    0  501    0  0.00000000000E+00  0.00000000000E+00  0.97978318469E+02  0.97978318469E+02  0.00000000000E+00 0. -1.
         -1   -1    0    0    0  501 -0.00000000000E+00 -0.00000000000E+00 -0.18436525645E+03  0.18436525645E+03  0.00000000000E+00 0.  1.
          5    1    1    2  502    0 -0.30475472885E+02  0.79039000057E+01 -0.51164913661E+02  0.60259144308E+02  0.47000000000E+01 0.  1.
         -5    1    1    2    0  502  0.25671495648E+02  0.58261422604E+02  0.50263325064E+02  0.81252143967E+02  0.47000000000E+01 0.  1.
        -11    1    1    2    0    0  0.17589269562E+02 -0.79434043207E+02 -0.37799753945E+02  0.89710484461E+02  0.00000000000E+00 0. -1.
         11    1    1    2    0    0 -0.12785292325E+02  0.13268720597E+02 -0.47685595443E+02  0.51121802187E+02  0.00000000000E+00 0.  1.
<mgrwt>
<rscale>  0 0.13344835E+03</rscale>
<asrwt>0</asrwt>
<pdfrwt beam="1">  1        1 0.15073587E-01 0.14150842E+03</pdfrwt>
<pdfrwt beam="2">  1       -1 0.28363886E-01 0.14150842E+03</pdfrwt>
<totfact> 0.40026124E+03</totfact>
</mgrwt>
</event>
<event>
 6    1  0.1190675E-005  0.2978306E+03  0.7546771E-02  0.1086330E+00
          2   -1    0    0  501    0  0.00000000000E+00  0.00000000000E+00  0.21879574961E+03  0.21879574961E+03  0.00000000000E+00 0. -1.
         -2   -1    0    0    0  501 -0.00000000000E+00 -0.00000000000E+00 -0.10135372252E+03  0.10135372252E+03  0.00000000000E+00 0.  1.
          5    1    1    2  502    0 -0.18784867416E+02 -0.26931806452E+02  0.43869765329E+02  0.54998543187E+02  0.47000000000E+01 0.  1.
         -5    1    1    2    0  502 -0.10380359452E+02  0.11761856602E+03  0.52026543384E+02  0.12911518172E+03  0.47000000000E+01 0.  1.
        -11    1    1    2    0    0 -0.20980238054E+02 -0.49504644920E+02 -0.21781693893E+02  0.58011399279E+02  0.00000000000E+00 0.  1.
         11    1    1    2    0    0  0.50145464922E+02 -0.41182114644E+02  0.43327412263E+02  0.78024347945E+02  0.00000000000E+00 0. -1.
<mgrwt>
<rscale>  0 0.29783058E+03</rscale>
<asrwt>0</asrwt>
<pdfrwt beam="1">  1        2 0.33660885E-01 0.29783058E+03</pdfrwt>
<pdfrwt beam="2">  1       -2 0.15592880E-01 0.29783058E+03</pdfrwt>
<totfact> 0.49392468E+03</totfact>
</mgrwt>
</event>
<event>
 6    1  0.1190675E-005  0.1268471E+03  0.7546771E-02  0.1247656E+00
         -1   -1    0    0    0  501 -0.00000000000E+00  0.00000000000E+00  0.42312936960E+02  0.42312936960E+02  0.00000000000E+00 0.  1.
          1   -1    0    0  501    0  0.00000000000E+00 -0.00000000000E+00 -0.44290617364E+03  0.44290617364E+03  0.00000000000E+00 0. -1.
          5    1    1    2  502    0 -0.20538524006E+02 -0.69096453813E+02 -0.25265661562E+03  0.26278052880E+03  0.47000000000E+01 0.  1.
         -5    1    1    2    0  502  0.98146612562E+01  0.50380457670E+02 -0.11151558756E+03  0.12285086227E+03  0.47000000000E+01 0.  1.
        -11    1    1    2    0    0 -0.87170864559E+01  0.52421551750E+02 -0.26746416688E+02  0.59492667529E+02  0.00000000000E+00 0.  1.
         11    1    1    2    0    0  0.19440949205E+02 -0.33705555607E+02 -0.96746168074E+01  0.40095052003E+02  0.00000000000E+00 0. -1.
<mgrwt>
<rscale>  0 0.11727817E+03</rscale>
<asrwt>0</asrwt>
<pdfrwt beam="2">  1        1 0.68139414E-01 0.12684706E+03</pdfrwt>
<pdfrwt beam="1">  1       -1 0.65096824E-02 0.12684706E+03</pdfrwt>
<totfact> 0.59828857E+03</totfact>
</mgrwt>
</event>
<event>
 6    1  0.1190675E-005  0.1268986E+03  0.7546771E-02  0.1247996E+00
         -1   -1    0    0    0  501 -0.00000000000E+00  0.00000000000E+00  0.13487462398E+03  0.13487462398E+03  0.00000000000E+00 0.  1.
          1   -1    0    0  501    0  0.00000000000E+00 -0.00000000000E+00 -0.89731740700E+02  0.89731740700E+02  0.00000000000E+00 0. -1.
          5    1    1    2  502    0 -0.40554765556E+02 -0.56447113567E+02 -0.76032379161E+00  0.69668025174E+02  0.47000000000E+01 0. -1.
         -5    1    1    2    0  502  0.43582301639E+02  0.34827988408E+02  0.15441707709E+02  0.58077036165E+02  0.47000000000E+01 0. -1.
        -11    1    1    2    0    0  0.22569246084E+01 -0.34926109281E+02  0.14368273055E+02  0.37833504844E+02  0.00000000000E+00 0. -1.
         11    1    1    2    0    0 -0.52844606916E+01  0.56545234440E+02  0.16093226309E+02  0.59027798499E+02  0.00000000000E+00 0.  1.
<mgrwt>
<rscale>  0 0.11707840E+03</rscale>
<asrwt>0</asrwt>
<pdfrwt beam="2">  1        1 0.13804883E-01 0.12689861E+03</pdfrwt>
<pdfrwt beam="1">  1       -1 0.20749942E-01 0.12689861E+03</pdfrwt>
<totfact> 0.74301720E+03</totfact>
</mgrwt>
</event>
<event>
 6    1  0.1190675E-005  0.1314114E+03  0.7546771E-02  0.1238460E+00
         -1   -1    0    0    0  501 -0.00000000000E+00  0.00000000000E+00  0.59624186082E+02  0.59624186082E+02  0.00000000000E+00 0.  1.
          1   -1    0    0  501    0  0.00000000000E+00 -0.00000000000E+00 -0.28754502493E+03  0.28754502493E+03  0.00000000000E+00 0. -1.
          5    1    1    2  502    0 -0.51238753666E+02  0.27820779756E+02 -0.17472663798E+03  0.18425768283E+03  0.47000000000E+01 0. -1.
         -5    1    1    2    0  502  0.16312467992E+02 -0.48463822187E+02 -0.31385556904E+02  0.60182903346E+02  0.47000000000E+01 0. -1.
        -11    1    1    2    0    0  0.17980907355E+02 -0.17161760344E+02 -0.47761262064E+02  0.53842150787E+02  0.00000000000E+00 0. -1.
         11    1    1    2    0    0  0.16945378319E+02  0.37804802776E+02  0.25952618094E+02  0.48886474052E+02  0.00000000000E+00 0.  1.
<mgrwt>
<rscale>  0 0.12285540E+03</rscale>
<asrwt>0</asrwt>
<pdfrwt beam="2">  1        1 0.44237697E-01 0.13141143E+03</pdfrwt>
<pdfrwt beam="1">  1       -1 0.91729515E-02 0.13141143E+03</pdfrwt>
<totfact> 0.61399823E+03</totfact>
</mgrwt>
</event>
<event>
 6    1  0.1190675E-005  0.2445005E+03  0.7546771E-02  0.1116830E+00
          1   -1    0    0  501    0  0.00000000000E+00  0.00000000000E+00  0.58326986697E+03  0.58326986697E+03  0.00000000000E+00 0. -1.
         -1   -1    0    0    0  501 -0.00000000000E+00 -0.00000000000E+00 -0.25623008962E+02  0.25623008962E+02  0.00000000000E+00 0.  1.
          5    1    1    2  502    0 -0.33992583511E+02 -0.35132034044E+02  0.36916264111E+02  0.61438230001E+02  0.47000000000E+01 0. -1.
         -5    1    1    2    0  502 -0.50770079838E+01 -0.78011716545E+00  0.32564409348E+03  0.32571851376E+03  0.47000000000E+01 0. -1.
        -11    1    1    2    0    0 -0.15568082453E+02  0.47090931412E+02  0.94391889664E+02  0.10662902910E+03  0.00000000000E+00 0.  1.
         11    1    1    2    0    0  0.54637673947E+02 -0.11178780203E+02  0.10069461076E+03  0.11510710307E+03  0.00000000000E+00 0. -1.
<mgrwt>
<rscale>  0 0.24450054E+03</rscale>
<asrwt>0</asrwt>
<pdfrwt beam="1">  1        1 0.89733816E-01 0.24450054E+03</pdfrwt>
<pdfrwt beam="2">  1       -1 0.39420018E-02 0.24450054E+03</pdfrwt>
<totfact> 0.91057084E+03</totfact>
</mgrwt>
</event>
<event>
 6    1  0.1190675E-005  0.1315912E+03  0.7546771E-02  0.1238710E+00
         -1   -1    0    0    0  501 -0.00000000000E+00  0.00000000000E+00  0.13233164823E+02  0.13233164823E+02  0.00000000000E+00 0.  1.
          1   -1    0    0  501    0  0.00000000000E+00 -0.00000000000E+00 -0.10127095600E+04  0.10127095600E+04  0.00000000000E+00 0. -1.
          5    1    1    2  502    0  0.32078720067E+02  0.19369692781E+02 -0.35562665002E+03  0.35762638813E+03  0.47000000000E+01 0. -1.
         -5    1    1    2    0  502 -0.63300494655E+02 -0.46148064965E+02 -0.24563325519E+03  0.25786504723E+03  0.47000000000E+01 0. -1.
        -11    1    1    2    0    0  0.56880331520E+02  0.40330045294E+02 -0.25746345730E+03  0.26673829217E+03  0.00000000000E+00 0. -1.
         11    1    1    2    0    0 -0.25658556932E+02 -0.13551673110E+02 -0.14075303267E+03  0.14371299730E+03  0.00000000000E+00 0.  1.
<mgrwt>
<rscale>  0 0.12269897E+03</rscale>
<asrwt>0</asrwt>
<pdfrwt beam="2">  1        1 0.15580146E+00 0.13159116E+03</pdfrwt>
<pdfrwt beam="1">  1       -1 0.20358716E-02 0.13159116E+03</pdfrwt>
<totfact> 0.10062849E+04</totfact>
</mgrwt>
</event>
<event>
 6    1  0.1190675E-005  0.2348745E+03  0.7546771E-02  0.1126054E+00
          2   -1    0    0  501    0  0.00000000000E+00  0.00000000000E+00  0.41876438773E+03  0.41876438773E+03  0.00000000000E+00 0. -1.
         -2   -1    0    0    0  501 -0.00000000000E+00 -0.00000000000E+00 -0.14200446424E+03  0.14200446424E+03  0.00000000000E+00 0.  1.
          5    1    1    2  502    0  0.73680543047E+02 -0.12703411444E+03  0.84463978688E+02  0.16947785210E+03  0.47000000000E+01 0. -1.
         -5    1    1    2    0  502  0.58136209683E+01 -0.55235139939E+02  0.16045997181E+03  0.16986527434E+03  0.47000000000E+01 0. -1.
        -11    1    1    2    0    0 -0.51762336419E+02  0.13155873348E+03 -0.21231209075E+02  0.14296084801E+03  0.00000000000E+00 0.  1.
         11    1    1    2    0    0 -0.27731827596E+02  0.50710520905E+02  0.53067182061E+02  0.78464877520E+02  0.00000000000E+00 0. -1.
<mgrwt>
<rscale>  0 0.23083407E+03</rscale>
<asrwt>0</asrwt>
<pdfrwt beam="1">  1        2 0.64425290E-01 0.23487447E+03</pdfrwt>
<pdfrwt beam="2">  1       -2 0.21846841E-01 0.23487447E+03</pdfrwt>
<totfact> 0.13655706E+03</totfact>
</mgrwt>
</event>
<event>
 6    1  0.1190675E-005  0.1408434E+03  0.7546771E-02  0.1223417E+00
         -1   -1    0    0    0  501 -0.00000000000E+00  0.00000000000E+00  0.13695518753E+03  0.13695518753E+03  0.00000000000E+00 0.  1.
          1   -1    0    0  501    0  0.00000000000E+00 -0.00000000000E+00 -0.12422426261E+03  0.12422426261E+03  0.00000000000E+00 0. -1.
          5    1    1    2  502    0  0.52913719364E+02 -0.11191179855E+02  0.40798233886E+02  0.67909425647E+02  0.47000000000E+01 0.  1.
         -5    1    1    2    0  502  0.82967873587E+01  0.32780277801E+02 -0.67218008571E+02  0.75390542971E+02  0.47000000000E+01 0.  1.
        -11    1    1    2    0    0 -0.26906338924E+02 -0.52668313590E+02  0.40313401728E+02  0.71575643131E+02  0.00000000000E+00 0.  1.
         11    1    1    2    0    0 -0.34304167799E+02  0.31079215644E+02 -0.11627021279E+01  0.46303838391E+02  0.00000000000E+00 0. -1.
<mgrwt>
<rscale>  0 0.13275995E+03</rscale>
<asrwt>0</asrwt>
<pdfrwt beam="2">  1        1 0.19111425E-01 0.14084345E+03</pdfrwt>
<pdfrwt beam="1">  1       -1 0.21070029E-01 0.14084345E+03</pdfrwt>
<totfact> 0.48031267E+03</totfact>
</mgrwt>
</event>
<event>
 6    1  0.1190675E-005  0.2618733E+03  0.7546771E-02  0.1106023E+00
          2   -1    0    0  501    0  0.00000000000E+00  0.00000000000E+00  0.30567379904E+03  0.30567379904E+03  0.00000000000E+00 0. -1.
         -2   -1    0    0    0  501 -0.00000000000E+00 -0.00000000000E+00 -0.56087256922E+02  0.56087256922E+02  0.00000000000E+00 0.  1.
          5    1    1    2  502    0 -0.82268232144E+01 -0.98416639786E+01 -0.19621281721E+02  0.23908652543E+02  0.47000000000E+01 0.  1.
         -5    1    1    2    0  502  0.71523818015E+02 -0.27358278523E+02  0.16216957822E+03  0.17940232453E+03  0.47000000000E+01 0.  1.
        -11    1    1    2    0    0 -0.21347837485E+02  0.29619649462E+02 -0.65790338492E+01  0.37099022708E+02  0.00000000000E+00 0.  1.
         11    1    1    2    0    0 -0.41949157315E+02  0.75802930400E+01  0.11361727947E+03  0.12135105618E+03  0.00000000000E+00 0. -1.
<mgrwt>
<rscale>  0 0.26187329E+03</rscale>
<asrwt>0</asrwt>
<pdfrwt beam="1">  1        2 0.47026738E-01 0.26187329E+03</pdfrwt>
<pdfrwt beam="2">  1       -2 0.86288089E-02 0.26187329E+03</pdfrwt>
<totfact> 0.88945213E+03</totfact>
</mgrwt>
</event>
<event>
 6    1  0.1190675E-005  0.1465131E+03  0.7546771E-02  0.1214061E+00
         -1   -1    0    0    0  501 -0.00000000000E+00  0.00000000000E+00  0.66099616998E+02  0.66099616998E+02  0.00000000000E+00 0.  1.
          1   -1    0    0  501    0  0.00000000000E+00 -0.00000000000E+00 -0.36646746068E+03  0.36646746068E+03  0.00000000000E+00 0. -1.
          5    1    1    2  502    0 -0.22953343727E+02 -0.29074954107E+02 -0.40842418864E+01  0.37563013408E+02  0.47000000000E+01 0. -1.
         -5    1    1    2    0  502 -0.41041450297E+02 -0.12679956269E+02 -0.26799794412E+03  0.27145933394E+03  0.47000000000E+01 0. -1.
        -11    1    1    2    0    0  0.86884724995E+02  0.30842029404E+02 -0.10988594137E+02  0.92848992544E+02  0.00000000000E+00 0. -1.
         11    1    1    2    0    0 -0.22889930972E+02  0.10912880972E+02 -0.17297063543E+02  0.30695737786E+02  0.00000000000E+00 0.  1.
<mgrwt>
<rscale>  0 0.13945707E+03</rscale>
<asrwt>0</asrwt>
<pdfrwt beam="2">  1        1 0.56379610E-01 0.14651312E+03</pdfrwt>
<pdfrwt beam="1">  1       -1 0.10169172E-01 0.14651312E+03</pdfrwt>
<totfact> 0.39043549E+03</totfact>
</mgrwt>
</event>
<event>
 6    1  0.7054660E-005  0.2016666E+03  0.7546771E-02  0.1152649E+00
          1   -1    0    0  501    0  0.00000000000E+00  0.00000000000E+00  0.66315043235E+03  0.66315043235E+03  0.00000000000E+00 0. -1.
         -1   -1    0    0    0  501 -0.00000000000E+00 -0.00000000000E+00 -0.55630621173E+02  0.55630621173E+02  0.00000000000E+00 0.  1.
          5    1    1    2  502    0  0.25923465763E+02  0.89092756642E+02  0.96712705705E+02  0.13410810120E+03  0.47000000000E+01 0. -1.
         -5    1    1    2    0  502 -0.82449130937E+02  0.58721212888E+02  0.20684203986E+03  0.23032967565E+03  0.47000000000E+01 0. -1.
        -11    1    1    2    0    0  0.66061935090E+02 -0.82842870408E+02  0.12588904787E+03  0.16454535186E+03  0.00000000000E+00 0.  1.
         11    1    1    2    0    0 -0.95362699164E+01 -0.64971099122E+02  0.17807601775E+03  0.18979792481E+03  0.00000000000E+00 0. -1.
<mgrwt>
<rscale>  0 0.19658911E+03</rscale>
<asrwt>0</asrwt>
<pdfrwt beam="1">  1        1 0.10202314E+00 0.20166658E+03</pdfrwt>
<pdfrwt beam="2">  1       -1 0.85585576E-02 0.20166658E+03</pdfrwt>
<totfact> 0.23488556E+03</totfact>
</mgrwt>
</event>
<event>
 6    1  0.1190675E-005  0.1282763E+03  0.7546771E-02  0.1244593E+00
          2   -1    0    0  501    0  0.00000000000E+00  0.00000000000E+00  0.34783783913E+03  0.34783783913E+03  0.00000000000E+00 0. -1.
         -2   -1    0    0    0  501 -0.00000000000E+00 -0.00000000000E+00 -0.36479127252E+02  0.36479127252E+02  0.00000000000E+00 0.  1.
          5    1    1    2  502    0  0.62646648422E+01 -0.36990187216E+02  0.17746306097E+01  0.37851806954E+02  0.47000000000E+01 0.  1.
         -5    1    1    2    0  502  0.14360229231E+02  0.16872080948E+02  0.19978501058E+03  0.20106472528E+03  0.47000000000E+01 0.  1.
        -11    1    1    2    0    0 -0.25675629350E+02 -0.18898307847E+02  0.35214223930E+01  0.32074669097E+02  0.00000000000E+00 0.  1.
         11    1    1    2    0    0  0.50507352762E+01  0.39016414116E+02  0.10627764829E+03  0.11332576505E+03  0.00000000000E+00 0. -1.
<mgrwt>
<rscale>  0 0.11909766E+03</rscale>
<asrwt>0</asrwt>
<pdfrwt beam="1">  1        2 0.53513511E-01 0.12827634E+03</pdfrwt>
<pdfrwt beam="2">  1       -2 0.56121737E-02 0.12827634E+03</pdfrwt>
<totfact> 0.14304583E+04</totfact>
</mgrwt>
</event>
<event>
 6    1  0.1190675E-005  0.1267722E+03  0.7546771E-02  0.1242176E+00
         -1   -1    0    0    0  501 -0.00000000000E+00  0.00000000000E+00  0.20717007675E+02  0.20717007675E+02  0.00000000000E+00 0.  1.
          1   -1    0    0  501    0  0.00000000000E+00 -0.00000000000E+00 -0.68029428080E+03  0.68029428080E+03  0.00000000000E+00 0. -1.
          5    1    1    2  502    0 -0.27464636492E+02 -0.10906370268E+02 -0.28279244836E+03  0.28437108506E+03  0.47000000000E+01 0. -1.
         -5    1    1    2    0  502  0.73802548485E+02  0.43946623182E+01 -0.16201489941E+03  0.17814894569E+03  0.47000000000E+01 0.  1.
        -11    1    1    2    0    0 -0.68337083208E+02  0.89500821460E+01 -0.20084564925E+03  0.21234178989E+03  0.00000000000E+00 0. -1.
         11    1    1    2    0    0  0.21999171215E+02 -0.24383741964E+01 -0.13924276109E+02  0.26149467834E+02  0.00000000000E+00 0.  1.
<mgrwt>
<rscale>  0 0.12056024E+03</rscale>
<asrwt>0</asrwt>
<pdfrwt beam="2">  1        1 0.10466065E+00 0.12677225E+03</pdfrwt>
<pdfrwt beam="1">  1       -1 0.31872323E-02 0.12677225E+03</pdfrwt>
<totfact> 0.96663242E+03</totfact>
</mgrwt>
</event>
<event>
 6    1  0.1190675E-005  0.1256514E+03  0.7546771E-02  0.1261462E+00
         -2   -1    0    0    0  501 -0.00000000000E+00  0.00000000000E+00  0.58616556566E+02  0.58616556566E+02  0.00000000000E+00 0. -1.
          2   -1    0    0  501    0  0.00000000000E+00 -0.00000000000E+00 -0.16783770672E+03  0.16783770672E+03  0.00000000000E+00 0.  1.
          5    1    1    2  502    0  0.20534770472E+02 -0.13066418917E+02 -0.10222159318E+03  0.10518437248E+03  0.47000000000E+01 0. -1.
         -5    1    1    2    0  502 -0.28885507171E+02  0.33275765931E+01  0.28093375075E+02  0.40703476677E+02  0.47000000000E+01 0. -1.
        -11    1    1    2    0    0 -0.65687730187E+01 -0.19051287831E+02  0.11951445941E+02  0.23429413289E+02  0.00000000000E+00 0. -1.
         11    1    1    2    0    0  0.14919509718E+02  0.28790130155E+02 -0.47044377987E+02  0.57137000838E+02  0.00000000000E+00 0.  1.
<mgrwt>
<rscale>  0 0.10951985E+03</rscale>
<asrwt>0</asrwt>
<pdfrwt beam="2">  1        2 0.25821185E-01 0.12565139E+03</pdfrwt>
<pdfrwt beam="1">  1       -2 0.90179319E-02 0.12565139E+03</pdfrwt>
<totfact> 0.15059728E+04</totfact>
</mgrwt>
</event>
<event>
 6    1  0.1190675E-005  0.1286243E+03  0.7546771E-02  0.1236729E+00
         -4   -1    0    0    0  501 -0.00000000000E+00  0.00000000000E+00  0.17825546414E+03  0.17825546414E+03  0.00000000000E+00 0.  1.
          4   -1    0    0  501    0  0.00000000000E+00 -0.00000000000E+00 -0.81202409570E+02  0.81202409570E+02  0.00000000000E+00 0. -1.
          5    1    1    2  502    0  0.19683607668E+00  0.75255391913E+02  0.40347450580E+02  0.85518533224E+02  0.47000000000E+01 0. -1.
         -5    1    1    2    0  502 -0.17096120863E+02 -0.50092801812E+02  0.24082775958E+02  0.58340691115E+02  0.47000000000E+01 0. -1.
        -11    1    1    2    0    0 -0.44854612070E+02 -0.19139494386E+02  0.16614564799E+02  0.51519901327E+02  0.00000000000E+00 0.  1.
         11    1    1    2    0    0  0.61753896856E+02 -0.60230957155E+01  0.16008263231E+02  0.64078748042E+02  0.00000000000E+00 0. -1.
<mgrwt>
<rscale>  0 0.12394392E+03</rscale>
<asrwt>0</asrwt>
<pdfrwt beam="2">  1        4 0.12492678E-01 0.12862435E+03</pdfrwt>
<pdfrwt beam="1">  1       -4 0.27423917E-01 0.12862435E+03</pdfrwt>
<totfact> 0.10656938E+03</totfact>
</mgrwt>
</event>
<event>
 6    1  0.1190675E-005  0.2425159E+03  0.7546771E-02  0.1118128E+00
          1   -1    0    0  501    0  0.00000000000E+00  0.00000000000E+00  0.55682522502E+02  0.55682522502E+02  0.00000000000E+00 0. -1.
         -1   -1    0    0    0  501 -0.00000000000E+00 -0.00000000000E+00 -0.26405926170E+03  0.26405926170E+03  0.00000000000E+00 0.  1.
          5    1    1    2  502    0  0.31414511853E+02  0.87559761051E+02 -0.83474689554E+02  0.12507476607E+03  0.47000000000E+01 0.  1.
         -5    1    1    2    0  502 -0.20155313340E+01 -0.42150885112E+02 -0.27168481105E+02  0.50408093079E+02  0.47000000000E+01 0.  1.
        -11    1    1    2    0    0 -0.53019381334E+02  0.69886238995E-01 -0.63045545448E+02  0.82375970295E+02  0.00000000000E+00 0.  1.
         11    1    1    2    0    0  0.23620400816E+02 -0.45478762178E+02 -0.34688023086E+02  0.61882954758E+02  0.00000000000E+00 0. -1.
<mgrwt>
<rscale>  0 0.24251586E+03</rscale>
<asrwt>0</asrwt>
<pdfrwt beam="1">  1        1 0.85665420E-02 0.24251586E+03</pdfrwt>
<pdfrwt beam="2">  1       -1 0.40624501E-01 0.24251586E+03</pdfrwt>
<totfact> 0.46993523E+03</totfact>
</mgrwt>
</event>
<event>
 6    1  0.1190675E-005  0.1967420E+03  0.7546771E-02  0.1156976E+00
         -2   -1    0    0    0  501 -0.00000000000E+00  0.00000000000E+00  0.10541580241E+03  0.10541580241E+03  0.00000000000E+00 0.  1.
          2   -1    0    0  501    0  0.00000000000E+00 -0.00000000000E+00 -0.34603012091E+03  0.34603012091E+03  0.00000000000E+00 0. -1.
          5    1    1    2  502    0 -0.48972484253E+02 -0.44012873231E+02 -0.10865772959E+03  0.12713783632E+03  0.47000000000E+01 0.  1.
         -5    1    1    2    0  502 -0.10216256249E+03  0.59630640498E+02 -0.63759798834E+02  0.13446339431E+03  0.47000000000E+01 0.  1.
        -11    1    1    2    0    0  0.12908087296E+03 -0.11096673618E+02 -0.90593165388E+02  0.15808899248E+03  0.00000000000E+00 0. -1.
         11    1    1    2    0    0  0.22054173783E+02 -0.45210936485E+01  0.22396375312E+02  0.31755700215E+02  0.00000000000E+00 0.  1.
<mgrwt>
<rscale>  0 0.19165582E+03</rscale>
<asrwt>0</asrwt>
<pdfrwt beam="2">  1        2 0.53235404E-01 0.19674196E+03</pdfrwt>
<pdfrwt beam="1">  1       -2 0.16217815E-01 0.19674196E+03</pdfrwt>
<totfact> 0.27708537E+03</totfact>
</mgrwt>
</event>
<event>
 6    1  0.1190675E-005  0.2427723E+03  0.7546771E-02  0.1120485E+00
         -2   -1    0    0    0  501 -0.00000000000E+00  0.00000000000E+00  0.40801270900E+03  0.40801270900E+03  0.00000000000E+00 0.  1.
          2   -1    0    0  501    0  0.00000000000E+00 -0.00000000000E+00 -0.17529619754E+03  0.17529619754E+03  0.00000000000E+00 0. -1.
          5    1    1    2  502    0 -0.17396165942E+03  0.49435430650E+02 -0.63013122408E+02  0.19157052056E+03  0.47000000000E+01 0. -1.
         -5    1    1    2    0  502 -0.24746621210E+02  0.12441260108E+02  0.43718707273E+02  0.51967254882E+02  0.47000000000E+01 0. -1.
        -11    1    1    2    0    0  0.87808276295E+02 -0.70499287025E+02  0.94865285997E+02  0.14724084129E+03  0.00000000000E+00 0.  1.
         11    1    1    2    0    0  0.11090000434E+03  0.86225962673E+01  0.15714564060E+03  0.19253028979E+03  0.00000000000E+00 0. -1.
<mgrwt>
<rscale>  0 0.23896359E+03</rscale>
<asrwt>0</asrwt>
<pdfrwt beam="2">  1        2 0.26968646E-01 0.24277227E+03</pdfrwt>
<pdfrwt beam="1">  1       -2 0.62771186E-01 0.24277227E+03</pdfrwt>
<totfact> 0.47643373E+02</totfact>
</mgrwt>
</event>
<event>
 6    1  0.1190675E-005  0.1501680E+03  0.7546771E-02  0.1209535E+00
         -1   -1    0    0    0  501 -0.00000000000E+00  0.00000000000E+00  0.40472694562E+03  0.40472694562E+03  0.00000000000E+00 0.  1.
          1   -1    0    0  501    0  0.00000000000E+00 -0.00000000000E+00 -0.47616060942E+02  0.47616060942E+02  0.00000000000E+00 0. -1.
          5    1    1    2  502    0  0.18254362282E+02  0.74073820864E+02  0.16842559349E+03  0.18495789581E+03  0.47000000000E+01 0. -1.
         -5    1    1    2    0  502 -0.26578108235E+02  0.87260669537E+01 -0.12963287376E+02  0.31187768459E+02  0.47000000000E+01 0. -1.
        -11    1    1    2    0    0  0.44422104795E+02 -0.16395091395E+02  0.81241088138E+02  0.94033168713E+02  0.00000000000E+00 0. -1.
         11    1    1    2    0    0 -0.36098358842E+02 -0.66404796423E+02  0.12040749043E+03  0.14216417359E+03  0.00000000000E+00 0.  1.
<mgrwt>
<rscale>  0 0.14285723E+03</rscale>
<asrwt>0</asrwt>
<pdfrwt beam="2">  1        1 0.73255481E-02 0.15016797E+03</pdfrwt>
<pdfrwt beam="1">  1       -1 0.62265682E-01 0.15016797E+03</pdfrwt>
<totfact> 0.25782173E+03</totfact>
</mgrwt>
</event>
<event>
 6    1  0.1190675E-005  0.1288851E+03  0.7546771E-02  0.1244385E+00
          2   -1    0    0  501    0  0.00000000000E+00  0.00000000000E+00  0.12760965033E+03  0.12760965033E+03  0.00000000000E+00 0. -1.
         -2   -1    0    0    0  501 -0.00000000000E+00 -0.00000000000E+00 -0.10432019505E+03  0.10432019505E+03  0.00000000000E+00 0.  1.
          5    1    1    2  502    0 -0.45326509240E+02  0.17754342607E+02  0.75708209317E+02  0.90130638959E+02  0.47000000000E+01 0.  1.
         -5    1    1    2    0  502  0.29198779878E+02  0.91735109923E+01 -0.33376698775E+02  0.45528189854E+02  0.47000000000E+01 0.  1.
        -11    1    1    2    0    0  0.51495673651E+02 -0.27472843952E+02 -0.64352505229E+01  0.58719451708E+02  0.00000000000E+00 0. -1.
         11    1    1    2    0    0 -0.35367944289E+02  0.54499035291E+00 -0.12606804743E+02  0.37551564862E+02  0.00000000000E+00 0.  1.
<mgrwt>
<rscale>  0 0.11922279E+03</rscale>
<asrwt>0</asrwt>
<pdfrwt beam="1">  1        2 0.19632254E-01 0.12888507E+03</pdfrwt>
<pdfrwt beam="2">  1       -2 0.16049261E-01 0.12888507E+03</pdfrwt>
<totfact> 0.81586714E+03</totfact>
</mgrwt>
</event>
<event>
 6    1  0.1190675E-005  0.1633173E+03  0.7546771E-02  0.1192298E+00
          2   -1    0    0  501    0  0.00000000000E+00  0.00000000000E+00  0.10775791614E+03  0.10775791614E+03  0.00000000000E+00 0. -1.
         -2   -1    0    0    0  501 -0.00000000000E+00 -0.00000000000E+00 -0.29436555221E+03  0.29436555221E+03  0.00000000000E+00 0.  1.
          5    1    1    2  502    0  0.31341875612E+01 -0.28181950581E+02  0.11213257291E+02  0.30852432794E+02  0.47000000000E+01 0. -1.
         -5    1    1    2    0  502  0.16154268394E+02  0.13150628462E+03 -0.38066335650E+01  0.13263274008E+03  0.47000000000E+01 0. -1.
        -11    1    1    2    0    0 -0.30494775340E+02 -0.17360076320E+01 -0.19014054894E+02  0.35978873371E+02  0.00000000000E+00 0. -1.
         11    1    1    2    0    0  0.11206319385E+02 -0.10158832640E+03 -0.17500020490E+03  0.20265942212E+03  0.00000000000E+00 0.  1.
<mgrwt>
<rscale>  0 0.15685114E+03</rscale>
<asrwt>0</asrwt>
<pdfrwt beam="1">  1        2 0.16578141E-01 0.16331731E+03</pdfrwt>
<pdfrwt beam="2">  1       -2 0.45287007E-01 0.16331731E+03</pdfrwt>
<totfact> 0.15875347E+03</totfact>
</mgrwt>
</event>
<event>
 6    1  0.1190675E-005  0.1255115E+03  0.7546771E-02  0.1250098E+00
          1   -1    0    0  501    0  0.00000000000E+00  0.00000000000E+00  0.16196735444E+03  0.16196735444E+03  0.00000000000E+00 0. -1.
         -1   -1    0    0    0  501 -0.00000000000E+00 -0.00000000000E+00 -0.13094913194E+03  0.13094913194E+03  0.00000000000E+00 0.  1.
          5    1    1    2  502    0  0.18660854192E+02  0.45636116086E+02  0.11167039507E+03  0.12216075354E+03  0.47000000000E+01 0. -1.
         -5    1    1    2    0  502 -0.27356520464E+02 -0.38415163864E+02  0.24200272889E+01  0.47455774767E+02  0.47000000000E+01 0. -1.
        -11    1    1    2    0    0  0.23976874435E+02  0.10322097327E+02  0.95531399102E+01  0.27797458212E+02  0.00000000000E+00 0. -1.
         11    1    1    2    0    0 -0.15281208163E+02 -0.17543049548E+02 -0.92625339778E+02  0.95502499859E+02  0.00000000000E+00 0.  1.
<mgrwt>
<rscale>  0 0.11585367E+03</rscale>
<asrwt>0</asrwt>
<pdfrwt beam="1">  1        1 0.24918054E-01 0.12551152E+03</pdfrwt>
<pdfrwt beam="2">  1       -1 0.20146020E-01 0.12551152E+03</pdfrwt>
<totfact> 0.36672361E+03</totfact>
</mgrwt>
</event>
<event>
 6    1  0.1190675E-005  0.2967354E+03  0.7546771E-02  0.1126216E+00
          2   -1    0    0  501    0  0.00000000000E+00  0.00000000000E+00  0.16523625604E+04  0.16523625604E+04  0.00000000000E+00 0. -1.
         -2   -1    0    0    0  501 -0.00000000000E+00 -0.00000000000E+00 -0.25279188661E+02  0.25279188661E+02  0.00000000000E+00 0.  1.
          5    1    1    2  502    0 -0.14211426512E+03  0.70179286548E+02  0.77691089822E+03  0.79292763251E+03  0.47000000000E+01 0. -1.
         -5    1    1    2    0  502  0.10294638330E+03 -0.88294997761E+02  0.50942966770E+03  0.52719506901E+03  0.47000000000E+01 0.  1.
        -11    1    1    2    0    0  0.72658334639E+02  0.79797882534E+01  0.22157490673E+03  0.23332027324E+03  0.00000000000E+00 0.  1.
         11    1    1    2    0    0 -0.33490452820E+02  0.10135922960E+02  0.11916789909E+03  0.12419877430E+03  0.00000000000E+00 0. -1.
<mgrwt>
<rscale>  0 0.23060363E+03</rscale>
<asrwt>0</asrwt>
<pdfrwt beam="1">  1        2 0.25420954E+00 0.29673540E+03</pdfrwt>
<pdfrwt beam="2">  1       -2 0.38891072E-02 0.29673540E+03</pdfrwt>
<totfact> 0.32448114E+03</totfact>
</mgrwt>
</event>
<event>
 6    1  0.1190675E-005  0.1517737E+03  0.7546771E-02  0.1215178E+00
         -2   -1    0    0    0  501 -0.00000000000E+00  0.00000000000E+00  0.19223095750E+02  0.19223095750E+02  0.00000000000E+00 0.  1.
          2   -1    0    0  501    0  0.00000000000E+00 -0.00000000000E+00 -0.96195895954E+03  0.96195895954E+03  0.00000000000E+00 0. -1.
          5    1    1    2  502    0 -0.42911519283E+02 -0.40343738268E+02 -0.42976164388E+03  0.43380430640E+03  0.47000000000E+01 0. -1.
         -5    1    1    2    0  502  0.10897166561E+02  0.81539693490E+02 -0.27322061340E+03  0.28537530279E+03  0.47000000000E+01 0.  1.
        -11    1    1    2    0    0  0.48380385968E+02  0.97202306975E+01 -0.14539650778E+03  0.15354246678E+03  0.00000000000E+00 0.  1.
         11    1    1    2    0    0 -0.16366033247E+02 -0.50916185920E+02 -0.94357098734E+02  0.10845997932E+03  0.00000000000E+00 0. -1.
<mgrwt>
<rscale>  0 0.13863484E+03</rscale>
<asrwt>0</asrwt>
<pdfrwt beam="2">  1        2 0.14799362E+00 0.15177370E+03</pdfrwt>
<pdfrwt beam="1">  1       -2 0.29574007E-02 0.15177370E+03</pdfrwt>
<totfact> 0.11609245E+04</totfact>
</mgrwt>
</event>
<event>
 6    1  0.1190675E-005  0.2529180E+03  0.7546771E-02  0.1113684E+00
          1   -1    0    0  501    0  0.00000000000E+00  0.00000000000E+00  0.66058801966E+03  0.66058801966E+03  0.00000000000E+00 0. -1.
         -1   -1    0    0    0  501 -0.00000000000E+00 -0.00000000000E+00 -0.15841340940E+03  0.15841340940E+03  0.00000000000E+00 0.  1.
          5    1    1    2  502    0  0.47046248575E+02  0.35232994007E+02  0.29905404224E+03  0.30481161978E+03  0.47000000000E+01 0. -1.
         -5    1    1    2    0  502  0.13451478574E+03  0.88775473462E+02  0.22192210883E+03  0.27431154671E+03  0.47000000000E+01 0. -1.
        -11    1    1    2    0    0 -0.28746441478E+02 -0.42056085170E+02 -0.40558764646E+02  0.65115939578E+02  0.00000000000E+00 0.  1.
         11    1    1    2    0    0 -0.15281459284E+03 -0.81952382299E+02  0.21757223831E+02  0.17476232299E+03  0.00000000000E+00 0. -1.
<mgrwt>
<rscale>  0 0.24940086E+03</rscale>
<asrwt>0</asrwt>
<pdfrwt beam="1">  1        1 0.10162892E+00 0.25291796E+03</pdfrwt>
<pdfrwt beam="2">  1       -1 0.24371294E-01 0.25291796E+03</pdfrwt>
<totfact> 0.44906138E+02</totfact>
</mgrwt>
</event>
<event>
 6    1  0.1190675E-005  0.1587053E+03  0.7546771E-02  0.1197459E+00
          1   -1    0    0  501    0  0.00000000000E+00  0.00000000000E+00  0.55044803408E+03  0.55044803408E+03  0.00000000000E+00 0. -1.
         -1   -1    0    0    0  501 -0.00000000000E+00 -0.00000000000E+00 -0.40811175572E+02  0.40811175572E+02  0.00000000000E+00 0.  1.
          5    1    1    2  502    0  0.58517274700E+02 -0.29645771113E+02  0.32894683970E+03  0.33545678787E+03  0.47000000000E+01 0.  1.
         -5    1    1    2    0  502  0.29491780390E+02 -0.12973828771E+02  0.32730259111E+01  0.32724425773E+02  0.47000000000E+01 0.  1.
        -11    1    1    2    0    0 -0.33081910247E+02 -0.29352923572E+02  0.67118729590E+02  0.80379915212E+02  0.00000000000E+00 0. -1.
         11    1    1    2    0    0 -0.54927144844E+02  0.71972523457E+02  0.11029826332E+03  0.14269808080E+03  0.00000000000E+00 0.  1.
<mgrwt>
<rscale>  0 0.15247946E+03</rscale>
<asrwt>0</asrwt>
<pdfrwt beam="1">  1        1 0.84684308E-01 0.15870528E+03</pdfrwt>
<pdfrwt beam="2">  1       -1 0.62786428E-02 0.15870528E+03</pdfrwt>
<totfact> 0.48132239E+03</totfact>
</mgrwt>
</event>
<event>
 6    1  0.1190675E-005  0.2341619E+03  0.7546771E-02  0.1126918E+00
         -1   -1    0    0    0  501 -0.00000000000E+00  0.00000000000E+00  0.94464587384E+02  0.94464587384E+02  0.00000000000E+00 0.  1.
          1   -1    0    0  501    0  0.00000000000E+00 -0.00000000000E+00 -0.63227163453E+03  0.63227163453E+03  0.00000000000E+00 0. -1.
          5    1    1    2  502    0  0.17283700103E+02  0.10030167224E+03 -0.98759393215E+02  0.14189665074E+03  0.47000000000E+01 0.  1.
         -5    1    1    2    0  502  0.81867389263E+02  0.71086645415E+02 -0.31978413039E+03  0.33769743948E+03  0.47000000000E+01 0.  1.
        -11    1    1    2    0    0 -0.50288867179E+02 -0.13845041852E+03 -0.48552724125E+02  0.15509627839E+03  0.00000000000E+00 0.  1.
         11    1    1    2    0    0 -0.48862222188E+02 -0.32937899134E+02 -0.70710799417E+02  0.92045853305E+02  0.00000000000E+00 0. -1.
<mgrwt>
<rscale>  0 0.22960547E+03</rscale>
<asrwt>0</asrwt>
<pdfrwt beam="2">  1        1 0.97272560E-01 0.23416193E+03</pdfrwt>
<pdfrwt beam="1">  1       -1 0.14533013E-01 0.23416193E+03</pdfrwt>
<totfact> 0.11053579E+03</totfact>
</mgrwt>
</event>
<event>
 6    1  0.1190675E-005  0.1330800E+03  0.7546771E-02  0.1235242E+00
         -3   -1    0    0    0  501 -0.00000000000E+00  0.00000000000E+00  0.35489891676E+03  0.35489891676E+03  0.00000000000E+00 0.  1.
          3   -1    0    0  501    0  0.00000000000E+00 -0.00000000000E+00 -0.39849297152E+02  0.39849297152E+02  0.00000000000E+00 0. -1.
          5    1    1    2  502    0 -0.92221837580E+01  0.38555643836E+02  0.61609506134E-01  0.39920923594E+02  0.47000000000E+01 0. -1.
         -5    1    1    2    0  502 -0.12655298637E+02  0.15245475512E+01  0.19939050114E+03  0.19985280277E+03  0.47000000000E+01 0. -1.
        -11    1    1    2    0    0  0.14047935590E+02 -0.62078908149E+02  0.38427831895E+02  0.74349402119E+02  0.00000000000E+00 0. -1.
         11    1    1    2    0    0  0.78295468044E+01  0.21998716763E+02  0.77169677061E+02  0.80625085427E+02  0.00000000000E+00 0.  1.
<mgrwt>
<rscale>  0 0.12488933E+03</rscale>
<asrwt>0</asrwt>
<pdfrwt beam="2">  1        3 0.61306613E-02 0.13308003E+03</pdfrwt>
<pdfrwt beam="1">  1       -3 0.54599831E-01 0.13308003E+03</pdfrwt>
<totfact> 0.12612399E+03</totfact>
</mgrwt>
</event>
<event>
 6    1  0.1190675E-005  0.1339741E+03  0.7546771E-02  0.1234873E+00
          1   -1    0    0  501    0  0.00000000000E+00  0.00000000000E+00  0.15593081341E+03  0.15593081341E+03  0.00000000000E+00 0. -1.
         -1   -1    0    0    0  501 -0.00000000000E+00 -0.00000000000E+00 -0.15607990342E+03  0.15607990342E+03  0.00000000000E+00 0.  1.
          5    1    1    2  502    0  0.72003570633E+01 -0.29731972477E+02 -0.20581220684E+02  0.37168696158E+02  0.47000000000E+01 0.  1.
         -5    1    1    2    0  502  0.40639629192E+02  0.23714586405E+02  0.12206061890E+03  0.13090013657E+03  0.47000000000E+01 0.  1.
        -11    1    1    2    0    0 -0.17392118470E+02 -0.36910895004E+02 -0.16828354996E+02  0.44137212041E+02  0.00000000000E+00 0. -1.
         11    1    1    2    0    0 -0.30447867785E+02  0.42928281076E+02 -0.84800133232E+02  0.99804672060E+02  0.00000000000E+00 0.  1.
<mgrwt>
<rscale>  0 0.12512596E+03</rscale>
<asrwt>0</asrwt>
<pdfrwt beam="1">  1        1 0.23989356E-01 0.13397412E+03</pdfrwt>
<pdfrwt beam="2">  1       -1 0.24012293E-01 0.13397412E+03</pdfrwt>
<totfact> 0.29046998E+03</totfact>
</mgrwt>
</event>
<event>
 6    1  0.1190675E-005  0.1375420E+03  0.7546771E-02  0.1228011E+00
          1   -1    0    0  501    0  0.00000000000E+00  0.00000000000E+00  0.17140668478E+04  0.17140668478E+04  0.00000000000E+00 0. -1.
         -1   -1    0    0    0  501 -0.00000000000E+00 -0.00000000000E+00 -0.11084664013E+02  0.11084664013E+02  0.00000000000E+00 0.  1.
          5    1    1    2  502    0 -0.15302782712E+02 -0.27317644028E+02  0.72398612221E+02  0.79019477887E+02  0.47000000000E+01 0. -1.
         -5    1    1    2    0  502 -0.36141351122E+02  0.18822519016E+01  0.12459862140E+04  0.12465205476E+04  0.47000000000E+01 0. -1.
        -11    1    1    2    0    0  0.13862855934E+02 -0.27721773075E+02  0.50673567582E+02  0.59401059995E+02  0.00000000000E+00 0.  1.
         11    1    1    2    0    0  0.37581277899E+02  0.53157165201E+02  0.33392378997E+03  0.34021042631E+03  0.00000000000E+00 0. -1.
<mgrwt>
<rscale>  0 0.12962628E+03</rscale>
<asrwt>0</asrwt>
<pdfrwt beam="1">  1        1 0.26370238E+00 0.13754203E+03</pdfrwt>
<pdfrwt beam="2">  1       -1 0.17053343E-02 0.13754203E+03</pdfrwt>
<totfact> 0.44267957E+03</totfact>
</mgrwt>
</event>
<event>
 6    1  0.1190675E-005  0.1307517E+03  0.7546771E-02  0.1237901E+00
         -1   -1    0    0    0  501 -0.00000000000E+00  0.00000000000E+00  0.37233557494E+02  0.37233557494E+02  0.00000000000E+00 0.  1.
          1   -1    0    0  501    0  0.00000000000E+00 -0.00000000000E+00 -0.37306610864E+03  0.37306610864E+03  0.00000000000E+00 0. -1.
          5    1    1    2  502    0  0.21727217739E+02 -0.11334719263E+02 -0.20298351322E+03  0.20451147765E+03  0.47000000000E+01 0. -1.
         -5    1    1    2    0  502 -0.37207001178E+02 -0.23802851766E+02 -0.10199890133E+02  0.45574822518E+02  0.47000000000E+01 0. -1.
        -11    1    1    2    0    0  0.20336988763E+02 -0.16240438714E+02 -0.10091389154E+03  0.10421592233E+03  0.00000000000E+00 0. -1.
         11    1    1    2    0    0 -0.48572053240E+01  0.51378009742E+02 -0.21735256245E+02  0.55997443626E+02  0.00000000000E+00 0.  1.
<mgrwt>
<rscale>  0 0.12320522E+03</rscale>
<asrwt>0</asrwt>
<pdfrwt beam="2">  1        1 0.57394786E-01 0.13075165E+03</pdfrwt>
<pdfrwt beam="1">  1       -1 0.57282396E-02 0.13075165E+03</pdfrwt>
<totfact> 0.90045512E+03</totfact>
</mgrwt>
</event>
<event>
 6    1  0.1190675E-005  0.1302653E+03  0.7546771E-02  0.1240479E+00
         -1   -1    0    0    0  501 -0.00000000000E+00  0.00000000000E+00  0.32050927754E+02  0.32050927754E+02  0.00000000000E+00 0.  1.
          1   -1    0    0  501    0  0.00000000000E+00 -0.00000000000E+00 -0.47892596739E+03  0.47892596739E+03  0.00000000000E+00 0. -1.
          5    1    1    2  502    0  0.10394269360E+02 -0.46947354647E+02 -0.27738890846E+03  0.28156489746E+03  0.47000000000E+01 0. -1.
         -5    1    1    2    0  502  0.26237751536E+02  0.48476035356E+02 -0.68555679558E+02  0.88092660359E+02  0.47000000000E+01 0. -1.
        -11    1    1    2    0    0 -0.11487040053E+02  0.44697016972E+02 -0.50964646546E+02  0.68754422497E+02  0.00000000000E+00 0.  1.
         11    1    1    2    0    0 -0.25144980843E+02 -0.46225697681E+02 -0.49965805067E+02  0.72564914826E+02  0.00000000000E+00 0. -1.
<mgrwt>
<rscale>  0 0.12160103E+03</rscale>
<asrwt>0</asrwt>
<pdfrwt beam="2">  1        1 0.73680906E-01 0.13026531E+03</pdfrwt>
<pdfrwt beam="1">  1       -1 0.49309128E-02 0.13026531E+03</pdfrwt>
<totfact> 0.81872407E+03</totfact>
</mgrwt>
</event>
<event>
 6    1  0.1190675E-005  0.1276415E+03  0.7546771E-02  0.1245290E+00
          1   -1    0    0  501    0  0.00000000000E+00  0.00000000000E+00  0.10264839478E+03  0.10264839478E+03  0.00000000000E+00 0. -1.
         -1   -1    0    0    0  501 -0.00000000000E+00 -0.00000000000E+00 -0.12576546841E+03  0.12576546841E+03  0.00000000000E+00 0.  1.
          5    1    1    2  502    0  0.11554804868E+02 -0.65292465635E+02  0.38369010897E+02  0.76752137309E+02  0.47000000000E+01 0. -1.
         -5    1    1    2    0  502 -0.12002638847E+02  0.39475246814E+02 -0.29898629184E+02  0.51170074042E+02  0.47000000000E+01 0. -1.
        -11    1    1    2    0    0  0.23575392590E+02 -0.25581331723E+01 -0.53013518215E+02  0.58075608431E+02  0.00000000000E+00 0.  1.
         11    1    1    2    0    0 -0.23127558610E+02  0.28375351993E+02  0.21426062870E+02  0.42416043405E+02  0.00000000000E+00 0. -1.
<mgrwt>
<rscale>  0 0.11868035E+03</rscale>
<asrwt>0</asrwt>
<pdfrwt beam="1">  1        1 0.15792061E-01 0.12764147E+03</pdfrwt>
<pdfrwt beam="2">  1       -1 0.19348534E-01 0.12764147E+03</pdfrwt>
<totfact> 0.69880190E+03</totfact>
</mgrwt>
</event>
<event>
 6    1  0.1190675E-005  0.2678226E+03  0.7546771E-02  0.1102532E+00
          1   -1    0    0  501    0  0.00000000000E+00  0.00000000000E+00  0.47099344293E+02  0.47099344293E+02  0.00000000000E+00 0. -1.
         -1   -1    0    0    0  501 -0.00000000000E+00 -0.00000000000E+00 -0.38073204788E+03  0.38073204788E+03  0.00000000000E+00 0.  1.
          5    1    1    2  502    0 -0.65042691546E+02  0.29141229904E+02 -0.52559730850E+01  0.71620375990E+02  0.47000000000E+01 0. -1.
         -5    1    1    2    0  502  0.13827348571E+02  0.95418503962E+01 -0.10650849484E+03  0.10792771632E+03  0.47000000000E+01 0. -1.
        -11    1    1    2    0    0  0.19475374681E+02  0.26189410547E+02 -0.11315171723E+03  0.11776453862E+03  0.00000000000E+00 0. -1.
         11    1    1    2    0    0  0.31739968294E+02 -0.64872490847E+02 -0.10871651843E+03  0.13051876124E+03  0.00000000000E+00 0.  1.
<mgrwt>
<rscale>  0 0.26782255E+03</rscale>
<asrwt>0</asrwt>
<pdfrwt beam="1">  1        1 0.72460526E-02 0.26782255E+03</pdfrwt>
<pdfrwt beam="2">  1       -1 0.58574164E-01 0.26782255E+03</pdfrwt>
<totfact> 0.30191311E+03</totfact>
</mgrwt>
</event>
<event>
 6    1  0.1190675E-005  0.1251849E+03  0.7546771E-02  0.1244427E+00
          1   -1    0    0  501    0  0.00000000000E+00  0.00000000000E+00  0.44478188185E+03  0.44478188185E+03  0.00000000000E+00 0. -1.
         -1   -1    0    0    0  501 -0.00000000000E+00 -0.00000000000E+00 -0.29954445182E+02  0.29954445182E+02  0.00000000000E+00 0.  1.
          5    1    1    2  502    0  0.14415270267E+02  0.43442125813E+02  0.36272179209E+02  0.58589924872E+02  0.47000000000E+01 0. -1.
         -5    1    1    2    0  502 -0.19361567551E+02 -0.48134434308E+02  0.22739675267E+03  0.23328773476E+03  0.47000000000E+01 0. -1.
        -11    1    1    2    0    0 -0.29577375188E+02 -0.35911318217E+02  0.48600599898E+02  0.67278987875E+02  0.00000000000E+00 0.  1.
         11    1    1    2    0    0  0.34523672471E+02  0.40603626713E+02  0.10255790488E+03  0.11557967952E+03  0.00000000000E+00 0. -1.
<mgrwt>
<rscale>  0 0.11919767E+03</rscale>
<asrwt>0</asrwt>
<pdfrwt beam="1">  1        1 0.68427977E-01 0.12518491E+03</pdfrwt>
<pdfrwt beam="2">  1       -1 0.46083765E-02 0.12518491E+03</pdfrwt>
<totfact> 0.99183769E+03</totfact>
</mgrwt>
</event>
<event>
 6    1  0.1190675E-005  0.1306157E+03  0.7546771E-02  0.1240880E+00
          2   -1    0    0  501    0  0.00000000000E+00  0.00000000000E+00  0.10454083157E+04  0.10454083157E+04  0.00000000000E+00 0. -1.
         -2   -1    0    0    0  501 -0.00000000000E+00 -0.00000000000E+00 -0.13277609136E+02  0.13277609136E+02  0.00000000000E+00 0.  1.
          5    1    1    2  502    0 -0.99258798549E+01  0.36117602873E+02  0.79829357460E+02  0.88305269609E+02  0.47000000000E+01 0. -1.
         -5    1    1    2    0  502  0.46838938871E+02 -0.44694079400E+02  0.63954944430E+03  0.64283514888E+03  0.47000000000E+01 0. -1.
        -11    1    1    2    0    0 -0.17914392302E+02 -0.38110560795E+02  0.19437331683E+03  0.19888269556E+03  0.00000000000E+00 0. -1.
         11    1    1    2    0    0 -0.18998666714E+02  0.46687037322E+02  0.11837858797E+03  0.12866281079E+03  0.00000000000E+00 0.  1.
<mgrwt>
<rscale>  0 0.12135381E+03</rscale>
<asrwt>0</asrwt>
<pdfrwt beam="1">  1        2 0.16083198E+00 0.13061566E+03</pdfrwt>
<pdfrwt beam="2">  1       -2 0.20427099E-02 0.13061566E+03</pdfrwt>
<totfact> 0.17609285E+04</totfact>
</mgrwt>
</event>
