<event>
 8    1  0.1154424E-005  0.1274245E+03  0.7546771E-02  0.1246342E+00
          1   -1    0    0  501    0  0.00000000000E+00  0.00000000000E+00  0.10167728357E+03  0.10167728357E+03  0.00000000000E+00 0. -1.
         -1   -1    0    0    0  501 -0.00000000000E+00 -0.00000000000E+00 -0.17710508044E+03  0.17710508044E+03  0.00000000000E+00 0.  1.
         23    2    1    2    0    0  0.16852574767E+02 -0.18094495107E+02 -0.11984284246E+03  0.17492660180E+03  0.12500235637E+03 0.  0.
         23    2    1    2    0    0 -0.16852574767E+02  0.18094495107E+02  0.44415045586E+02  0.10385576221E+03  0.90564358555E+02 0.  0.
          5    1    3    3  502    0  0.19109770896E+02 -0.68477501581E+02 -0.44050757100E+02  0.83767002856E+02  0.47000000000E+01 0. -1.
         -5    1    3    3    0  502 -0.22571961286E+01  0.50383006473E+02 -0.75792085364E+02  0.91159598943E+02  0.47000000000E+01 0. -1.
        -11    1    4    4    0    0  0.10660248290E+02 -0.33616832357E+02  0.15268218022E+02  0.38429816456E+02  0.00000000000E+00 0. -1.
         11    1    4    4    0    0 -0.27512823058E+02  0.51711327464E+02  0.29146827564E+02  0.65425945754E+02  0.00000000000E+00 0.  1.
<mgrwt>
<rscale>  0 0.11805441E+03</rscale>
<asrwt>0</asrwt>
<pdfrwt beam="1">  1        1 0.15642659E-01 0.12742452E+03</pdfrwt>
<pdfrwt beam="2">  1       -1 0.27246935E-01 0.12742452E+03</pdfrwt>
<totfact> 0.40542946E+03</totfact>
</mgrwt>
</event>
<event>
 8    1  0.1154424E-005  0.1253345E+03  0.7546771E-02  0.1248842E+00
         -2   -1    0    0    0  501 -0.00000000000E+00  0.00000000000E+00  0.13773334272E+02  0.13773334272E+02  0.00000000000E+00 0.  1.
          2   -1    0    0  501    0  0.00000000000E+00 -0.00000000000E+00 -0.87283346795E+03  0.87283346795E+03  0.00000000000E+00 0. -1.
         23    2    1    2    0    0 -0.89741928237E+01 -0.20361854868E+01 -0.50597258201E+03  0.52126479915E+03  0.12499621954E+03 0.  0.
         23    2    1    2    0    0  0.89741928237E+01  0.20361854868E+01 -0.35308755167E+03  0.36534200307E+03  0.93377073618E+02 0.  0.
          5    1    3    3  502    0  0.50957974474E+02  0.24356583027E+02 -0.17871213899E+03  0.18748353774E+03  0.47000000000E+01 0. -1.
         -5    1    3    3    0  502 -0.59932167298E+02 -0.26392768514E+02 -0.32726044301E+03  0.33378126141E+03  0.47000000000E+01 0. -1.
        -11    1    4    4    0    0 -0.22908607126E+02 -0.35628696158E+02 -0.12515073787E+03  0.13212462095E+03  0.00000000000E+00 0.  1.
         11    1    4    4    0    0  0.31882799950E+02  0.37664881645E+02 -0.22793681380E+03  0.23321738213E+03  0.00000000000E+00 0. -1.
<mgrwt>
<rscale>  0 0.11658367E+03</rscale>
<asrwt>0</asrwt>
<pdfrwt beam="2">  1        2 0.13428210E+00 0.12533450E+03</pdfrwt>
<pdfrwt beam="1">  1       -2 0.21189740E-02 0.12533450E+03</pdfrwt>
<totfact> 0.21205049E+04</totfact>
</mgrwt>
</event>
<event>
 8    1  0.1154424E-005  0.1369884E+03  0.7546771E-02  0.1228854E+00
         -1   -1    0    0    0  501 -0.00000000000E+00  0.00000000000E+00  0.51165423453E+02  0.51165423453E+02  0.00000000000E+00 0.  1.
          1   -1    0    0  501    0  0.00000000000E+00 -0.00000000000E+00 -0.29335334076E+03  0.29335334076E+03  0.00000000000E+00 0. -1.
         23    2    1    2    0    0  0.53100838459E+02  0.17928575797E+02 -0.13035312754E+03  0.18909721419E+03  0.12499874271E+03 0.  0.
         23    2    1    2    0    0 -0.53100838459E+02 -0.17928575797E+02 -0.11183478976E+03  0.15542155002E+03  0.92237222066E+02 0.  0.
          5    1    3    3  502    0 -0.32013778402E+02  0.64172764813E+01 -0.79501335142E-01  0.32987266717E+02  0.47000000000E+01 0.  1.
         -5    1    3    3    0  502  0.85114616860E+02  0.11511299315E+02 -0.13027362621E+03  0.15610994747E+03  0.47000000000E+01 0.  1.
        -11    1    4    4    0    0 -0.39393733564E+02  0.50079406260E+01 -0.12086127577E+03  0.12721789849E+03  0.00000000000E+00 0. -1.
         11    1    4    4    0    0 -0.13707104894E+02 -0.22936516423E+02  0.90264860110E+01  0.28203651535E+02  0.00000000000E+00 0.  1.
<mgrwt>
<rscale>  0 0.12906193E+03</rscale>
<asrwt>0</asrwt>
<pdfrwt beam="2">  1        1 0.45131283E-01 0.13698839E+03</pdfrwt>
<pdfrwt beam="1">  1       -1 0.78716037E-02 0.13698839E+03</pdfrwt>
<totfact> 0.75702628E+03</totfact>
</mgrwt>
</event>
<event>
 8    1  0.1154424E-005  0.1251798E+03  0.7546771E-02  0.1256919E+00
         -3   -1    0    0    0  501 -0.00000000000E+00  0.00000000000E+00  0.29250258205E+03  0.29250258205E+03  0.00000000000E+00 0.  1.
          3   -1    0    0  501    0  0.00000000000E+00 -0.00000000000E+00 -0.43976028744E+02  0.43976028744E+02  0.00000000000E+00 0. -1.
         23    2    1    2    0    0 -0.19364805204E+00  0.66876991995E+01  0.21656517410E+03  0.25014089704E+03  0.12500092366E+03 0.  0.
         23    2    1    2    0    0  0.19364805204E+00 -0.66876991995E+01  0.31961379207E+02  0.86337713763E+02  0.79924390751E+02 0.  0.
          5    1    3    3  502    0  0.36665218932E+01 -0.21181279646E+02  0.22027895216E+03  0.22137523971E+03  0.47000000000E+01 0. -1.
         -5    1    3    3    0  502 -0.38601699452E+01  0.27868978846E+02 -0.37137780604E+01  0.28765657326E+02  0.47000000000E+01 0. -1.
        -11    1    4    4    0    0 -0.30213579784E+02  0.20252057610E+02  0.27234298800E+02  0.45439116100E+02  0.00000000000E+00 0.  1.
         11    1    4    4    0    0  0.30407227836E+02 -0.26939756810E+02  0.47270804069E+01  0.40898597663E+02  0.00000000000E+00 0. -1.
<mgrwt>
<rscale>  0 0.11199528E+03</rscale>
<asrwt>0</asrwt>
<pdfrwt beam="2">  1        3 0.67655431E-02 0.12517985E+03</pdfrwt>
<pdfrwt beam="1">  1       -3 0.45000396E-01 0.12517985E+03</pdfrwt>
<totfact> 0.15661684E+03</totfact>
</mgrwt>
</event>
<event>
 8    1  0.1154424E-005  0.1569838E+03  0.7546771E-02  0.1200277E+00
         -2   -1    0    0    0  501 -0.00000000000E+00  0.00000000000E+00  0.61071484166E+02  0.61071484166E+02  0.00000000000E+00 0.  1.
          2   -1    0    0  501    0  0.00000000000E+00 -0.00000000000E+00 -0.36711279109E+03  0.36711279109E+03  0.00000000000E+00 0. -1.
         23    2    1    2    0    0  0.91586366433E+02 -0.25087001050E+02 -0.10814805009E+03  0.19063034656E+03  0.12500603247E+03 0.  0.
         23    2    1    2    0    0 -0.91586366433E+02  0.25087001050E+02 -0.19789325683E+03  0.23755392870E+03  0.90844415360E+02 0.  0.
          5    1    3    3  502    0  0.11064297053E+03 -0.18411080922E+02 -0.39642594240E+02  0.11905654164E+03  0.47000000000E+01 0.  1.
         -5    1    3    3    0  502 -0.19056604099E+02 -0.66759201279E+01 -0.68505455854E+02  0.71573804922E+02  0.47000000000E+01 0.  1.
        -11    1    4    4    0    0 -0.42335937316E+02 -0.28997491242E+02 -0.45784829424E+02  0.68770900039E+02  0.00000000000E+00 0.  1.
         11    1    4    4    0    0 -0.49250429117E+02  0.54084492292E+02 -0.15210842741E+03  0.16878302866E+03  0.00000000000E+00 0. -1.
<mgrwt>
<rscale>  0 0.15015962E+03</rscale>
<asrwt>0</asrwt>
<pdfrwt beam="2">  1        2 0.56478891E-01 0.15698385E+03</pdfrwt>
<pdfrwt beam="1">  1       -2 0.93956129E-02 0.15698385E+03</pdfrwt>
<totfact> 0.62058529E+03</totfact>
</mgrwt>
</event>
<event>
 8    1  0.1154424E-005  0.1556143E+03  0.7546771E-02  0.1202382E+00
          2   -1    0    0  501    0  0.00000000000E+00  0.00000000000E+00  0.14434630499E+03  0.14434630499E+03  0.00000000000E+00 0.  1.
         -2   -1    0    0    0  501 -0.00000000000E+00 -0.00000000000E+00 -0.14563091939E+03  0.14563091939E+03  0.00000000000E+00 0. -1.
         23    2    1    2    0    0 -0.91939762977E+02  0.11815736134E+02 -0.28582908855E+02  0.15821750798E+03  0.12499306187E+03 0.  0.
         23    2    1    2    0    0  0.91939762977E+02 -0.11815736134E+02  0.27298294457E+02  0.13175971640E+03  0.89570610966E+02 0.  0.
          5    1    3    3  502    0 -0.87129356101E+02  0.60663437699E+02 -0.21062656300E+02  0.10833883357E+03  0.47000000000E+01 0. -1.
         -5    1    3    3    0  502 -0.48104068765E+01 -0.48847701565E+02 -0.75202525557E+01  0.49878674411E+02  0.47000000000E+01 0. -1.
        -11    1    4    4    0    0  0.33597524439E+02  0.37627961004E+01  0.55598896215E+02  0.65070650398E+02  0.00000000000E+00 0.  1.
         11    1    4    4    0    0  0.58342238539E+02 -0.15578532234E+02 -0.28300601758E+02  0.66689066001E+02  0.00000000000E+00 0. -1.
<mgrwt>
<rscale>  0 0.14845710E+03</rscale>
<asrwt>0</asrwt>
<pdfrwt beam="1">  1        2 0.22207124E-01 0.15561426E+03</pdfrwt>
<pdfrwt beam="2">  1       -2 0.22404757E-01 0.15561426E+03</pdfrwt>
<totfact> 0.41018948E+03</totfact>
</mgrwt>
</event>
<event>
 7    1  0.1154424E-005  0.3814312E+03  0.7546771E-02  0.1056438E+00
          2   -1    0    0  501    0  0.00000000000E+00  0.00000000000E+00  0.16070821839E+04  0.16070821839E+04  0.00000000000E+00 0. -1.
         -2   -1    0    0    0  501 -0.00000000000E+00 -0.00000000000E+00 -0.86772686365E+02  0.86772686365E+02  0.00000000000E+00 0.  1.
         23    2    1    2    0    0 -0.12989028912E+03 -0.27906363432E+03  0.98803115525E+03  0.10390190023E+04  0.92773510426E+02 0.  0.
          5    1    1    2  502    0  0.16829562685E+01  0.12436684743E+03  0.38789455592E+03  0.40737479253E+03  0.47000000000E+01 0. -1.
         -5    1    1    2    0  502  0.12820733285E+03  0.15469678689E+03  0.14438378635E+03  0.24746107539E+03  0.47000000000E+01 0.  1.
        -11    1    3    3    0    0 -0.13807375557E+03 -0.23933249990E+03  0.79140187680E+03  0.83824897142E+03  0.00000000000E+00 0.  1.
         11    1    3    3    0    0  0.81834664434E+01 -0.39731134425E+02  0.19662927845E+03  0.20077003091E+03  0.00000000000E+00 0. -1.
<mgrwt>
<rscale>  0 0.36547155E+03</rscale>
<asrwt>0</asrwt>
<pdfrwt beam="1">  1        2 0.24724339E+00 0.38143123E+03</pdfrwt>
<pdfrwt beam="2">  1       -2 0.13349645E-01 0.38143123E+03</pdfrwt>
<totfact> 0.49180769E+02</totfact>
</mgrwt>
</event>
<event>
 8    1  0.1154424E-005  0.3384931E+03  0.7546771E-02  0.1068650E+00
         -2   -1    0    0    0  501 -0.00000000000E+00  0.00000000000E+00  0.95205156142E+02  0.95205156142E+02  0.00000000000E+00 0.  1.
          2   -1    0    0  501    0  0.00000000000E+00 -0.00000000000E+00 -0.11644086230E+04  0.11644086230E+04  0.00000000000E+00 0. -1.
         23    2    1    2    0    0  0.31186362597E+03 -0.41140541963E+02 -0.53802137912E+03  0.63564502995E+03  0.12500453716E+03 0.  0.
         23    2    1    2    0    0 -0.31186362597E+03  0.41140541963E+02 -0.53118208769E+03  0.62396874915E+03  0.90725543428E+02 0.  0.
          5    1    3    3  502    0  0.49724701169E+02  0.27907023639E+02 -0.16400592104E+03  0.17369910769E+03  0.47000000000E+01 0.  1.
         -5    1    3    3    0  502  0.26213892480E+03 -0.69047565602E+02 -0.37401545807E+03  0.46194592226E+03  0.47000000000E+01 0.  1.
        -11    1    4    4    0    0 -0.25855988126E+03  0.21374508866E+02 -0.36111067180E+03  0.44464705005E+03  0.00000000000E+00 0.  1.
         11    1    4    4    0    0 -0.53303744707E+02  0.19766033097E+02 -0.17007141589E+03  0.17932169910E+03  0.00000000000E+00 0. -1.
<mgrwt>
<rscale>  0 0.33568190E+03</rscale>
<asrwt>0</asrwt>
<pdfrwt beam="2">  1        2 0.17913979E+00 0.33849313E+03</pdfrwt>
<pdfrwt beam="1">  1       -2 0.14646947E-01 0.33849313E+03</pdfrwt>
<totfact> 0.74492001E+02</totfact>
</mgrwt>
</event>
<event>
 8    1  0.1154424E-005  0.1522817E+03  0.7546771E-02  0.1207555E+00
          2   -1    0    0  501    0  0.00000000000E+00  0.00000000000E+00  0.51400410747E+03  0.51400410747E+03  0.00000000000E+00 0. -1.
         -2   -1    0    0    0  501 -0.00000000000E+00 -0.00000000000E+00 -0.40580396077E+02  0.40580396077E+02  0.00000000000E+00 0.  1.
         23    2    1    2    0    0  0.82505349204E+02 -0.27459508259E+02  0.17613492257E+03  0.23283736912E+03  0.12501428826E+03 0.  0.
         23    2    1    2    0    0 -0.82505349204E+02  0.27459508259E+02  0.29728878883E+03  0.32174713443E+03  0.87059963875E+02 0.  0.
          5    1    3    3  502    0  0.11417580748E+03 -0.33631228566E+02  0.12973424635E+03  0.17612563478E+03  0.47000000000E+01 0. -1.
         -5    1    3    3    0  502 -0.31670458276E+02  0.61717203063E+01  0.46400676215E+02  0.56711734343E+02  0.47000000000E+01 0. -1.
        -11    1    4    4    0    0 -0.56231913096E+02 -0.10629706692E+02  0.73118759313E+02  0.92851341823E+02  0.00000000000E+00 0.  1.
         11    1    4    4    0    0 -0.26273436108E+02  0.38089214952E+02  0.22417002951E+03  0.22889579261E+03  0.00000000000E+00 0. -1.
<mgrwt>
<rscale>  0 0.14437891E+03</rscale>
<asrwt>0</asrwt>
<pdfrwt beam="1">  1        2 0.79077550E-01 0.15228174E+03</pdfrwt>
<pdfrwt beam="2">  1       -2 0.62431382E-02 0.15228174E+03</pdfrwt>
<totfact> 0.80877215E+03</totfact>
</mgrwt>
</event>
<event>
 8    1  0.1154424E-005  0.1304419E+03  0.7546771E-02  0.1242363E+00
         -2   -1    0    0    0  501 -0.00000000000E+00  0.00000000000E+00  0.36276865294E+03  0.36276865294E+03  0.00000000000E+00 0. -1.
          2   -1    0    0  501    0  0.00000000000E+00 -0.00000000000E+00 -0.37607172101E+02  0.37607172101E+02  0.00000000000E+00 0.  1.
         23    2    1    2    0    0 -0.25841844033E+02 -0.26818751585E+02  0.23887427975E+03  0.27216910111E+03  0.12501220636E+03 0.  0.
         23    2    1    2    0    0  0.25841844033E+02  0.26818751585E+02  0.86287201094E+02  0.12820672393E+03  0.87203421079E+02 0.  0.
          5    1    3    3  502    0 -0.57347839795E+02 -0.57797073354E+02  0.18605966201E+03  0.20314911824E+03  0.47000000000E+01 0. -1.
         -5    1    3    3    0  502  0.31505995762E+02  0.30978321768E+02  0.52814617739E+02  0.69019982870E+02  0.47000000000E+01 0. -1.
        -11    1    4    4    0    0 -0.38775074237E+01  0.25806438815E+02  0.93943174050E+02  0.97500396403E+02  0.00000000000E+00 0. -1.
         11    1    4    4    0    0  0.29719351456E+02  0.10123127703E+01 -0.76559729556E+01  0.30706327524E+02  0.00000000000E+00 0.  1.
<mgrwt>
<rscale>  0 0.12044585E+03</rscale>
<asrwt>0</asrwt>
<pdfrwt beam="2">  1        2 0.57857190E-02 0.13044193E+03</pdfrwt>
<pdfrwt beam="1">  1       -2 0.55810560E-01 0.13044193E+03</pdfrwt>
<totfact> 0.37831708E+03</totfact>
</mgrwt>
</event>
<event>
 8    1  0.1154424E-005  0.1252402E+03  0.7546771E-02  0.1250877E+00
         -1   -1    0    0    0  501 -0.00000000000E+00  0.00000000000E+00  0.19896390018E+03  0.19896390018E+03  0.00000000000E+00 0.  1.
          1   -1    0    0  501    0  0.00000000000E+00 -0.00000000000E+00 -0.65767858141E+02  0.65767858141E+02  0.00000000000E+00 0. -1.
         23    2    1    2    0    0  0.70727444860E+01 -0.29333824211E+01  0.12005077357E+03  0.17348573121E+03  0.12500592886E+03 0.  0.
         23    2    1    2    0    0 -0.70727444860E+01  0.29333824211E+01  0.13145268460E+02  0.91246027105E+02  0.89968944267E+02 0.  0.
          5    1    3    3  502    0 -0.46438107150E+02  0.17667582029E+02  0.10138308931E+03  0.11300115950E+03  0.47000000000E+01 0. -1.
         -5    1    3    3    0  502  0.53510851636E+02 -0.20600964450E+02  0.18667684262E+02  0.60484571709E+02  0.47000000000E+01 0. -1.
        -11    1    4    4    0    0 -0.18606745055E+02  0.28130776956E+02 -0.26488022986E+02  0.42885509621E+02  0.00000000000E+00 0. -1.
         11    1    4    4    0    0  0.11534000569E+02 -0.25197394535E+02  0.39633291446E+02  0.48360517484E+02  0.00000000000E+00 0.  1.
<mgrwt>
<rscale>  0 0.11540451E+03</rscale>
<asrwt>0</asrwt>
<pdfrwt beam="2">  1        1 0.10118132E-01 0.12524021E+03</pdfrwt>
<pdfrwt beam="1">  1       -1 0.30609831E-01 0.12524021E+03</pdfrwt>
<totfact> 0.58895931E+03</totfact>
</mgrwt>
</event>
<event>
 8    1  0.1154424E-005  0.1315872E+03  0.7546771E-02  0.1244209E+00
         -1   -1    0    0    0  501 -0.00000000000E+00  0.00000000000E+00  0.57392330597E+03  0.57392330597E+03  0.00000000000E+00 0.  1.
          1   -1    0    0  501    0  0.00000000000E+00 -0.00000000000E+00 -0.28379697276E+02  0.28379697276E+02  0.00000000000E+00 0. -1.
         23    2    1    2    0    0 -0.29711444119E+02 -0.28432190668E+02  0.46152579720E+03  0.47991796748E+03  0.12499613856E+03 0.  0.
         23    2    1    2    0    0  0.29711444119E+02  0.28432190668E+02  0.84017811496E+02  0.12238503576E+03  0.78917329862E+02 0.  0.
          5    1    3    3  502    0 -0.75187081343E+02 -0.36487782121E+02  0.32960507328E+03  0.34006771352E+03  0.47000000000E+01 0.  1.
         -5    1    3    3    0  502  0.45475637225E+02  0.80555914522E+01  0.13192072392E+03  0.13985025396E+03  0.47000000000E+01 0.  1.
        -11    1    4    4    0    0  0.74386691409E+01  0.26731335372E+02 -0.70409798947E+01  0.28626447339E+02  0.00000000000E+00 0. -1.
         11    1    4    4    0    0  0.22272774978E+02  0.17008552961E+01  0.91058791391E+02  0.93758588425E+02  0.00000000000E+00 0.  1.
<mgrwt>
<rscale>  0 0.11932866E+03</rscale>
<asrwt>0</asrwt>
<pdfrwt beam="2">  1        1 0.43661077E-02 0.13158721E+03</pdfrwt>
<pdfrwt beam="1">  1       -1 0.88295885E-01 0.13158721E+03</pdfrwt>
<totfact> 0.25694871E+03</totfact>
</mgrwt>
</event>
<event>
 8    1  0.1154424E-005  0.1543873E+03  0.7546771E-02  0.1203678E+00
          1   -1    0    0  501    0  0.00000000000E+00  0.00000000000E+00  0.28319465807E+02  0.28319465807E+02  0.00000000000E+00 0. -1.
         -1   -1    0    0    0  501 -0.00000000000E+00 -0.00000000000E+00 -0.70574811113E+03  0.70574811113E+03  0.00000000000E+00 0.  1.
         23    2    1    2    0    0  0.83472279862E+02 -0.35247842474E+02 -0.36722850612E+03  0.39836192814E+03  0.12500167270E+03 0.  0.
         23    2    1    2    0    0 -0.83472279862E+02  0.35247842474E+02 -0.31020013920E+03  0.33570564880E+03  0.90907229465E+02 0.  0.
          5    1    3    3  502    0  0.49765120399E+02  0.44644406967E+02 -0.14381007345E+03  0.15866038417E+03  0.47000000000E+01 0. -1.
         -5    1    3    3    0  502  0.33707159463E+02 -0.79892249442E+02 -0.22341843267E+03  0.23970154396E+03  0.47000000000E+01 0. -1.
        -11    1    4    4    0    0 -0.57374392147E+02  0.24119586348E+02 -0.29866168684E+03  0.30507765979E+03  0.00000000000E+00 0.  1.
         11    1    4    4    0    0 -0.26097887715E+02  0.11128256126E+02 -0.11538452367E+02  0.30627989007E+02  0.00000000000E+00 0. -1.
<mgrwt>
<rscale>  0 0.14742093E+03</rscale>
<asrwt>0</asrwt>
<pdfrwt beam="1">  1        1 0.43568409E-02 0.15438734E+03</pdfrwt>
<pdfrwt beam="2">  1       -1 0.10857663E+00 0.15438734E+03</pdfrwt>
<totfact> 0.16520075E+03</totfact>
</mgrwt>
</event>
<event>
 8    1  0.1154424E-005  0.1275458E+03  0.7546771E-02  0.1246187E+00
          2   -1    0    0  501    0  0.00000000000E+00  0.00000000000E+00  0.39955730282E+03  0.39955730282E+03  0.00000000000E+00 0.  1.
         -2   -1    0    0    0  501 -0.00000000000E+00 -0.00000000000E+00 -0.32801462461E+02  0.32801462461E+02  0.00000000000E+00 0. -1.
         23    2    1    2    0    0 -0.11376672794E+02  0.22659656920E+02  0.15510444972E+03  0.20081162809E+03  0.12500012367E+03 0.  0.
         23    2    1    2    0    0  0.11376672794E+02 -0.22659656920E+02  0.21165139064E+03  0.23154713719E+03  0.90415025552E+02 0.  0.
          5    1    3    3  502    0  0.50023322472E+02 -0.18322592109E+02  0.61273635885E+02  0.81330182757E+02  0.47000000000E+01 0.  1.
         -5    1    3    3    0  502 -0.61399995265E+02  0.40982249029E+02  0.93830813832E+02  0.11948144533E+03  0.47000000000E+01 0.  1.
        -11    1    4    4    0    0 -0.39367707728E+02 -0.13909025450E+02  0.10852268672E+03  0.11627747389E+03  0.00000000000E+00 0.  1.
         11    1    4    4    0    0  0.50744380522E+02 -0.87506314699E+01  0.10312870392E+03  0.11526966330E+03  0.00000000000E+00 0. -1.
<mgrwt>
<rscale>  0 0.11814608E+03</rscale>
<asrwt>0</asrwt>
<pdfrwt beam="1">  1        2 0.61470351E-01 0.12754576E+03</pdfrwt>
<pdfrwt beam="2">  1       -2 0.50463791E-02 0.12754576E+03</pdfrwt>
<totfact> 0.14477826E+04</totfact>
</mgrwt>
</event>
<event>
 7    1  0.1154424E-005  0.1734881E+03  0.7546771E-02  0.1191132E+00
          2   -1    0    0  501    0  0.00000000000E+00  0.00000000000E+00  0.25741641951E+03  0.25741641951E+03  0.00000000000E+00 0. -1.
         -2   -1    0    0    0  501 -0.00000000000E+00 -0.00000000000E+00 -0.89597404748E+02  0.89597404748E+02  0.00000000000E+00 0.  1.
         23    2    1    2    0    0 -0.35908485152E+02  0.70601433323E+02  0.11555430483E+03  0.16582404743E+03  0.88717730181E+02 0.  0.
          5    1    1    2  502    0  0.49548610175E+02 -0.11461381384E+03  0.50696324605E+02  0.13484657364E+03  0.47000000000E+01 0. -1.
         -5    1    1    2    0  502 -0.13640125022E+02  0.44012380515E+02  0.15683853237E+01  0.46343203188E+02  0.47000000000E+01 0.  1.
        -11    1    3    3    0    0 -0.16109707997E+02 -0.18068214243E+02  0.90753091818E+01  0.25852355684E+02  0.00000000000E+00 0.  1.
         11    1    3    3    0    0 -0.19798777155E+02  0.88669647565E+02  0.10647899565E+03  0.13997169175E+03  0.00000000000E+00 0. -1.
<mgrwt>
<rscale>  0 0.15786179E+03</rscale>
<asrwt>0</asrwt>
<pdfrwt beam="1">  1        2 0.39602526E-01 0.17348814E+03</pdfrwt>
<pdfrwt beam="2">  1       -2 0.13784216E-01 0.17348814E+03</pdfrwt>
<totfact> 0.49423210E+03</totfact>
</mgrwt>
</event>
<event>
 8    1  0.1154424E-005  0.1659170E+03  0.7546771E-02  0.1188776E+00
          1   -1    0    0  501    0  0.00000000000E+00  0.00000000000E+00  0.28799216955E+02  0.28799216955E+02  0.00000000000E+00 0. -1.
         -1   -1    0    0    0  501 -0.00000000000E+00 -0.00000000000E+00 -0.85460162732E+03  0.85460162732E+03  0.00000000000E+00 0.  1.
         23    2    1    2    0    0  0.86708538263E+02  0.66258873652E+02 -0.51756227793E+03  0.54350635459E+03  0.12497934631E+03 0.  0.
         23    2    1    2    0    0 -0.86708538263E+02 -0.66258873652E+02 -0.30824013244E+03  0.33989448968E+03  0.92777561540E+02 0.  0.
          5    1    3    3  502    0 -0.69908069960E+00  0.61801685729E+02 -0.10668237547E+03  0.12338215555E+03  0.47000000000E+01 0.  1.
         -5    1    3    3    0  502  0.87407618963E+02  0.44571879234E+01 -0.41087990246E+03  0.42012419904E+03  0.47000000000E+01 0.  1.
        -11    1    4    4    0    0 -0.10171552456E+03 -0.53578621745E+02 -0.20715254976E+03  0.23691537627E+03  0.00000000000E+00 0. -1.
         11    1    4    4    0    0  0.15006986295E+02 -0.12680251907E+02 -0.10108758268E+03  0.10297911341E+03  0.00000000000E+00 0.  1.
<mgrwt>
<rscale>  0 0.15993020E+03</rscale>
<asrwt>0</asrwt>
<pdfrwt beam="1">  1        1 0.44306498E-02 0.16591699E+03</pdfrwt>
<pdfrwt beam="2">  1       -1 0.13147714E+00 0.16591699E+03</pdfrwt>
<totfact> 0.10306885E+03</totfact>
</mgrwt>
</event>
<event>
 8    1  0.1154424E-005  0.1275063E+03  0.7546771E-02  0.1247490E+00
          3   -1    0    0  501    0  0.00000000000E+00  0.00000000000E+00  0.30473958009E+03  0.30473958009E+03  0.00000000000E+00 0. -1.
         -3   -1    0    0    0  501 -0.00000000000E+00 -0.00000000000E+00 -0.41922222592E+02  0.41922222592E+02  0.00000000000E+00 0.  1.
         23    2    1    2    0    0  0.36780974141E+01  0.24938398722E+02  0.10944169124E+03  0.16803377954E+03  0.12498966018E+03 0.  0.
         23    2    1    2    0    0 -0.36780974141E+01 -0.24938398722E+02  0.15337566626E+03  0.17862802315E+03  0.88025130061E+02 0.  0.
          5    1    3    3  502    0  0.45598039087E+02  0.94873872808E+01  0.11365076343E+03  0.12291370027E+03  0.47000000000E+01 0. -1.
         -5    1    3    3    0  502 -0.41919941673E+02  0.15451011441E+02 -0.42090721874E+01  0.45120079267E+02  0.47000000000E+01 0. -1.
        -11    1    4    4    0    0  0.26112698413E+02  0.22794100500E+02  0.68926706551E+02  0.77151376605E+02  0.00000000000E+00 0.  1.
         11    1    4    4    0    0 -0.29790795827E+02 -0.47732499222E+02  0.84448959706E+02  0.10147664654E+03  0.00000000000E+00 0. -1.
<mgrwt>
<rscale>  0 0.11737604E+03</rscale>
<asrwt>0</asrwt>
<pdfrwt beam="1">  1        3 0.46883011E-01 0.12750634E+03</pdfrwt>
<pdfrwt beam="2">  1       -3 0.64495729E-02 0.12750634E+03</pdfrwt>
<totfact> 0.15659482E+03</totfact>
</mgrwt>
</event>
<event>
 8    1  0.1154424E-005  0.1265970E+03  0.7546771E-02  0.1248170E+00
         -2   -1    0    0    0  501 -0.00000000000E+00  0.00000000000E+00  0.21380822273E+02  0.21380822273E+02  0.00000000000E+00 0.  1.
          2   -1    0    0  501    0  0.00000000000E+00 -0.00000000000E+00 -0.60623580827E+03  0.60623580827E+03  0.00000000000E+00 0. -1.
         23    2    1    2    0    0 -0.19381465779E+02 -0.50754511903E+01 -0.24928135074E+03  0.27958537547E+03  0.12500155571E+03 0.  0.
         23    2    1    2    0    0  0.19381465779E+02  0.50754511903E+01 -0.33557363525E+03  0.34803125507E+03  0.90081565303E+02 0.  0.
          5    1    3    3  502    0 -0.13425117232E+02 -0.58058272741E+02 -0.67856265211E+02  0.90429859752E+02  0.47000000000E+01 0. -1.
         -5    1    3    3    0  502 -0.59563485474E+01  0.52982821551E+02 -0.18142508553E+03  0.18915551572E+03  0.47000000000E+01 0. -1.
        -11    1    4    4    0    0 -0.22932018590E+02 -0.26934446948E+02 -0.18580230538E+03  0.18913973298E+03  0.00000000000E+00 0. -1.
         11    1    4    4    0    0  0.42313484369E+02  0.32009898138E+02 -0.14977132987E+03  0.15889152208E+03  0.00000000000E+00 0.  1.
<mgrwt>
<rscale>  0 0.11697619E+03</rscale>
<asrwt>0</asrwt>
<pdfrwt beam="2">  1        2 0.93267059E-01 0.12659696E+03</pdfrwt>
<pdfrwt beam="1">  1       -2 0.32893569E-02 0.12659696E+03</pdfrwt>
<totfact> 0.17302403E+04</totfact>
</mgrwt>
</event>
<event>
 8    1  0.1154424E-005  0.1393449E+03  0.7546771E-02  0.1225640E+00
         -1   -1    0    0    0  501 -0.00000000000E+00  0.00000000000E+00  0.58036175855E+03  0.58036175855E+03  0.00000000000E+00 0.  1.
          1   -1    0    0  501    0  0.00000000000E+00 -0.00000000000E+00 -0.29375137512E+02  0.29375137512E+02  0.00000000000E+00 0. -1.
         23    2    1    2    0    0 -0.22954541281E+02 -0.57148298434E+02  0.39680198857E+03  0.42055774350E+03  0.12499663396E+03 0.  0.
         23    2    1    2    0    0  0.22954541281E+02  0.57148298434E+02  0.15418463246E+03  0.18917915256E+03  0.90680824310E+02 0.  0.
          5    1    3    3  502    0 -0.38975936750E+02  0.20542284462E+02  0.60468097852E+02  0.74963924352E+02  0.47000000000E+01 0.  1.
         -5    1    3    3    0  502  0.16021395469E+02 -0.77690582897E+02  0.33633389072E+03  0.34559381914E+03  0.47000000000E+01 0.  1.
        -11    1    4    4    0    0  0.22254549403E+02  0.98393133809E+01 -0.34690580002E+01  0.24578678165E+02  0.00000000000E+00 0.  1.
         11    1    4    4    0    0  0.69999187797E+00  0.47308985053E+02  0.15765369046E+03  0.16460047440E+03  0.00000000000E+00 0. -1.
<mgrwt>
<rscale>  0 0.13123135E+03</rscale>
<asrwt>0</asrwt>
<pdfrwt beam="2">  1        1 0.45192524E-02 0.13934489E+03</pdfrwt>
<pdfrwt beam="1">  1       -1 0.89286416E-01 0.13934489E+03</pdfrwt>
<totfact> 0.24008409E+03</totfact>
</mgrwt>
</event>
<event>
 8    1  0.1154424E-005  0.1327929E+03  0.7546771E-02  0.1234310E+00
          1   -1    0    0  501    0  0.00000000000E+00  0.00000000000E+00  0.19157623373E+03  0.19157623373E+03  0.00000000000E+00 0. -1.
         -1   -1    0    0    0  501 -0.00000000000E+00 -0.00000000000E+00 -0.75673514328E+02  0.75673514328E+02  0.00000000000E+00 0.  1.
         23    2    1    2    0    0  0.26818060212E+02 -0.35917178103E+02  0.81954005073E+02  0.15604622055E+03  0.12499884785E+03 0.  0.
         23    2    1    2    0    0 -0.26818060212E+02  0.35917178103E+02  0.33948714331E+02  0.11120352752E+03  0.95939862887E+02 0.  0.
          5    1    3    3  502    0 -0.40052202204E+02  0.92409850482E+01  0.61467805950E+00  0.41376835732E+02  0.47000000000E+01 0.  1.
         -5    1    3    3    0  502  0.66870262415E+02 -0.45158163151E+02  0.81339327013E+02  0.11466938481E+03  0.47000000000E+01 0.  1.
        -11    1    4    4    0    0 -0.58244478236E+02  0.87450154452E+01  0.22383560036E+01  0.58939840326E+02  0.00000000000E+00 0.  1.
         11    1    4    4    0    0  0.31426418024E+02  0.27172162657E+02  0.31710358328E+02  0.52263687189E+02  0.00000000000E+00 0. -1.
<mgrwt>
<rscale>  0 0.12548733E+03</rscale>
<asrwt>0</asrwt>
<pdfrwt beam="1">  1        1 0.29473266E-01 0.13279294E+03</pdfrwt>
<pdfrwt beam="2">  1       -1 0.11642079E-01 0.13279294E+03</pdfrwt>
<totfact> 0.70552586E+03</totfact>
</mgrwt>
</event>
<event>
 8    1  0.1154424E-005  0.1254836E+03  0.7546771E-02  0.1248206E+00
         -2   -1    0    0    0  501 -0.00000000000E+00  0.00000000000E+00  0.45220543725E+03  0.45220543725E+03  0.00000000000E+00 0.  1.
          2   -1    0    0  501    0  0.00000000000E+00 -0.00000000000E+00 -0.28714176780E+02  0.28714176780E+02  0.00000000000E+00 0. -1.
         23    2    1    2    0    0 -0.63110006999E+01 -0.89561375948E+01  0.30088682168E+03  0.32600460373E+03  0.12500432417E+03 0.  0.
         23    2    1    2    0    0  0.63110006999E+01  0.89561375948E+01  0.12260443879E+03  0.15491501030E+03  0.94057274437E+02 0.  0.
          5    1    3    3  502    0 -0.63926114662E+02 -0.10076422640E+02  0.19279888901E+03  0.20342463969E+03  0.47000000000E+01 0.  1.
         -5    1    3    3    0  502  0.57615113962E+02  0.11202850447E+01  0.10808793266E+03  0.12257996404E+03  0.47000000000E+01 0.  1.
        -11    1    4    4    0    0 -0.29851089272E+02  0.32471044056E+02  0.31767269962E+02  0.54356376569E+02  0.00000000000E+00 0. -1.
         11    1    4    4    0    0  0.36162089972E+02 -0.23514906461E+02  0.90837168828E+02  0.10055863373E+03  0.00000000000E+00 0.  1.
<mgrwt>
<rscale>  0 0.11695529E+03</rscale>
<asrwt>0</asrwt>
<pdfrwt beam="2">  1        2 0.44175660E-02 0.12548355E+03</pdfrwt>
<pdfrwt beam="1">  1       -2 0.69570062E-01 0.12548355E+03</pdfrwt>
<totfact> 0.33975560E+03</totfact>
</mgrwt>
</event>
<event>
 8    1  0.1531237E-005  0.2039053E+03  0.7546771E-02  0.1150501E+00
          2   -1    0    0  501    0  0.00000000000E+00  0.00000000000E+00  0.11822663127E+04  0.11822663127E+04  0.00000000000E+00 0. -1.
         -2   -1    0    0    0  501 -0.00000000000E+00 -0.00000000000E+00 -0.32238547766E+02  0.32238547766E+02  0.00000000000E+00 0.  1.
         23    2    1    2    0    0 -0.15551890999E+03  0.42029022892E+02  0.55470400131E+03  0.59099398535E+03  0.12499916607E+03 0.  0.
         23    2    1    2    0    0  0.15551890999E+03 -0.42029022892E+02  0.59532376359E+03  0.62351087508E+03  0.91667102728E+02 0.  0.
          5    1    3    3  502    0 -0.89261988331E+02 -0.33252743638E+02  0.18816299333E+03  0.21095224478E+03  0.47000000000E+01 0. -1.
         -5    1    3    3    0  502 -0.66256921662E+02  0.75281766530E+02  0.36654100799E+03  0.38004174057E+03  0.47000000000E+01 0. -1.
        -11    1    4    4    0    0  0.44612544641E+02 -0.45739268692E+02  0.32634472036E+03  0.33254057850E+03  0.00000000000E+00 0. -1.
         11    1    4    4    0    0  0.11090636535E+03  0.37102457999E+01  0.26897904323E+03  0.29097029658E+03  0.00000000000E+00 0.  1.
<mgrwt>
<rscale>  0 0.19909977E+03</rscale>
<asrwt>0</asrwt>
<pdfrwt beam="1">  1        2 0.18188709E+00 0.20390528E+03</pdfrwt>
<pdfrwt beam="2">  1       -2 0.49597775E-02 0.20390528E+03</pdfrwt>
<totfact> 0.40286585E+03</totfact>
</mgrwt>
</event>
<event>
 8    1  0.1154424E-005  0.1754585E+03  0.7546771E-02  0.1178244E+00
          2   -1    0    0  501    0  0.00000000000E+00  0.00000000000E+00  0.37606874668E+03  0.37606874668E+03  0.00000000000E+00 0. -1.
         -2   -1    0    0    0  501 -0.00000000000E+00 -0.00000000000E+00 -0.73779119615E+02  0.73779119615E+02  0.00000000000E+00 0.  1.
         23    2    1    2    0    0  0.99382143455E+02  0.72690515741E+02  0.12457924667E+03  0.21518750376E+03  0.12499980622E+03 0.  0.
         23    2    1    2    0    0 -0.99382143455E+02 -0.72690515741E+02  0.17771038039E+03  0.23466036254E+03  0.91234779171E+02 0.  0.
          5    1    3    3  502    0  0.69573266602E+02  0.10644617614E+03  0.10821075132E+03  0.16704156532E+03  0.47000000000E+01 0. -1.
         -5    1    3    3    0  502  0.29808876853E+02 -0.33755660401E+02  0.16368495349E+02  0.48145938441E+02  0.47000000000E+01 0. -1.
        -11    1    4    4    0    0 -0.60898999363E+02  0.99923304849E+01  0.64204655209E+02  0.89054885000E+02  0.00000000000E+00 0. -1.
         11    1    4    4    0    0 -0.38483144093E+02 -0.82682846226E+02  0.11350572518E+03  0.14560547754E+03  0.00000000000E+00 0.  1.
<mgrwt>
<rscale>  0 0.16962053E+03</rscale>
<asrwt>0</asrwt>
<pdfrwt beam="1">  1        2 0.57856729E-01 0.17545847E+03</pdfrwt>
<pdfrwt beam="2">  1       -2 0.11350634E-01 0.17545847E+03</pdfrwt>
<totfact> 0.45093624E+03</totfact>
</mgrwt>
</event>
<event>
 8    1  0.1154424E-005  0.1668668E+03  0.7546771E-02  0.1188795E+00
         -2   -1    0    0    0  501 -0.00000000000E+00  0.00000000000E+00  0.45378657789E+02  0.45378657789E+02  0.00000000000E+00 0.  1.
          2   -1    0    0  501    0  0.00000000000E+00 -0.00000000000E+00 -0.53137221075E+03  0.53137221075E+03  0.00000000000E+00 0. -1.
         23    2    1    2    0    0  0.98212543795E+02 -0.50763650695E+02 -0.22367989345E+03  0.27906492301E+03  0.12498753751E+03 0.  0.
         23    2    1    2    0    0 -0.98212543795E+02  0.50763650695E+02 -0.26231365952E+03  0.29768594553E+03  0.87096579760E+02 0.  0.
          5    1    3    3  502    0  0.28470861677E+02 -0.81433353501E+02 -0.87586041645E+02  0.12302595547E+03  0.47000000000E+01 0. -1.
         -5    1    3    3    0  502  0.69741682118E+02  0.30669702807E+02 -0.13609385180E+03  0.15603896755E+03  0.47000000000E+01 0. -1.
        -11    1    4    4    0    0 -0.66837202245E+02  0.33382794055E+01 -0.21004808617E+03  0.22045079772E+03  0.00000000000E+00 0. -1.
         11    1    4    4    0    0 -0.31375341549E+02  0.47425371289E+02 -0.52265573347E+02  0.77235147806E+02  0.00000000000E+00 0.  1.
<mgrwt>
<rscale>  0 0.15991303E+03</rscale>
<asrwt>0</asrwt>
<pdfrwt beam="2">  1        2 0.81749575E-01 0.16686682E+03</pdfrwt>
<pdfrwt beam="1">  1       -2 0.69813316E-02 0.16686682E+03</pdfrwt>
<totfact> 0.66023865E+03</totfact>
</mgrwt>
</event>
<event>
 7    1  0.1154424E-005  0.1395909E+03  0.7546771E-02  0.1214771E+00
         -2   -1    0    0    0  501 -0.00000000000E+00  0.00000000000E+00  0.93983275212E+02  0.93983275212E+02  0.00000000000E+00 0. -1.
          2   -1    0    0  501    0  0.00000000000E+00 -0.00000000000E+00 -0.24380691520E+03  0.24380691520E+03  0.00000000000E+00 0.  1.
         23    2    1    2    0    0 -0.55440908254E+02  0.82314268802E+01 -0.56270124847E+01  0.13709568087E+03  0.12498844646E+03 0.  0.
          5    1    3    3  502    0 -0.54077519143E+02 -0.41463666514E+02 -0.37433655651E+02  0.77890835744E+02  0.47000000000E+01 0.  1.
         -5    1    3    3    0  502 -0.13633891111E+01  0.49695093394E+02  0.31806643166E+02  0.59204845130E+02  0.47000000000E+01 0.  1.
        -11    1    1    2    0    0  0.37451629386E+02  0.27740895994E+02 -0.15264110687E+03  0.15959789899E+03  0.00000000000E+00 0.  1.
         11    1    1    2    0    0  0.17989278868E+02 -0.35972322875E+02  0.84444793665E+01  0.41096610553E+02  0.00000000000E+00 0. -1.
<mgrwt>
<rscale>  0 0.13893358E+03</rscale>
<asrwt>0</asrwt>
<pdfrwt beam="2">  1        2 0.37508756E-01 0.13959090E+03</pdfrwt>
<pdfrwt beam="1">  1       -2 0.14458965E-01 0.13959090E+03</pdfrwt>
<totfact> 0.47878752E+03</totfact>
</mgrwt>
</event>
<event>
 8    1  0.1154424E-005  0.1340649E+03  0.7546771E-02  0.1235410E+00
          2   -1    0    0  501    0  0.00000000000E+00  0.00000000000E+00  0.43549167876E+03  0.43549167876E+03  0.00000000000E+00 0.  1.
         -2   -1    0    0    0  501 -0.00000000000E+00 -0.00000000000E+00 -0.32483545773E+02  0.32483545773E+02  0.00000000000E+00 0. -1.
         23    2    1    2    0    0 -0.36306961895E+02 -0.32092593272E+02  0.19160878915E+03  0.23385323739E+03  0.12500111413E+03 0.  0.
         23    2    1    2    0    0  0.36306961895E+02  0.32092593272E+02  0.21139934384E+03  0.23412198714E+03  0.88177617703E+02 0.  0.
          5    1    3    3  502    0  0.68333814322E+01 -0.18964332306E+02  0.18715604297E+03  0.18829714661E+03  0.47000000000E+01 0.  1.
         -5    1    3    3    0  502 -0.43140343327E+02 -0.13128260966E+02  0.44527461768E+01  0.45556090777E+02  0.47000000000E+01 0.  1.
        -11    1    4    4    0    0  0.45210307645E+02  0.17817315188E+02  0.21178984359E+03  0.21729327299E+03  0.00000000000E+00 0.  1.
         11    1    4    4    0    0 -0.89033457507E+01  0.14275278084E+02 -0.39049975542E+00  0.16828714152E+02  0.00000000000E+00 0. -1.
<mgrwt>
<rscale>  0 0.12478211E+03</rscale>
<asrwt>0</asrwt>
<pdfrwt beam="1">  1        2 0.66998716E-01 0.13406494E+03</pdfrwt>
<pdfrwt beam="2">  1       -2 0.49974689E-02 0.13406494E+03</pdfrwt>
<totfact> 0.13450483E+04</totfact>
</mgrwt>
</event>
<event>
 7    1  0.1154424E-005  0.2332302E+03  0.7546771E-02  0.1154492E+00
          2   -1    0    0  501    0  0.00000000000E+00  0.00000000000E+00  0.14477206898E+02  0.14477206898E+02  0.00000000000E+00 0. -1.
         -2   -1    0    0    0  501 -0.00000000000E+00 -0.00000000000E+00 -0.25732644967E+04  0.25732644967E+04  0.00000000000E+00 0.  1.
         23    2    1    2    0    0 -0.45351061024E+02  0.48049062572E+02 -0.37616377319E+03  0.39269233554E+03  0.91338135414E+02 0.  0.
          5    1    1    2  502    0 -0.78219749844E+02 -0.44026609282E+02 -0.51030094011E+03  0.51815616475E+03  0.47000000000E+01 0. -1.
         -5    1    1    2    0  502  0.12357081087E+03 -0.40224532904E+01 -0.16723225765E+04  0.16768932033E+04  0.47000000000E+01 0.  1.
        -11    1    3    3    0    0  0.23859150750E+02 -0.19887519391E+01 -0.48587395537E+02  0.54165941456E+02  0.00000000000E+00 0.  1.
         11    1    3    3    0    0 -0.69210211774E+02  0.50037814511E+02 -0.32757637765E+03  0.33852639408E+03  0.00000000000E+00 0. -1.
<mgrwt>
<rscale>  0 0.19446819E+03</rscale>
<asrwt>0</asrwt>
<pdfrwt beam="1">  1        2 0.22272650E-02 0.23323017E+03</pdfrwt>
<pdfrwt beam="2">  1       -2 0.39588643E+00 0.23323017E+03</pdfrwt>
<totfact> 0.45428009E+01</totfact>
</mgrwt>
</event>
<event>
 8    1  0.1154424E-005  0.1324140E+03  0.7546771E-02  0.1236898E+00
          2   -1    0    0  501    0  0.00000000000E+00  0.00000000000E+00  0.16415331403E+03  0.16415331403E+03  0.00000000000E+00 0. -1.
         -2   -1    0    0    0  501 -0.00000000000E+00 -0.00000000000E+00 -0.95948137194E+02  0.95948137194E+02  0.00000000000E+00 0.  1.
         23    2    1    2    0    0 -0.41465316671E+02 -0.13789402031E+02 -0.90249198139E+01  0.13272119020E+03  0.12499578015E+03 0.  0.
         23    2    1    2    0    0  0.41465316671E+02  0.13789402031E+02  0.77230096647E+02  0.12738026102E+03  0.91387761625E+02 0.  0.
          5    1    3    3  502    0 -0.44148634826E+02  0.79649024417E+01 -0.61146199103E+02  0.75983480393E+02  0.47000000000E+01 0.  1.
         -5    1    3    3    0  502  0.26833181551E+01 -0.21754304472E+02  0.52121279289E+02  0.56737709807E+02  0.47000000000E+01 0.  1.
        -11    1    4    4    0    0  0.34051596205E+02 -0.15885183905E+02 -0.65951575190E+01  0.38149002274E+02  0.00000000000E+00 0.  1.
         11    1    4    4    0    0  0.74137204667E+01  0.29674585936E+02  0.83825254166E+02  0.89231258748E+02  0.00000000000E+00 0. -1.
<mgrwt>
<rscale>  0 0.12383699E+03</rscale>
<asrwt>0</asrwt>
<pdfrwt beam="1">  1        2 0.25254356E-01 0.13241399E+03</pdfrwt>
<pdfrwt beam="2">  1       -2 0.14761252E-01 0.13241399E+03</pdfrwt>
<totfact> 0.70788053E+03</totfact>
</mgrwt>
</event>
<event>
 8    1  0.1154424E-005  0.1585954E+03  0.7546771E-02  0.1202657E+00
          1   -1    0    0  501    0  0.00000000000E+00  0.00000000000E+00  0.70430829887E+03  0.70430829887E+03  0.00000000000E+00 0. -1.
         -1   -1    0    0    0  501 -0.00000000000E+00 -0.00000000000E+00 -0.31993130087E+02  0.31993130087E+02  0.00000000000E+00 0.  1.
         23    2    1    2    0    0 -0.16487257883E+02 -0.96205613780E+02  0.24241612934E+03  0.28968614994E+03  0.12500054363E+03 0.  0.
         23    2    1    2    0    0  0.16487257883E+02  0.96205613780E+02  0.42989903944E+03  0.44661527902E+03  0.71586825203E+02 0.  0.
          5    1    3    3  502    0  0.21197435226E+02 -0.57312843753E+02  0.22409232401E+03  0.23232208892E+03  0.47000000000E+01 0.  1.
         -5    1    3    3    0  502 -0.37684693109E+02 -0.38892770027E+02  0.18323805331E+02  0.57364061022E+02  0.47000000000E+01 0.  1.
        -11    1    4    4    0    0  0.13281222767E+02  0.23615466912E+02  0.31081790024E+02  0.41232982269E+02  0.00000000000E+00 0.  1.
         11    1    4    4    0    0  0.32060351162E+01  0.72590146868E+02  0.39881724942E+03  0.40538229675E+03  0.00000000000E+00 0. -1.
<mgrwt>
<rscale>  0 0.14823646E+03</rscale>
<asrwt>0</asrwt>
<pdfrwt beam="1">  1        1 0.10835511E+00 0.15859535E+03</pdfrwt>
<pdfrwt beam="2">  1       -1 0.49220206E-02 0.15859535E+03</pdfrwt>
<totfact> 0.49171001E+03</totfact>
</mgrwt>
</event>
<event>
 8    1  0.1154424E-005  0.1679872E+03  0.7546771E-02  0.1185921E+00
          1   -1    0    0  501    0  0.00000000000E+00  0.00000000000E+00  0.48967425801E+02  0.48967425801E+02  0.00000000000E+00 0. -1.
         -1   -1    0    0    0  501 -0.00000000000E+00 -0.00000000000E+00 -0.52169270454E+03  0.52169270454E+03  0.00000000000E+00 0.  1.
         23    2    1    2    0    0 -0.10232542223E+03  0.46084980034E+02 -0.29998703489E+03  0.34381959118E+03  0.12500149100E+03 0.  0.
         23    2    1    2    0    0  0.10232542223E+03 -0.46084980034E+02 -0.17273824384E+03  0.22684053916E+03  0.94993746650E+02 0.  0.
          5    1    3    3  502    0 -0.11339884443E+03  0.60120184562E+02 -0.29887270852E+03  0.32530096896E+03  0.47000000000E+01 0. -1.
         -5    1    3    3    0  502  0.11073422200E+02 -0.14035204527E+02 -0.11143263710E+01  0.18518622211E+02  0.47000000000E+01 0. -1.
        -11    1    4    4    0    0  0.11109681527E+03 -0.11937182275E+02 -0.12906899675E+03  0.17071556638E+03  0.00000000000E+00 0.  1.
         11    1    4    4    0    0 -0.87713930408E+01 -0.34147797760E+02 -0.43669247094E+02  0.56124972779E+02  0.00000000000E+00 0. -1.
<mgrwt>
<rscale>  0 0.16248353E+03</rscale>
<asrwt>0</asrwt>
<pdfrwt beam="1">  1        1 0.75334497E-02 0.16798717E+03</pdfrwt>
<pdfrwt beam="2">  1       -1 0.80260420E-01 0.16798717E+03</pdfrwt>
<totfact> 0.15059390E+03</totfact>
</mgrwt>
</event>
<event>
 8    1  0.1154424E-005  0.1579677E+03  0.7546771E-02  0.1199155E+00
          2   -1    0    0  501    0  0.00000000000E+00  0.00000000000E+00  0.32594208588E+03  0.32594208588E+03  0.00000000000E+00 0. -1.
         -2   -1    0    0    0  501 -0.00000000000E+00 -0.00000000000E+00 -0.64644259634E+02  0.64644259634E+02  0.00000000000E+00 0.  1.
         23    2    1    2    0    0  0.79787735193E+02  0.54451271753E+02  0.14920501108E+03  0.21729229577E+03  0.12499113082E+03 0.  0.
         23    2    1    2    0    0 -0.79787735193E+02 -0.54451271753E+02  0.11209281516E+03  0.17329404975E+03  0.90194261368E+02 0.  0.
          5    1    3    3  502    0 -0.16629046141E+02 -0.24893953909E+02  0.46705280118E+02  0.55675015112E+02  0.47000000000E+01 0. -1.
         -5    1    3    3    0  502  0.96416781334E+02  0.79345225662E+02  0.10249973097E+03  0.16161728065E+03  0.47000000000E+01 0. -1.
        -11    1    4    4    0    0 -0.49957041952E+02  0.18273882483E+02  0.39033764058E+02  0.65979357061E+02  0.00000000000E+00 0.  1.
         11    1    4    4    0    0 -0.29830693240E+02 -0.72725154236E+02  0.73059051103E+02  0.10731469268E+03  0.00000000000E+00 0. -1.
<mgrwt>
<rscale>  0 0.15107777E+03</rscale>
<asrwt>0</asrwt>
<pdfrwt beam="1">  1        2 0.50144935E-01 0.15796774E+03</pdfrwt>
<pdfrwt beam="2">  1       -2 0.99452709E-02 0.15796774E+03</pdfrwt>
<totfact> 0.64458682E+03</totfact>
</mgrwt>
</event>
<event>
 8    1  0.1154424E-005  0.1513415E+03  0.7546771E-02  0.1208458E+00
          2   -1    0    0  501    0  0.00000000000E+00  0.00000000000E+00  0.17915134962E+03  0.17915134962E+03  0.00000000000E+00 0. -1.
         -2   -1    0    0    0  501 -0.00000000000E+00 -0.00000000000E+00 -0.10737017658E+03  0.10737017658E+03  0.00000000000E+00 0.  1.
         23    2    1    2    0    0  0.78124401083E+02  0.34349124603E+02  0.18316916147E+02  0.15244593877E+03  0.12498388066E+03 0.  0.
         23    2    1    2    0    0 -0.78124401083E+02 -0.34349124603E+02  0.53464256887E+02  0.13407558742E+03  0.88513004541E+02 0.  0.
          5    1    3    3  502    0 -0.15419259503E+02  0.52118648885E+02  0.16867208250E+02  0.57102537942E+02  0.47000000000E+01 0. -1.
         -5    1    3    3    0  502  0.93543660586E+02 -0.17769524282E+02  0.14497078963E+01  0.95343400831E+02  0.47000000000E+01 0. -1.
        -11    1    4    4    0    0 -0.57281910817E+02 -0.89076748931E+00 -0.11171499644E+02  0.58367912228E+02  0.00000000000E+00 0.  1.
         11    1    4    4    0    0 -0.20842490266E+02 -0.33458357114E+02  0.64635756530E+02  0.75707675195E+02  0.00000000000E+00 0. -1.
<mgrwt>
<rscale>  0 0.14368280E+03</rscale>
<asrwt>0</asrwt>
<pdfrwt beam="1">  1        2 0.27561746E-01 0.15134152E+03</pdfrwt>
<pdfrwt beam="2">  1       -2 0.16518489E-01 0.15134152E+03</pdfrwt>
<totfact> 0.53927606E+03</totfact>
</mgrwt>
</event>
<event>
 7    1  0.1154424E-005  0.2333277E+03  0.7546771E-02  0.1129138E+00
          2   -1    0    0  501    0  0.00000000000E+00  0.00000000000E+00  0.31472541896E+03  0.31472541896E+03  0.00000000000E+00 0. -1.
         -2   -1    0    0    0  501 -0.00000000000E+00 -0.00000000000E+00 -0.17443645522E+03  0.17443645522E+03  0.00000000000E+00 0.  1.
         23    2    1    2    0    0 -0.15902956225E+03 -0.10052474973E+03  0.14981215195E+03  0.25563987537E+03  0.86674321633E+02 0.  0.
          5    1    1    2  502    0 -0.78940523048E+01  0.51145055775E+02 -0.26910600519E+02  0.58518400630E+02  0.47000000000E+01 0. -1.
         -5    1    1    2    0  502  0.16692361455E+03  0.49379693950E+02  0.17387412311E+02  0.17500359818E+03  0.47000000000E+01 0.  1.
        -11    1    3    3    0    0 -0.50986128845E+02 -0.16526583762E+02  0.11966457224E+01  0.53611055449E+02  0.00000000000E+00 0.  1.
         11    1    3    3    0    0 -0.10804343340E+03 -0.83998165963E+02  0.14861550623E+03  0.20202881992E+03  0.00000000000E+00 0. -1.
<mgrwt>
<rscale>  0 0.22648641E+03</rscale>
<asrwt>0</asrwt>
<pdfrwt beam="1">  1        2 0.48419295E-01 0.23332774E+03</pdfrwt>
<pdfrwt beam="2">  1       -2 0.26836378E-01 0.23332774E+03</pdfrwt>
<totfact> 0.12960088E+03</totfact>
</mgrwt>
</event>
<event>
 8    1  0.1154424E-005  0.1266273E+03  0.7546771E-02  0.1247516E+00
         -1   -1    0    0    0  501 -0.00000000000E+00  0.00000000000E+00  0.12751538784E+03  0.12751538784E+03  0.00000000000E+00 0.  1.
          1   -1    0    0  501    0  0.00000000000E+00 -0.00000000000E+00 -0.19281629636E+03  0.19281629636E+03  0.00000000000E+00 0. -1.
         23    2    1    2    0    0 -0.14946813472E+02  0.13661646001E+02  0.78395182780E+02  0.14893043728E+03  0.12499769062E+03 0.  0.
         23    2    1    2    0    0  0.14946813472E+02 -0.13661646001E+02 -0.14369609130E+03  0.17140124693E+03  0.91212789619E+02 0.  0.
          5    1    3    3  502    0  0.11240148598E+02  0.65377198629E+02  0.28695994761E+02  0.72429753254E+02  0.47000000000E+01 0.  1.
         -5    1    3    3    0  502 -0.26186962070E+02 -0.51715552628E+02  0.49699188019E+02  0.76500684022E+02  0.47000000000E+01 0.  1.
        -11    1    4    4    0    0  0.47432083356E+02  0.13699225670E+02 -0.61360785295E+02  0.78756696778E+02  0.00000000000E+00 0.  1.
         11    1    4    4    0    0 -0.32485269884E+02 -0.27360871670E+02 -0.82335306006E+02  0.92644550154E+02  0.00000000000E+00 0. -1.
<mgrwt>
<rscale>  0 0.11736028E+03</rscale>
<asrwt>0</asrwt>
<pdfrwt beam="2">  1        1 0.29664046E-01 0.12662729E+03</pdfrwt>
<pdfrwt beam="1">  1       -1 0.19617752E-01 0.12662729E+03</pdfrwt>
<totfact> 0.30805219E+03</totfact>
</mgrwt>
</event>
<event>
 8    1  0.1154424E-005  0.1321965E+03  0.7546771E-02  0.1238367E+00
         -1   -1    0    0    0  501 -0.00000000000E+00  0.00000000000E+00  0.43281659451E+02  0.43281659451E+02  0.00000000000E+00 0.  1.
          1   -1    0    0  501    0  0.00000000000E+00 -0.00000000000E+00 -0.36136915456E+03  0.36136915456E+03  0.00000000000E+00 0. -1.
         23    2    1    2    0    0  0.20533586209E+02  0.37809697646E+02 -0.10174306020E+03  0.16681599735E+03  0.12499890109E+03 0.  0.
         23    2    1    2    0    0 -0.20533586209E+02 -0.37809697646E+02 -0.21634443491E+03  0.23783481667E+03  0.88934156002E+02 0.  0.
          5    1    3    3  502    0  0.68233186323E+02  0.22437649319E+02 -0.27366935331E+02  0.77008148739E+02  0.47000000000E+01 0.  1.
         -5    1    3    3    0  502 -0.47699600114E+02  0.15372048327E+02 -0.74376124870E+02  0.89807848608E+02  0.47000000000E+01 0.  1.
        -11    1    4    4    0    0  0.34868768156E+02 -0.16622100377E+02 -0.70481834310E+02  0.80372969221E+02  0.00000000000E+00 0. -1.
         11    1    4    4    0    0 -0.55402354366E+02 -0.21187597269E+02 -0.14586260060E+03  0.15746184745E+03  0.00000000000E+00 0.  1.
<mgrwt>
<rscale>  0 0.12291334E+03</rscale>
<asrwt>0</asrwt>
<pdfrwt beam="2">  1        1 0.55595254E-01 0.13219655E+03</pdfrwt>
<pdfrwt beam="1">  1       -1 0.66587169E-02 0.13219655E+03</pdfrwt>
<totfact> 0.74936260E+03</totfact>
</mgrwt>
</event>
<event>
 8    1  0.1154424E-005  0.1287859E+03  0.7546771E-02  0.1243719E+00
         -1   -1    0    0    0  501 -0.00000000000E+00  0.00000000000E+00  0.14234113692E+03  0.14234113692E+03  0.00000000000E+00 0.  1.
          1   -1    0    0  501    0  0.00000000000E+00 -0.00000000000E+00 -0.17089332883E+03  0.17089332883E+03  0.00000000000E+00 0. -1.
         23    2    1    2    0    0  0.29300014365E+02  0.10170650266E+02  0.92687986616E+02  0.15867222569E+03  0.12499551741E+03 0.  0.
         23    2    1    2    0    0 -0.29300014365E+02 -0.10170650266E+02 -0.12124017853E+03  0.15456224006E+03  0.90710375334E+02 0.  0.
          5    1    3    3  502    0 -0.20010436832E+02  0.12415498807E+01  0.10488153680E+03  0.10688398285E+03  0.47000000000E+01 0. -1.
         -5    1    3    3    0  502  0.49310451197E+02  0.89291003854E+01 -0.12193550179E+02  0.51788242845E+02  0.47000000000E+01 0. -1.
        -11    1    4    4    0    0 -0.52419093177E+02 -0.19118160025E+02 -0.37494042536E+02  0.67224018014E+02  0.00000000000E+00 0.  1.
         11    1    4    4    0    0  0.23119078813E+02  0.89475097589E+01 -0.83746135991E+02  0.87338222042E+02  0.00000000000E+00 0. -1.
<mgrwt>
<rscale>  0 0.11962378E+03</rscale>
<asrwt>0</asrwt>
<pdfrwt beam="2">  1        1 0.26291281E-01 0.12878592E+03</pdfrwt>
<pdfrwt beam="1">  1       -1 0.21898637E-01 0.12878592E+03</pdfrwt>
<totfact> 0.30022080E+03</totfact>
</mgrwt>
</event>
<event>
 8    1  0.1154424E-005  0.2037992E+03  0.7546771E-02  0.1150563E+00
         -2   -1    0    0    0  501 -0.00000000000E+00  0.00000000000E+00  0.21164137955E+02  0.21164137955E+02  0.00000000000E+00 0. -1.
          2   -1    0    0  501    0  0.00000000000E+00 -0.00000000000E+00 -0.17913346035E+04  0.17913346035E+04  0.00000000000E+00 0.  1.
         23    2    1    2    0    0  0.80501618116E+02  0.13939571628E+03 -0.89428487362E+03  0.91721293324E+03  0.12498981352E+03 0.  0.
         23    2    1    2    0    0 -0.80501618116E+02 -0.13939571628E+03 -0.87588559193E+03  0.89528580822E+03  0.91920792048E+02 0.  0.
          5    1    3    3  502    0 -0.90862224107E+01  0.53057716565E+01 -0.33306663453E+03  0.33326593538E+03  0.47000000000E+01 0. -1.
         -5    1    3    3    0  502  0.89587840526E+02  0.13408994462E+03 -0.56121823909E+03  0.58394699786E+03  0.47000000000E+01 0. -1.
        -11    1    4    4    0    0 -0.16087889346E+02 -0.11130826310E+03 -0.60939940199E+03  0.61969022968E+03  0.00000000000E+00 0.  1.
         11    1    4    4    0    0 -0.64413728770E+02 -0.28087453183E+02 -0.26648618994E+03  0.27559557854E+03  0.00000000000E+00 0. -1.
<mgrwt>
<rscale>  0 0.19902623E+03</rscale>
<asrwt>0</asrwt>
<pdfrwt beam="2">  1        2 0.27558997E+00 0.20379924E+03</pdfrwt>
<pdfrwt beam="1">  1       -2 0.32560209E-02 0.20379924E+03</pdfrwt>
<totfact> 0.35790080E+03</totfact>
</mgrwt>
</event>
<event>
 8    1  0.1154424E-005  0.1347919E+03  0.7546771E-02  0.1234514E+00
         -1   -1    0    0    0  501 -0.00000000000E+00  0.00000000000E+00  0.12316055190E+03  0.12316055190E+03  0.00000000000E+00 0.  1.
          1   -1    0    0  501    0  0.00000000000E+00 -0.00000000000E+00 -0.12134101482E+03  0.12134101482E+03  0.00000000000E+00 0. -1.
         23    2    1    2    0    0  0.45176041791E+02  0.22434859208E+02  0.33349292468E+02  0.13885614111E+03  0.12499861981E+03 0.  0.
         23    2    1    2    0    0 -0.45176041791E+02 -0.22434859208E+02 -0.31529755389E+02  0.10564542561E+03  0.87307690487E+02 0.  0.
          5    1    3    3  502    0  0.78890494803E+02  0.17713127107E+02 -0.12085691693E+02  0.81887843945E+02  0.47000000000E+01 0. -1.
         -5    1    3    3    0  502 -0.33714453012E+02  0.47217321008E+01  0.45434984161E+02  0.56968297163E+02  0.47000000000E+01 0. -1.
        -11    1    4    4    0    0 -0.58008658904E+02 -0.32355836626E+01  0.92017027659E+01  0.58822995871E+02  0.00000000000E+00 0.  1.
         11    1    4    4    0    0  0.12832617113E+02 -0.19199275545E+02 -0.40731458155E+02  0.46822429741E+02  0.00000000000E+00 0. -1.
<mgrwt>
<rscale>  0 0.12535626E+03</rscale>
<asrwt>0</asrwt>
<pdfrwt beam="2">  1        1 0.18667848E-01 0.13479189E+03</pdfrwt>
<pdfrwt beam="1">  1       -1 0.18947777E-01 0.13479189E+03</pdfrwt>
<totfact> 0.58532386E+03</totfact>
</mgrwt>
</event>
<event>
 8    1  0.1154424E-005  0.1264667E+03  0.7546771E-02  0.1247593E+00
         -1   -1    0    0    0  501 -0.00000000000E+00  0.00000000000E+00  0.14148355404E+03  0.14148355404E+03  0.00000000000E+00 0.  1.
          1   -1    0    0  501    0  0.00000000000E+00 -0.00000000000E+00 -0.14303497101E+03  0.14303497101E+03  0.00000000000E+00 0. -1.
         23    2    1    2    0    0  0.22445039909E+00  0.19279059734E+02  0.88691587836E+02  0.15446688866E+03  0.12498835713E+03 0.  0.
         23    2    1    2    0    0 -0.22445039909E+00 -0.19279059734E+02 -0.90243004806E+02  0.13005163639E+03  0.91640033222E+02 0.  0.
          5    1    3    3  502    0  0.10985433416E+02  0.68225163581E+02  0.75445664414E+02  0.10241821602E+03  0.47000000000E+01 0.  1.
         -5    1    3    3    0  502 -0.10760983016E+02 -0.48946103847E+02  0.13245923422E+02  0.52048672649E+02  0.47000000000E+01 0.  1.
        -11    1    4    4    0    0 -0.43429663008E+01  0.33326556756E+02 -0.12015996787E+02  0.35691804665E+02  0.00000000000E+00 0.  1.
         11    1    4    4    0    0  0.41185159017E+01 -0.52605616490E+02 -0.78227008018E+02  0.94359831724E+02  0.00000000000E+00 0. -1.
<mgrwt>
<rscale>  0 0.11731532E+03</rscale>
<asrwt>0</asrwt>
<pdfrwt beam="2">  1        1 0.22005380E-01 0.12646668E+03</pdfrwt>
<pdfrwt beam="1">  1       -1 0.21766701E-01 0.12646668E+03</pdfrwt>
<totfact> 0.37868945E+03</totfact>
</mgrwt>
</event>
<event>
 8    1  0.1154424E-005  0.1312785E+03  0.7546771E-02  0.1233861E+00
         -1   -1    0    0    0  501 -0.00000000000E+00  0.00000000000E+00  0.58226838525E+02  0.58226838525E+02  0.00000000000E+00 0.  1.
          1   -1    0    0  501    0  0.00000000000E+00 -0.00000000000E+00 -0.28673721993E+03  0.28673721993E+03  0.00000000000E+00 0. -1.
         23    2    1    2    0    0  0.36833657805E+02  0.15831047752E+02 -0.62302147600E+02  0.14531206631E+03  0.12500679421E+03 0.  0.
         23    2    1    2    0    0 -0.36833657805E+02 -0.15831047752E+02 -0.16620823381E+03  0.19965199215E+03  0.10309413448E+03 0.  0.
          5    1    3    3  502    0  0.69072527058E+02 -0.18364142573E+02 -0.60799741976E+01  0.71884016393E+02  0.47000000000E+01 0. -1.
         -5    1    3    3    0  502 -0.32238869253E+02  0.34195190325E+02 -0.56222173402E+02  0.73428049914E+02  0.47000000000E+01 0. -1.
        -11    1    4    4    0    0 -0.34470137805E+01 -0.46914246909E+02 -0.29479403633E+02  0.55514535985E+02  0.00000000000E+00 0.  1.
         11    1    4    4    0    0 -0.33386644024E+02  0.31083199157E+02 -0.13672883018E+03  0.14413745617E+03  0.00000000000E+00 0. -1.
<mgrwt>
<rscale>  0 0.12577634E+03</rscale>
<asrwt>0</asrwt>
<pdfrwt beam="2">  1        1 0.44113419E-01 0.13127848E+03</pdfrwt>
<pdfrwt beam="1">  1       -1 0.89579750E-02 0.13127848E+03</pdfrwt>
<totfact> 0.63866003E+03</totfact>
</mgrwt>
</event>
<event>
 8    1  0.1154424E-005  0.1506048E+03  0.7546771E-02  0.1209143E+00
          2   -1    0    0  501    0  0.00000000000E+00  0.00000000000E+00  0.15605552263E+03  0.15605552263E+03  0.00000000000E+00 0. -1.
         -2   -1    0    0    0  501 -0.00000000000E+00 -0.00000000000E+00 -0.12481996897E+03  0.12481996897E+03  0.00000000000E+00 0.  1.
         23    2    1    2    0    0 -0.74036781397E+02  0.39691615539E+02 -0.10661317492E+02  0.15098167632E+03  0.12499973420E+03 0.  0.
         23    2    1    2    0    0  0.74036781397E+02 -0.39691615539E+02  0.41896871157E+02  0.12989381528E+03  0.89778539148E+02 0.  0.
          5    1    3    3  502    0  0.97966463679E+00  0.69536942836E+02 -0.64424810522E+01  0.69999583741E+02  0.47000000000E+01 0. -1.
         -5    1    3    3    0  502 -0.75016446034E+02 -0.29845327297E+02 -0.42188364399E+01  0.80982092576E+02  0.47000000000E+01 0. -1.
        -11    1    4    4    0    0 -0.71963078430E+01  0.78848504283E+01 -0.16103791379E+02  0.19320709346E+02  0.00000000000E+00 0.  1.
         11    1    4    4    0    0  0.81233089240E+02 -0.47576465967E+02  0.58000662536E+02  0.11057310593E+03  0.00000000000E+00 0. -1.
<mgrwt>
<rscale>  0 0.14315697E+03</rscale>
<asrwt>0</asrwt>
<pdfrwt beam="1">  1        2 0.24008542E-01 0.15060479E+03</pdfrwt>
<pdfrwt beam="2">  1       -2 0.19203072E-01 0.15060479E+03</pdfrwt>
<totfact> 0.48812901E+03</totfact>
</mgrwt>
</event>
<event>
 8    1  0.1154424E-005  0.1310410E+03  0.7546771E-02  0.1238410E+00
         -1   -1    0    0    0  501 -0.00000000000E+00  0.00000000000E+00  0.11148540512E+03  0.11148540512E+03  0.00000000000E+00 0.  1.
          1   -1    0    0  501    0  0.00000000000E+00 -0.00000000000E+00 -0.12546048504E+03  0.12546048504E+03  0.00000000000E+00 0. -1.
         23    2    1    2    0    0  0.14180642760E+02  0.36668486488E+02  0.14068034662E+02  0.13179400328E+03  0.12500432461E+03 0.  0.
         23    2    1    2    0    0 -0.14180642760E+02 -0.36668486488E+02 -0.28043114581E+02  0.10515188688E+03  0.93406822603E+02 0.  0.
          5    1    3    3  502    0  0.48350125244E+02  0.35848109878E+01  0.51649077853E+02  0.70995089436E+02  0.47000000000E+01 0. -1.
         -5    1    3    3    0  502 -0.34169482484E+02  0.33083675500E+02 -0.37581043191E+02  0.60798913848E+02  0.47000000000E+01 0. -1.
        -11    1    4    4    0    0  0.35358631933E+02 -0.18797362619E+02  0.86464156301E+01  0.40967477306E+02  0.00000000000E+00 0.  1.
         11    1    4    4    0    0 -0.49539274692E+02 -0.17871123869E+02 -0.36689530211E+02  0.64184409575E+02  0.00000000000E+00 0. -1.
<mgrwt>
<rscale>  0 0.12288657E+03</rscale>
<asrwt>0</asrwt>
<pdfrwt beam="2">  1        1 0.19301613E-01 0.13104102E+03</pdfrwt>
<pdfrwt beam="1">  1       -1 0.17151601E-01 0.13104102E+03</pdfrwt>
<totfact> 0.65589358E+03</totfact>
</mgrwt>
</event>
<event>
 8    1  0.1154424E-005  0.1407646E+03  0.7546771E-02  0.1222553E+00
         -2   -1    0    0    0  501 -0.00000000000E+00  0.00000000000E+00  0.23095333386E+03  0.23095333386E+03  0.00000000000E+00 0.  1.
          2   -1    0    0  501    0  0.00000000000E+00 -0.00000000000E+00 -0.76640564997E+02  0.76640564997E+02  0.00000000000E+00 0. -1.
         23    2    1    2    0    0  0.58951349139E+02 -0.26704199478E+02  0.13000616306E+03  0.19161490011E+03  0.12500516659E+03 0.  0.
         23    2    1    2    0    0 -0.58951349139E+02  0.26704199478E+02  0.24306605799E+02  0.11597899875E+03  0.93123258262E+02 0.  0.
          5    1    3    3  502    0  0.50594156766E+02 -0.41271654206E+02  0.15084778616E+03  0.16443923719E+03  0.47000000000E+01 0. -1.
         -5    1    3    3    0  502  0.83571923732E+01  0.14567454727E+02 -0.20841623096E+02  0.27175662915E+02  0.47000000000E+01 0. -1.
        -11    1    4    4    0    0 -0.12135540700E+02 -0.27212294225E+02  0.32516518173E+02  0.44103336145E+02  0.00000000000E+00 0.  1.
         11    1    4    4    0    0 -0.46815808439E+02  0.53916493703E+02 -0.82099123743E+01  0.71875662600E+02  0.00000000000E+00 0. -1.
<mgrwt>
<rscale>  0 0.13336028E+03</rscale>
<asrwt>0</asrwt>
<pdfrwt beam="2">  1        2 0.11790856E-01 0.14076458E+03</pdfrwt>
<pdfrwt beam="1">  1       -2 0.35531282E-01 0.14076458E+03</pdfrwt>
<totfact> 0.37389272E+03</totfact>
</mgrwt>
</event>
<event>
 8    1  0.1154424E-005  0.1358202E+03  0.7546771E-02  0.1231249E+00
          2   -1    0    0  501    0  0.00000000000E+00  0.00000000000E+00  0.59507612404E+02  0.59507612404E+02  0.00000000000E+00 0. -1.
         -2   -1    0    0    0  501 -0.00000000000E+00 -0.00000000000E+00 -0.33981739739E+03  0.33981739739E+03  0.00000000000E+00 0.  1.
         23    2    1    2    0    0 -0.53080018221E+02 -0.21533359582E+01 -0.25803770376E+03  0.29160004954E+03  0.12500002856E+03 0.  0.
         23    2    1    2    0    0  0.53080018221E+02  0.21533359582E+01 -0.22272081230E+02  0.10772496026E+03  0.91030194277E+02 0.  0.
          5    1    3    3  502    0 -0.25732528810E+02  0.21436824488E+02 -0.29754272685E+01  0.33950606040E+02  0.47000000000E+01 0.  1.
         -5    1    3    3    0  502 -0.27347489411E+02 -0.23590160446E+02 -0.25506227649E+03  0.25764944350E+03  0.47000000000E+01 0.  1.
        -11    1    4    4    0    0  0.30319016204E+02 -0.17985848984E+01 -0.57830544098E+02  0.65321125847E+02  0.00000000000E+00 0.  1.
         11    1    4    4    0    0  0.22761002017E+02  0.39519208565E+01  0.35558462867E+02  0.42403834411E+02  0.00000000000E+00 0. -1.
<mgrwt>
<rscale>  0 0.12747671E+03</rscale>
<asrwt>0</asrwt>
<pdfrwt beam="1">  1        2 0.91550174E-02 0.13582022E+03</pdfrwt>
<pdfrwt beam="2">  1       -2 0.52279599E-01 0.13582022E+03</pdfrwt>
<totfact> 0.24201702E+03</totfact>
</mgrwt>
</event>
<event>
 8    1  0.1154424E-005  0.1512627E+03  0.7546771E-02  0.1207923E+00
         -2   -1    0    0    0  501 -0.00000000000E+00  0.00000000000E+00  0.10159303166E+04  0.10159303166E+04  0.00000000000E+00 0.  1.
          2   -1    0    0  501    0  0.00000000000E+00 -0.00000000000E+00 -0.18766234955E+02  0.18766234955E+02  0.00000000000E+00 0. -1.
         23    2    1    2    0    0 -0.82045783344E+02  0.22872791038E+02  0.57167826045E+03  0.59135135549E+03  0.12500286807E+03 0.  0.
         23    2    1    2    0    0  0.82045783344E+02 -0.22872791038E+02  0.42548582118E+03  0.44334519606E+03  0.90896114921E+02 0.  0.
          5    1    3    3  502    0  0.24019243837E+02 -0.31140934966E+01  0.25795762914E+03  0.25913481064E+03  0.47000000000E+01 0. -1.
         -5    1    3    3    0  502 -0.10606502718E+03  0.25986884535E+02  0.31372063131E+03  0.33221654484E+03  0.47000000000E+01 0. -1.
        -11    1    4    4    0    0  0.40397663212E+02  0.19945546994E+02  0.72626715207E+02  0.85465992065E+02  0.00000000000E+00 0. -1.
         11    1    4    4    0    0  0.41648120131E+02 -0.42818338032E+02  0.35285910597E+03  0.35787920399E+03  0.00000000000E+00 0.  1.
<mgrwt>
<rscale>  0 0.14409503E+03</rscale>
<asrwt>0</asrwt>
<pdfrwt beam="2">  1        2 0.28871139E-02 0.15126266E+03</pdfrwt>
<pdfrwt beam="1">  1       -2 0.15629693E+00 0.15126266E+03</pdfrwt>
<totfact> 0.91666235E+02</totfact>
</mgrwt>
</event>
<event>
 8    1  0.1154424E-005  0.1280342E+03  0.7546771E-02  0.1238175E+00
         -1   -1    0    0    0  501 -0.00000000000E+00  0.00000000000E+00  0.22041315164E+02  0.22041315164E+02  0.00000000000E+00 0.  1.
          1   -1    0    0  501    0  0.00000000000E+00 -0.00000000000E+00 -0.72924711356E+03  0.72924711356E+03  0.00000000000E+00 0. -1.
         23    2    1    2    0    0  0.52563706707E+02  0.24894790461E+02 -0.24584895835E+03  0.27719031349E+03  0.11406167505E+03 0.  0.
         23    2    1    2    0    0 -0.52563706707E+02 -0.24894790461E+02 -0.46135684004E+03  0.47409811523E+03  0.92391531865E+02 0.  0.
          5    1    3    3  502    0 -0.34068913906E+02 -0.44025900738E+01 -0.89739382470E+02  0.96204576088E+02  0.47000000000E+01 0. -1.
         -5    1    3    3    0  502  0.86632620613E+02  0.29297380535E+02 -0.15610957588E+03  0.18098573740E+03  0.47000000000E+01 0.  1.
        -11    1    4    4    0    0  0.20555278476E+02 -0.26044949329E+02 -0.98264320150E+02  0.10371468302E+03  0.00000000000E+00 0.  1.
         11    1    4    4    0    0 -0.73118985183E+02  0.11501588683E+01 -0.36309251989E+03  0.37038343221E+03  0.00000000000E+00 0. -1.
<mgrwt>
<rscale>  0 0.12303368E+03</rscale>
<asrwt>0</asrwt>
<pdfrwt beam="2">  1        1 0.11219185E+00 0.12803421E+03</pdfrwt>
<pdfrwt beam="1">  1       -1 0.33909720E-02 0.12803421E+03</pdfrwt>
<totfact> 0.80018514E+03</totfact>
</mgrwt>
</event>
<event>
 8    1  0.1154424E-005  0.1382396E+03  0.7546771E-02  0.1227334E+00
          1   -1    0    0  501    0  0.00000000000E+00  0.00000000000E+00  0.72551216332E+02  0.72551216332E+02  0.00000000000E+00 0. -1.
         -1   -1    0    0    0  501 -0.00000000000E+00 -0.00000000000E+00 -0.24765259571E+03  0.24765259571E+03  0.00000000000E+00 0.  1.
         23    2    1    2    0    0 -0.51080161490E+02 -0.29494297850E+02 -0.15889554514E+03  0.21061332050E+03  0.12502431765E+03 0.  0.
         23    2    1    2    0    0  0.51080161490E+02  0.29494297850E+02 -0.16205834240E+02  0.10959049154E+03  0.90930469422E+02 0.  0.
          5    1    3    3  502    0 -0.24441011689E+02  0.16839528216E+01  0.16838325065E+02  0.30096809474E+02  0.47000000000E+01 0. -1.
         -5    1    3    3    0  502 -0.26639149801E+02 -0.31178250671E+02 -0.17573387021E+03  0.18051651103E+03  0.47000000000E+01 0. -1.
        -11    1    4    4    0    0  0.57358051356E+02 -0.33208995402E+01 -0.38736774110E+02  0.69292944068E+02  0.00000000000E+00 0.  1.
         11    1    4    4    0    0 -0.62778898657E+01  0.32815197390E+02  0.22530939871E+02  0.40297547473E+02  0.00000000000E+00 0. -1.
<mgrwt>
<rscale>  0 0.13008200E+03</rscale>
<asrwt>0</asrwt>
<pdfrwt beam="1">  1        1 0.11161726E-01 0.13823956E+03</pdfrwt>
<pdfrwt beam="2">  1       -1 0.38100399E-01 0.13823956E+03</pdfrwt>
<totfact> 0.35817795E+03</totfact>
</mgrwt>
</event>
<event>
 8    1  0.1154424E-005  0.1435064E+03  0.7546771E-02  0.1218939E+00
         -1   -1    0    0    0  501 -0.00000000000E+00  0.00000000000E+00  0.34311964904E+03  0.34311964904E+03  0.00000000000E+00 0.  1.
          1   -1    0    0  501    0  0.00000000000E+00 -0.00000000000E+00 -0.11686624467E+03  0.11686624467E+03  0.00000000000E+00 0. -1.
         23    2    1    2    0    0  0.61975677029E+02  0.33584908526E+02  0.29326432089E+03  0.32649356613E+03  0.12500062478E+03 0.  0.
         23    2    1    2    0    0 -0.61975677029E+02 -0.33584908526E+02 -0.67010916520E+02  0.13349232757E+03  0.91437453839E+02 0.  0.
          5    1    3    3  502    0 -0.32586818960E+02  0.85049604951E+01  0.14402123213E+03  0.14798121647E+03  0.47000000000E+01 0. -1.
         -5    1    3    3    0  502  0.94562495988E+02  0.25079948031E+02  0.14924308876E+03  0.17851234966E+03  0.47000000000E+01 0. -1.
        -11    1    4    4    0    0 -0.70314702378E+02 -0.21403543080E+02 -0.83580013575E+02  0.11130088812E+03  0.00000000000E+00 0. -1.
         11    1    4    4    0    0  0.83390253490E+01 -0.12181365446E+02  0.16569097055E+02  0.22191439456E+02  0.00000000000E+00 0.  1.
<mgrwt>
<rscale>  0 0.13591148E+03</rscale>
<asrwt>0</asrwt>
<pdfrwt beam="2">  1        1 0.17979422E-01 0.14350640E+03</pdfrwt>
<pdfrwt beam="1">  1       -1 0.52787638E-01 0.14350640E+03</pdfrwt>
<totfact> 0.10761906E+03</totfact>
</mgrwt>
</event>
<event>
 8    1  0.1154424E-005  0.1468704E+03  0.7546771E-02  0.1217488E+00
          2   -1    0    0  501    0  0.00000000000E+00  0.00000000000E+00  0.26955267980E+03  0.26955267980E+03  0.00000000000E+00 0. -1.
         -2   -1    0    0    0  501 -0.00000000000E+00 -0.00000000000E+00 -0.10197230610E+03  0.10197230610E+03  0.00000000000E+00 0.  1.
         23    2    1    2    0    0  0.65133998455E+02 -0.41265099612E+02 -0.25232578965E+02  0.14902216189E+03  0.12500270194E+03 0.  0.
         23    2    1    2    0    0 -0.65133998455E+02  0.41265099612E+02  0.19281295266E+03  0.22250282401E+03  0.79908859205E+02 0.  0.
          5    1    3    3  502    0  0.79477877061E+02  0.18908318948E+02 -0.29131862153E+02  0.86862033478E+02  0.47000000000E+01 0. -1.
         -5    1    3    3    0  502 -0.14343878606E+02 -0.60173418560E+02  0.38992831882E+01  0.62160128411E+02  0.47000000000E+01 0. -1.
        -11    1    4    4    0    0 -0.47126304545E+02  0.14117410929E+02  0.32612114176E+02  0.59023214606E+02  0.00000000000E+00 0.  1.
         11    1    4    4    0    0 -0.18007693910E+02  0.27147688683E+02  0.16020083849E+03  0.16347960941E+03  0.00000000000E+00 0. -1.
<mgrwt>
<rscale>  0 0.13695381E+03</rscale>
<asrwt>0</asrwt>
<pdfrwt beam="1">  1        2 0.41469643E-01 0.14687042E+03</pdfrwt>
<pdfrwt beam="2">  1       -2 0.15688047E-01 0.14687042E+03</pdfrwt>
<totfact> 0.37746295E+03</totfact>
</mgrwt>
</event>
<event>
 7    1  0.1154424E-005  0.2691935E+03  0.7546771E-02  0.1121206E+00
          1   -1    0    0  501    0  0.00000000000E+00  0.00000000000E+00  0.95329650456E+03  0.95329650456E+03  0.00000000000E+00 0. -1.
         -1   -1    0    0    0  501 -0.00000000000E+00 -0.00000000000E+00 -0.88269963305E+02  0.88269963305E+02  0.00000000000E+00 0.  1.
         23    2    1    2    0    0 -0.17648204673E+02 -0.13822014506E+03  0.71455323555E+03  0.73317162420E+03  0.86821866311E+02 0.  0.
          5    1    1    2  502    0 -0.88122665423E+02  0.27583104475E+02 -0.17481409482E+01  0.92474741473E+02  0.47000000000E+01 0. -1.
         -5    1    1    2    0  502  0.10577087010E+03  0.11063704058E+03  0.15222144666E+03  0.21592010220E+03  0.47000000000E+01 0.  1.
        -11    1    3    3    0    0  0.23088220943E+02 -0.82008787164E+02  0.51230945550E+03  0.51934524674E+03  0.00000000000E+00 0. -1.
         11    1    3    3    0    0 -0.40736425616E+02 -0.56211357895E+02  0.20224378005E+03  0.21382637746E+03  0.00000000000E+00 0.  1.
<mgrwt>
<rscale>  0 0.23789044E+03</rscale>
<asrwt>0</asrwt>
<pdfrwt beam="1">  1        1 0.14666099E+00 0.26919354E+03</pdfrwt>
<pdfrwt beam="2">  1       -1 0.13579995E-01 0.26919354E+03</pdfrwt>
<totfact> 0.65602000E+02</totfact>
</mgrwt>
</event>
<event>
 8    1  0.1154424E-005  0.1303298E+03  0.7546771E-02  0.1240524E+00
         -2   -1    0    0    0  501 -0.00000000000E+00  0.00000000000E+00  0.29403018727E+03  0.29403018727E+03  0.00000000000E+00 0.  1.
          2   -1    0    0  501    0  0.00000000000E+00 -0.00000000000E+00 -0.44654180135E+02  0.44654180135E+02  0.00000000000E+00 0. -1.
         23    2    1    2    0    0 -0.69269191469E+01  0.36257998817E+02  0.14820014710E+03  0.19735535515E+03  0.12499291148E+03 0.  0.
         23    2    1    2    0    0  0.69269191469E+01 -0.36257998817E+02  0.10117586004E+03  0.14132901226E+03  0.91513443622E+02 0.  0.
          5    1    3    3  502    0  0.37030490030E+01  0.72485867553E+02  0.14097112273E+03  0.15862805871E+03  0.47000000000E+01 0.  1.
         -5    1    3    3    0  502 -0.10629968150E+02 -0.36227868736E+02  0.72290243651E+01  0.38727296437E+02  0.47000000000E+01 0.  1.
        -11    1    4    4    0    0 -0.29287565947E+02 -0.50486156539E+02  0.72059389533E+02  0.92731705155E+02  0.00000000000E+00 0.  1.
         11    1    4    4    0    0  0.36214485093E+02  0.14228157722E+02  0.29116470508E+02  0.48597307102E+02  0.00000000000E+00 0. -1.
<mgrwt>
<rscale>  0 0.12157318E+03</rscale>
<asrwt>0</asrwt>
<pdfrwt beam="2">  1        2 0.68698741E-02 0.13032978E+03</pdfrwt>
<pdfrwt beam="1">  1       -2 0.45235412E-01 0.13032978E+03</pdfrwt>
<totfact> 0.46003844E+03</totfact>
</mgrwt>
</event>
<event>
 8    1  0.1154424E-005  0.1405160E+03  0.7546771E-02  0.1222672E+00
          2   -1    0    0  501    0  0.00000000000E+00  0.00000000000E+00  0.80387416671E+03  0.80387416671E+03  0.00000000000E+00 0. -1.
         -2   -1    0    0    0  501 -0.00000000000E+00 -0.00000000000E+00 -0.24254563104E+02  0.24254563104E+02  0.00000000000E+00 0.  1.
         23    2    1    2    0    0 -0.68952852847E+01 -0.63789776408E+02  0.25331633148E+03  0.28967895457E+03  0.12501220897E+03 0.  0.
         23    2    1    2    0    0  0.68952852847E+01  0.63789776408E+02  0.52630327212E+03  0.53844977524E+03  0.93895397531E+02 0.  0.
          5    1    3    3  502    0 -0.25380873745E+02 -0.28587517561E+02  0.24597693767E+03  0.24897425324E+03  0.47000000000E+01 0. -1.
         -5    1    3    3    0  502  0.18485588460E+02 -0.35202258847E+02  0.73393938126E+01  0.40704701328E+02  0.47000000000E+01 0. -1.
        -11    1    4    4    0    0  0.49008183239E+02  0.19892314786E+02  0.24405831854E+03  0.24972378553E+03  0.00000000000E+00 0. -1.
         11    1    4    4    0    0 -0.42112897954E+02  0.43897461622E+02  0.28224495358E+03  0.28872598971E+03  0.00000000000E+00 0.  1.
<mgrwt>
<rscale>  0 0.13327747E+03</rscale>
<asrwt>0</asrwt>
<pdfrwt beam="1">  1        2 0.12367293E+00 0.14051595E+03</pdfrwt>
<pdfrwt beam="2">  1       -2 0.37314719E-02 0.14051595E+03</pdfrwt>
<totfact> 0.10348020E+04</totfact>
</mgrwt>
</event>
<event>
 8    1  0.1154424E-005  0.1403277E+03  0.7546771E-02  0.1223813E+00
         -1   -1    0    0    0  501 -0.00000000000E+00  0.00000000000E+00  0.17021722635E+02  0.17021722635E+02  0.00000000000E+00 0.  1.
          1   -1    0    0  501    0  0.00000000000E+00 -0.00000000000E+00 -0.94686128690E+03  0.94686128690E+03  0.00000000000E+00 0. -1.
         23    2    1    2    0    0 -0.11340186434E+02  0.62756417958E+02 -0.57853728649E+03  0.59531273819E+03  0.12499958625E+03 0.  0.
         23    2    1    2    0    0  0.11340186434E+02 -0.62756417958E+02 -0.35130227777E+03  0.36857027135E+03  0.91453740935E+02 0.  0.
          5    1    3    3  502    0  0.85543377782E+01 -0.31157291920E+02 -0.27476527208E+03  0.27669838864E+03  0.47000000000E+01 0. -1.
         -5    1    3    3    0  502 -0.19894524212E+02  0.93913709878E+02 -0.30377201441E+03  0.31861434955E+03  0.47000000000E+01 0. -1.
        -11    1    4    4    0    0  0.49906180702E+02 -0.50517989317E+02 -0.22040920118E+03  0.23156621101E+03  0.00000000000E+00 0.  1.
         11    1    4    4    0    0 -0.38565994268E+02 -0.12238428641E+02 -0.13089307659E+03  0.13700406033E+03  0.00000000000E+00 0. -1.
<mgrwt>
<rscale>  0 0.13248593E+03</rscale>
<asrwt>0</asrwt>
<pdfrwt beam="2">  1        1 0.14567098E+00 0.14032770E+03</pdfrwt>
<pdfrwt beam="1">  1       -1 0.26187263E-02 0.14032770E+03</pdfrwt>
<totfact> 0.78463437E+03</totfact>
</mgrwt>
</event>
<event>
 8    1  0.1154424E-005  0.1622219E+03  0.7546771E-02  0.1193761E+00
         -1   -1    0    0    0  501 -0.00000000000E+00  0.00000000000E+00  0.93921087327E+02  0.93921087327E+02  0.00000000000E+00 0.  1.
          1   -1    0    0  501    0  0.00000000000E+00 -0.00000000000E+00 -0.24697395705E+03  0.24697395705E+03  0.00000000000E+00 0. -1.
         23    2    1    2    0    0 -0.10034934985E+03 -0.24908526873E+02 -0.51768111284E+02  0.17028177861E+03  0.12500208020E+03 0.  0.
         23    2    1    2    0    0  0.10034934985E+03  0.24908526873E+02 -0.10128475844E+03  0.17061326577E+03  0.90331929231E+02 0.  0.
          5    1    3    3  502    0 -0.81482594318E+02  0.18944764795E+02  0.17916607226E+02  0.85682040735E+02  0.47000000000E+01 0.  1.
         -5    1    3    3    0  502 -0.18866755528E+02 -0.43853291669E+02 -0.69684718510E+02  0.84599737873E+02  0.47000000000E+01 0.  1.
        -11    1    4    4    0    0  0.34975899992E+02 -0.32653131722E+02 -0.21370897655E+02  0.52404731257E+02  0.00000000000E+00 0.  1.
         11    1    4    4    0    0  0.65373449854E+02  0.57561658595E+02 -0.79913860781E+02  0.11820853451E+03  0.00000000000E+00 0. -1.
<mgrwt>
<rscale>  0 0.15559544E+03</rscale>
<asrwt>0</asrwt>
<pdfrwt beam="2">  1        1 0.37995993E-01 0.16222191E+03</pdfrwt>
<pdfrwt beam="1">  1       -1 0.14449398E-01 0.16222191E+03</pdfrwt>
<totfact> 0.37212417E+03</totfact>
</mgrwt>
</event>
<event>
 7    1  0.1154424E-005  0.6051094E+03  0.7546771E-02  0.1037271E+00
          2   -1    0    0  501    0  0.00000000000E+00  0.00000000000E+00  0.23030609046E+03  0.23030609046E+03  0.00000000000E+00 0. -1.
         -2   -1    0    0    0  501 -0.00000000000E+00 -0.00000000000E+00 -0.10125960571E+04  0.10125960571E+04  0.00000000000E+00 0.  1.
         23    2    1    2    0    0  0.44978034870E+02 -0.93302743091E+02  0.10093944678E+03  0.17227076670E+03  0.93594976648E+02 0.  0.
          5    1    1    2  502    0  0.14189722554E+03  0.11850769196E+02  0.20721123825E+02  0.14396776833E+03  0.47000000000E+01 0. -1.
         -5    1    1    2    0  502 -0.18687526041E+03  0.81451973894E+02 -0.90395053725E+03  0.92666361254E+03  0.47000000000E+01 0.  1.
        -11    1    3    3    0    0  0.66168581048E+02 -0.90719185705E+02  0.63038839727E+02  0.12877168589E+03  0.00000000000E+00 0.  1.
         11    1    3    3    0    0 -0.21190546178E+02 -0.25835573857E+01  0.37900607058E+02  0.43499080811E+02  0.00000000000E+00 0. -1.
<mgrwt>
<rscale>  0 0.41937019E+03</rscale>
<asrwt>0</asrwt>
<pdfrwt beam="1">  1        2 0.35431707E-01 0.60510938E+03</pdfrwt>
<pdfrwt beam="2">  1       -2 0.15578401E+00 0.60510938E+03</pdfrwt>
<totfact> 0.40808507E+01</totfact>
</mgrwt>
</event>
<event>
 6    1  0.1154424E-005  0.3246008E+03  0.7546771E-02  0.1133193E+00
         -1   -1    0    0    0  501 -0.00000000000E+00  0.00000000000E+00  0.68721777370E+02  0.68721777370E+02  0.00000000000E+00 0.  1.
          1   -1    0    0  501    0  0.00000000000E+00 -0.00000000000E+00 -0.62684539493E+03  0.62684539493E+03  0.00000000000E+00 0. -1.
          5    1    1    2  502    0  0.12241921819E+01 -0.14291965451E+03 -0.29578244710E+03  0.32853747473E+03  0.47000000000E+01 0. -1.
         -5    1    1    2    0  502  0.46307620706E+02  0.13297720589E+03 -0.60175829203E+02  0.15320102298E+03  0.47000000000E+01 0.  1.
        -11    1    1    2    0    0  0.10006363724E+02  0.20612510161E+01 -0.17695023690E+02  0.20432570424E+02  0.00000000000E+00 0. -1.
         11    1    1    2    0    0 -0.57538176612E+02  0.78811976001E+01 -0.18447031758E+03  0.19339610417E+03  0.00000000000E+00 0.  1.
<mgrwt>
<rscale>  0 0.22092808E+03</rscale>
<asrwt>0</asrwt>
<pdfrwt beam="2">  1        1 0.96437753E-01 0.32460081E+03</pdfrwt>
<pdfrwt beam="1">  1       -1 0.10572581E-01 0.32460081E+03</pdfrwt>
<totfact> 0.18496467E+03</totfact>
</mgrwt>
</event>
<event>
 8    1  0.1154424E-005  0.2285323E+03  0.7546771E-02  0.1130835E+00
          2   -1    0    0  501    0  0.00000000000E+00  0.00000000000E+00  0.55952959781E+03  0.55952959781E+03  0.00000000000E+00 0. -1.
         -2   -1    0    0    0  501 -0.00000000000E+00 -0.00000000000E+00 -0.10257086650E+03  0.10257086650E+03  0.00000000000E+00 0.  1.
         23    2    1    2    0    0  0.18371658106E+03 -0.53397704862E+02  0.10498764140E+03  0.25149439684E+03  0.12499571895E+03 0.  0.
         23    2    1    2    0    0 -0.18371658106E+03  0.53397704862E+02  0.35197108990E+03  0.41060606747E+03  0.90058855603E+02 0.  0.
          5    1    3    3  502    0  0.34034983079E+02 -0.55374702285E+02  0.73907634552E+02  0.98535101215E+02  0.47000000000E+01 0.  1.
         -5    1    3    3    0  502  0.14968159798E+03  0.19769974230E+01  0.31080006851E+02  0.15295929563E+03  0.47000000000E+01 0.  1.
        -11    1    4    4    0    0 -0.15811121944E+03  0.16007689344E+02  0.22244337697E+03  0.27337969893E+03  0.00000000000E+00 0.  1.
         11    1    4    4    0    0 -0.25605361626E+02  0.37390015519E+02  0.12952771293E+03  0.13722636853E+03  0.00000000000E+00 0. -1.
<mgrwt>
<rscale>  0 0.22413816E+03</rscale>
<asrwt>0</asrwt>
<pdfrwt beam="1">  1        2 0.86081475E-01 0.22853233E+03</pdfrwt>
<pdfrwt beam="2">  1       -2 0.15780134E-01 0.22853233E+03</pdfrwt>
<totfact> 0.17156029E+03</totfact>
</mgrwt>
</event>
<event>
 8    1  0.1154424E-005  0.1380635E+03  0.7546771E-02  0.1227110E+00
         -2   -1    0    0    0  501 -0.00000000000E+00  0.00000000000E+00  0.21282614696E+02  0.21282614696E+02  0.00000000000E+00 0.  1.
          2   -1    0    0  501    0  0.00000000000E+00 -0.00000000000E+00 -0.71943075115E+03  0.71943075115E+03  0.00000000000E+00 0. -1.
         23    2    1    2    0    0 -0.39394000735E+02 -0.43415630310E+02 -0.40047632403E+03  0.42360691023E+03  0.12499889614E+03 0.  0.
         23    2    1    2    0    0  0.39394000735E+02  0.43415630310E+02 -0.29767181242E+03  0.31710645561E+03  0.92256121926E+02 0.  0.
          5    1    3    3  502    0 -0.53860224135E+02  0.21045024026E+02 -0.97326300017E+02  0.11330629045E+03  0.47000000000E+01 0. -1.
         -5    1    3    3    0  502  0.14466223400E+02 -0.64460654337E+02 -0.30315002402E+03  0.31030061978E+03  0.47000000000E+01 0. -1.
        -11    1    4    4    0    0  0.52560080342E+02  0.99102377886E+01 -0.25820889349E+03  0.26369036299E+03  0.00000000000E+00 0. -1.
         11    1    4    4    0    0 -0.13166079607E+02  0.33505392522E+02 -0.39462918933E+02  0.53416092622E+02  0.00000000000E+00 0.  1.
<mgrwt>
<rscale>  0 0.13023300E+03</rscale>
<asrwt>0</asrwt>
<pdfrwt beam="2">  1        2 0.11068165E+00 0.13806349E+03</pdfrwt>
<pdfrwt beam="1">  1       -2 0.32742486E-02 0.13806349E+03</pdfrwt>
<totfact> 0.14362371E+04</totfact>
</mgrwt>
</event>
<event>
 8    1  0.1154424E-005  0.1455903E+03  0.7546771E-02  0.1216681E+00
         -1   -1    0    0    0  501 -0.00000000000E+00  0.00000000000E+00  0.30857783126E+02  0.30857783126E+02  0.00000000000E+00 0.  1.
          1   -1    0    0  501    0  0.00000000000E+00 -0.00000000000E+00 -0.62212956081E+03  0.62212956081E+03  0.00000000000E+00 0. -1.
         23    2    1    2    0    0  0.30601130943E+02 -0.68072919555E+02 -0.21821022466E+03  0.26232084730E+03  0.12500469267E+03 0.  0.
         23    2    1    2    0    0 -0.30601130943E+02  0.68072919555E+02 -0.37306155303E+03  0.39066649664E+03  0.88741408930E+02 0.  0.
          5    1    3    3  502    0  0.43614557296E+02  0.73097189232E+01 -0.18061211855E+02  0.47999572628E+02  0.47000000000E+01 0. -1.
         -5    1    3    3    0  502 -0.13013426353E+02 -0.75382638479E+02 -0.20014901280E+03  0.21432127467E+03  0.47000000000E+01 0. -1.
        -11    1    4    4    0    0  0.22629285355E+02  0.44790931995E+02 -0.10492971281E+03  0.11631232426E+03  0.00000000000E+00 0.  1.
         11    1    4    4    0    0 -0.53230416298E+02  0.23281987560E+02 -0.26813184021E+03  0.27435417238E+03  0.00000000000E+00 0. -1.
<mgrwt>
<rscale>  0 0.13753744E+03</rscale>
<asrwt>0</asrwt>
<pdfrwt beam="2">  1        1 0.95712232E-01 0.14559026E+03</pdfrwt>
<pdfrwt beam="1">  1       -1 0.47473516E-02 0.14559026E+03</pdfrwt>
<totfact> 0.61529367E+03</totfact>
</mgrwt>
</event>
<event>
 8    1  0.1154424E-005  0.1175284E+03  0.7546771E-02  0.1258754E+00
          1   -1    0    0  501    0  0.00000000000E+00  0.00000000000E+00  0.22662769512E+03  0.22662769512E+03  0.00000000000E+00 0. -1.
         -1   -1    0    0    0  501 -0.00000000000E+00 -0.00000000000E+00 -0.63812170848E+03  0.63812170848E+03  0.00000000000E+00 0.  1.
         23    2    1    2    0    0  0.70803373675E+01 -0.26044047520E+02 -0.62274890899E+03  0.63374216562E+03  0.11438752225E+03 0.  0.
         23    2    1    2    0    0 -0.70803373675E+01  0.26044047520E+02  0.21125489563E+03  0.23100723798E+03  0.89483459263E+02 0.  0.
          5    1    3    3  502    0 -0.30282926289E+02  0.12111210351E+02 -0.60063507947E+02  0.68508773363E+02  0.47000000000E+01 0. -1.
         -5    1    3    3    0  502  0.37363263657E+02 -0.38155257871E+02 -0.56268540105E+03  0.56523339226E+03  0.47000000000E+01 0.  1.
        -11    1    4    4    0    0  0.13212394657E+02 -0.24054756312E+02  0.13361679301E+03  0.13640618039E+03  0.00000000000E+00 0.  1.
         11    1    4    4    0    0 -0.20292732025E+02  0.50098803832E+02  0.77638102616E+02  0.94601057585E+02  0.00000000000E+00 0. -1.
<mgrwt>
<rscale>  0 0.11098632E+03</rscale>
<asrwt>0</asrwt>
<pdfrwt beam="1">  1        1 0.34865800E-01 0.11752842E+03</pdfrwt>
<pdfrwt beam="2">  1       -1 0.98172568E-01 0.11752842E+03</pdfrwt>
<totfact> 0.13615022E+02</totfact>
</mgrwt>
</event>
<event>
 8    1  0.1154424E-005  0.1338738E+03  0.7546771E-02  0.1234857E+00
          1   -1    0    0  501    0  0.00000000000E+00  0.00000000000E+00  0.73169294311E+02  0.73169294311E+02  0.00000000000E+00 0. -1.
         -1   -1    0    0    0  501 -0.00000000000E+00 -0.00000000000E+00 -0.19724727863E+03  0.19724727863E+03  0.00000000000E+00 0.  1.
         23    2    1    2    0    0  0.45979770556E+02 -0.13285417807E+02 -0.95023281033E+02  0.16416943984E+03  0.12502615492E+03 0.  0.
         23    2    1    2    0    0 -0.45979770556E+02  0.13285417807E+02 -0.29054703284E+02  0.10624713310E+03  0.90297485465E+02 0.  0.
          5    1    3    3  502    0  0.83927501872E+02 -0.80936994914E-01 -0.33393888987E+02  0.90449289345E+02  0.47000000000E+01 0. -1.
         -5    1    3    3    0  502 -0.37947731316E+02 -0.13204480812E+02 -0.61629392046E+02  0.73720150499E+02  0.47000000000E+01 0. -1.
        -11    1    4    4    0    0  0.15102791499E+01 -0.11169256335E+02  0.26731769893E+02  0.29010700643E+02  0.00000000000E+00 0. -1.
         11    1    4    4    0    0 -0.47490049706E+02  0.24454674142E+02 -0.55786473177E+02  0.77236432452E+02  0.00000000000E+00 0.  1.
<mgrwt>
<rscale>  0 0.12513574E+03</rscale>
<asrwt>0</asrwt>
<pdfrwt beam="1">  1        1 0.11256815E-01 0.13387375E+03</pdfrwt>
<pdfrwt beam="2">  1       -1 0.30345735E-01 0.13387375E+03</pdfrwt>
<totfact> 0.52161238E+03</totfact>
</mgrwt>
</event>
<event>
 8    1  0.1154424E-005  0.1475700E+03  0.7546771E-02  0.1215016E+00
          2   -1    0    0  501    0  0.00000000000E+00  0.00000000000E+00  0.31352811868E+03  0.31352811868E+03  0.00000000000E+00 0.  1.
         -2   -1    0    0    0  501 -0.00000000000E+00 -0.00000000000E+00 -0.57409163054E+02  0.57409163054E+02  0.00000000000E+00 0. -1.
         23    2    1    2    0    0 -0.53382298924E+02  0.57457902726E+02  0.10633253502E+03  0.18188875379E+03  0.12500332126E+03 0.  0.
         23    2    1    2    0    0  0.53382298924E+02 -0.57457902726E+02  0.14978642060E+03  0.18904852794E+03  0.84571234456E+02 0.  0.
          5    1    3    3  502    0 -0.27147510378E+02 -0.24680548945E+02  0.85351694221E+02  0.93022139958E+02  0.47000000000E+01 0.  1.
         -5    1    3    3    0  502 -0.26234788546E+02  0.82138451671E+02  0.20980840802E+02  0.88866613830E+02  0.47000000000E+01 0.  1.
        -11    1    4    4    0    0 -0.89361686841E+01 -0.17238183562E+02  0.94672475275E+02  0.96643094207E+02  0.00000000000E+00 0.  1.
         11    1    4    4    0    0  0.62318467608E+02 -0.40219719164E+02  0.55113945323E+02  0.92405433735E+02  0.00000000000E+00 0. -1.
<mgrwt>
<rscale>  0 0.13875346E+03</rscale>
<asrwt>0</asrwt>
<pdfrwt beam="1">  1        2 0.48235094E-01 0.14757002E+03</pdfrwt>
<pdfrwt beam="2">  1       -2 0.88321791E-02 0.14757002E+03</pdfrwt>
<totfact> 0.80564012E+03</totfact>
</mgrwt>
</event>
<event>
 8    1  0.1154424E-005  0.1284251E+03  0.7546771E-02  0.1245059E+00
         -1   -1    0    0    0  501 -0.00000000000E+00  0.00000000000E+00  0.26139198533E+02  0.26139198533E+02  0.00000000000E+00 0.  1.
          1   -1    0    0  501    0  0.00000000000E+00 -0.00000000000E+00 -0.47398430464E+03  0.47398430464E+03  0.00000000000E+00 0. -1.
         23    2    1    2    0    0 -0.25707535064E+02  0.14412512167E+02 -0.26554568586E+03  0.29497036600E+03  0.12499763066E+03 0.  0.
         23    2    1    2    0    0  0.25707535064E+02 -0.14412512167E+02 -0.18229942025E+03  0.20515313717E+03  0.89365167736E+02 0.  0.
          5    1    3    3  502    0  0.32024207024E+02  0.49861910157E+02 -0.10514395106E+03  0.12078534830E+03  0.47000000000E+01 0. -1.
         -5    1    3    3    0  502 -0.57731742088E+02 -0.35449397990E+02 -0.16040173480E+03  0.17418501770E+03  0.47000000000E+01 0. -1.
        -11    1    4    4    0    0  0.41485062545E+02 -0.12619616557E+02 -0.18413182286E+03  0.18916869013E+03  0.00000000000E+00 0. -1.
         11    1    4    4    0    0 -0.15777527480E+02 -0.17928956105E+01  0.18324026099E+01  0.15984447047E+02  0.00000000000E+00 0.  1.
<mgrwt>
<rscale>  0 0.11881858E+03</rscale>
<asrwt>0</asrwt>
<pdfrwt beam="2">  1        1 0.72920657E-01 0.12842510E+03</pdfrwt>
<pdfrwt beam="1">  1       -1 0.40214154E-02 0.12842510E+03</pdfrwt>
<totfact> 0.11189553E+04</totfact>
</mgrwt>
</event>
<event>
 8    1  0.1154424E-005  0.1463706E+03  0.7546771E-02  0.1215989E+00
          1   -1    0    0  501    0  0.00000000000E+00  0.00000000000E+00  0.10175083508E+04  0.10175083508E+04  0.00000000000E+00 0. -1.
         -1   -1    0    0    0  501 -0.00000000000E+00 -0.00000000000E+00 -0.16917606802E+02  0.16917606802E+02  0.00000000000E+00 0.  1.
         23    2    1    2    0    0 -0.39887656145E+02  0.63095267418E+02  0.53653418926E+03  0.55614143686E+03  0.12590601120E+03 0.  0.
         23    2    1    2    0    0  0.39887656145E+02 -0.63095267418E+02  0.46405655478E+03  0.47828452079E+03  0.88518692442E+02 0.  0.
          5    1    3    3  502    0 -0.82232915535E+02  0.62077286684E+02  0.35558447208E+03  0.37024079827E+03  0.47000000000E+01 0. -1.
         -5    1    3    3    0  502  0.42345259390E+02  0.10179807344E+01  0.18094971718E+03  0.18590063858E+03  0.47000000000E+01 0.  1.
        -11    1    4    4    0    0  0.58058158444E+02 -0.59974283099E+02  0.44066286925E+03  0.44849908442E+03  0.00000000000E+00 0.  1.
         11    1    4    4    0    0 -0.18170502299E+02 -0.31209843195E+01  0.23393685535E+02  0.29785436371E+02  0.00000000000E+00 0. -1.
<mgrwt>
<rscale>  0 0.13804139E+03</rscale>
<asrwt>0</asrwt>
<pdfrwt beam="1">  1        1 0.15653970E+00 0.14637063E+03</pdfrwt>
<pdfrwt beam="2">  1       -1 0.26027095E-02 0.14637063E+03</pdfrwt>
<totfact> 0.70340391E+03</totfact>
</mgrwt>
</event>
<event>
 8    1  0.1154424E-005  0.2874629E+03  0.7546771E-02  0.1093442E+00
         -2   -1    0    0    0  501 -0.00000000000E+00  0.00000000000E+00  0.17807594795E+03  0.17807594795E+03  0.00000000000E+00 0. -1.
          2   -1    0    0  501    0  0.00000000000E+00 -0.00000000000E+00 -0.47098323803E+03  0.47098323803E+03  0.00000000000E+00 0.  1.
         23    2    1    2    0    0 -0.17610008070E+03  0.18973113571E+03 -0.70946670502E+02  0.29608845636E+03  0.12500320658E+03 0.  0.
         23    2    1    2    0    0  0.17610008070E+03 -0.18973113571E+03 -0.22196061957E+03  0.35297072962E+03  0.91173883560E+02 0.  0.
          5    1    3    3  502    0 -0.35583384478E+01  0.34000537325E+02  0.27006684982E+02  0.43819508722E+02  0.47000000000E+01 0.  1.
         -5    1    3    3    0  502 -0.17254174226E+03  0.15573059839E+03 -0.97953355484E+02  0.25226894764E+03  0.47000000000E+01 0.  1.
        -11    1    4    4    0    0  0.54886528181E+02 -0.11425753129E+03 -0.71464632208E+02  0.14551463187E+03  0.00000000000E+00 0.  1.
         11    1    4    4    0    0  0.12121355252E+03 -0.75473604424E+02 -0.15049598736E+03  0.20745609775E+03  0.00000000000E+00 0. -1.
<mgrwt>
<rscale>  0 0.28415251E+03</rscale>
<asrwt>0</asrwt>
<pdfrwt beam="2">  1        2 0.72458960E-01 0.28746294E+03</pdfrwt>
<pdfrwt beam="1">  1       -2 0.27396300E-01 0.28746294E+03</pdfrwt>
<totfact> 0.80560085E+02</totfact>
</mgrwt>
</event>
<event>
 8    1  0.1154424E-005  0.1264390E+03  0.7546771E-02  0.1245391E+00
          2   -1    0    0  501    0  0.00000000000E+00  0.00000000000E+00  0.31377811909E+03  0.31377811909E+03  0.00000000000E+00 0.  1.
         -2   -1    0    0    0  501 -0.00000000000E+00 -0.00000000000E+00 -0.40391361999E+02  0.40391361999E+02  0.00000000000E+00 0. -1.
         23    2    1    2    0    0  0.72562238175E+01 -0.19205780554E+02  0.13940327609E+03  0.18820227014E+03  0.12476099676E+03 0.  0.
         23    2    1    2    0    0 -0.72562238175E+01  0.19205780554E+02  0.13398348100E+03  0.16596721094E+03  0.95770700822E+02 0.  0.
          5    1    3    3  502    0 -0.56489678270E+02 -0.21407432524E+02  0.51672359452E+02  0.79633439268E+02  0.47000000000E+01 0.  1.
         -5    1    3    3    0  502  0.63745902088E+02  0.22016519696E+01  0.87730916635E+02  0.10856883088E+03  0.47000000000E+01 0.  1.
        -11    1    4    4    0    0  0.39488353169E+02  0.89024594723E+01  0.26706261806E+02  0.48495445563E+02  0.00000000000E+00 0. -1.
         11    1    4    4    0    0 -0.46744576987E+02  0.10303321082E+02  0.10727721920E+03  0.11747176538E+03  0.00000000000E+00 0.  1.
<mgrwt>
<rscale>  0 0.11862007E+03</rscale>
<asrwt>0</asrwt>
<pdfrwt beam="1">  1        2 0.48273555E-01 0.12643900E+03</pdfrwt>
<pdfrwt beam="2">  1       -2 0.62140559E-02 0.12643900E+03</pdfrwt>
<totfact> 0.13658277E+04</totfact>
</mgrwt>
</event>
<event>
 8    1  0.1154424E-005  0.1686993E+03  0.7546771E-02  0.1185628E+00
          2   -1    0    0  501    0  0.00000000000E+00  0.00000000000E+00  0.12566368632E+03  0.12566368632E+03  0.00000000000E+00 0. -1.
         -2   -1    0    0    0  501 -0.00000000000E+00 -0.00000000000E+00 -0.20592000126E+03  0.20592000126E+03  0.00000000000E+00 0.  1.
         23    2    1    2    0    0 -0.17770691689E+02  0.11189269751E+03 -0.76950835046E+02  0.18542081601E+03  0.12499469891E+03 0.  0.
         23    2    1    2    0    0  0.17770691689E+02 -0.11189269751E+03 -0.33054798950E+01  0.14616287157E+03  0.92286974101E+02 0.  0.
          5    1    3    3  502    0  0.38461020585E+02  0.18515085610E+02 -0.61822421053E+02  0.75273901483E+02  0.47000000000E+01 0. -1.
         -5    1    3    3    0  502 -0.56231712274E+02  0.93377611900E+02 -0.15128413992E+02  0.11014691453E+03  0.47000000000E+01 0. -1.
        -11    1    4    4    0    0  0.55192980485E+02 -0.78537013978E+02 -0.26897421502E+01  0.96028966319E+02  0.00000000000E+00 0.  1.
         11    1    4    4    0    0 -0.37422288796E+02 -0.33355683532E+02 -0.61573774476E+00  0.50133905250E+02  0.00000000000E+00 0. -1.
<mgrwt>
<rscale>  0 0.16274829E+03</rscale>
<asrwt>0</asrwt>
<pdfrwt beam="1">  1        2 0.19332875E-01 0.16869928E+03</pdfrwt>
<pdfrwt beam="2">  1       -2 0.31680000E-01 0.16869928E+03</pdfrwt>
<totfact> 0.26084819E+03</totfact>
</mgrwt>
</event>
<event>
 8    1  0.1154424E-005  0.1606696E+03  0.7546771E-02  0.1194234E+00
         -2   -1    0    0    0  501 -0.00000000000E+00  0.00000000000E+00  0.12824642441E+03  0.12824642441E+03  0.00000000000E+00 0.  1.
          2   -1    0    0  501    0  0.00000000000E+00 -0.00000000000E+00 -0.20904506117E+03  0.20904506117E+03  0.00000000000E+00 0. -1.
         23    2    1    2    0    0 -0.10082939044E+03 -0.48270925548E+01  0.24100945615E+02  0.16246715475E+03  0.12499941597E+03 0.  0.
         23    2    1    2    0    0  0.10082939044E+03  0.48270925548E+01 -0.10489958238E+03  0.17482433082E+03  0.96797507539E+02 0.  0.
          5    1    3    3  502    0 -0.11179254793E+03 -0.41906752206E+02  0.63172113894E+01  0.11964843005E+03  0.47000000000E+01 0.  1.
         -5    1    3    3    0  502  0.10963157490E+02  0.37079659651E+02  0.17783734226E+02  0.42818724701E+02  0.47000000000E+01 0.  1.
        -11    1    4    4    0    0  0.21771921648E+02  0.40085201616E+02 -0.10626753212E+02  0.46837675483E+02  0.00000000000E+00 0.  1.
         11    1    4    4    0    0  0.79057468797E+02 -0.35258109061E+02 -0.94272829163E+02  0.12798665534E+03  0.00000000000E+00 0. -1.
<mgrwt>
<rscale>  0 0.15519236E+03</rscale>
<asrwt>0</asrwt>
<pdfrwt beam="2">  1        2 0.32160779E-01 0.16066960E+03</pdfrwt>
<pdfrwt beam="1">  1       -2 0.19730219E-01 0.16066960E+03</pdfrwt>
<totfact> 0.33966409E+03</totfact>
</mgrwt>
</event>
<event>
 8    1  0.1154424E-005  0.1337770E+03  0.7546771E-02  0.1233885E+00
          3   -1    0    0  501    0  0.00000000000E+00  0.00000000000E+00  0.27838969613E+02  0.27838969613E+02  0.00000000000E+00 0. -1.
         -3   -1    0    0    0  501 -0.00000000000E+00 -0.00000000000E+00 -0.51281650816E+03  0.51281650816E+03  0.00000000000E+00 0.  1.
         23    2    1    2    0    0 -0.21692562322E+02  0.42435100858E+02 -0.25147738822E+03  0.28484587442E+03  0.12499996136E+03 0.  0.
         23    2    1    2    0    0  0.21692562322E+02 -0.42435100858E+02 -0.23350015033E+03  0.25580960336E+03  0.92978104527E+02 0.  0.
          5    1    3    3  502    0  0.20151528078E+02 -0.23623054346E+02 -0.13278282808E+02  0.34095975933E+02  0.47000000000E+01 0. -1.
         -5    1    3    3    0  502 -0.41844090400E+02  0.66058155204E+02 -0.23819910541E+03  0.25074989848E+03  0.47000000000E+01 0. -1.
        -11    1    4    4    0    0  0.74136158251E+01 -0.71537103779E+02 -0.16705267551E+03  0.18187664861E+03  0.00000000000E+00 0.  1.
         11    1    4    4    0    0  0.14278946497E+02  0.29102002921E+02 -0.66447474820E+02  0.73932954743E+02  0.00000000000E+00 0. -1.
<mgrwt>
<rscale>  0 0.12576080E+03</rscale>
<asrwt>0</asrwt>
<pdfrwt beam="1">  1        3 0.42829186E-02 0.13377704E+03</pdfrwt>
<pdfrwt beam="2">  1       -3 0.78894843E-01 0.13377704E+03</pdfrwt>
<totfact> 0.10311063E+03</totfact>
</mgrwt>
</event>
<event>
 8    1  0.1154424E-005  0.1293586E+03  0.7546771E-02  0.1237333E+00
          3   -1    0    0  501    0  0.00000000000E+00  0.00000000000E+00  0.84871793798E+02  0.84871793798E+02  0.00000000000E+00 0. -1.
         -3   -1    0    0    0  501 -0.00000000000E+00 -0.00000000000E+00 -0.19982782957E+03  0.19982782957E+03  0.00000000000E+00 0.  1.
         23    2    1    2    0    0  0.47638176147E+02  0.31996851081E+02 -0.12061386566E+03  0.17686532486E+03  0.11593292993E+03 0.  0.
         23    2    1    2    0    0 -0.47638176147E+02 -0.31996851081E+02  0.56578298911E+01  0.10783429851E+03  0.91120966796E+02 0.  0.
          5    1    3    3  502    0 -0.15794977664E+02  0.12306939626E+02 -0.10692843089E+03  0.10888857339E+03  0.47000000000E+01 0. -1.
         -5    1    3    3    0  502  0.63433153811E+02  0.19689911455E+02 -0.13685434774E+02  0.67976751470E+02  0.47000000000E+01 0.  1.
        -11    1    4    4    0    0 -0.28246044881E+02  0.37969502836E+01  0.43663401614E+02  0.52141619877E+02  0.00000000000E+00 0. -1.
         11    1    4    4    0    0 -0.19392131266E+02 -0.35793801364E+02 -0.38005571723E+02  0.55692678631E+02  0.00000000000E+00 0.  1.
<mgrwt>
<rscale>  0 0.12356230E+03</rscale>
<asrwt>0</asrwt>
<pdfrwt beam="1">  1        3 0.13057199E-01 0.12935857E+03</pdfrwt>
<pdfrwt beam="2">  1       -3 0.30742743E-01 0.12935857E+03</pdfrwt>
<totfact> 0.11038680E+03</totfact>
</mgrwt>
</event>
<event>
 8    1  0.1780305E-005  0.1369156E+03  0.7546771E-02  0.1229371E+00
         -2   -1    0    0    0  501 -0.00000000000E+00  0.00000000000E+00  0.93139929510E+02  0.93139929510E+02  0.00000000000E+00 0.  1.
          2   -1    0    0  501    0  0.00000000000E+00 -0.00000000000E+00 -0.15975555520E+03  0.15975555520E+03  0.00000000000E+00 0. -1.
         23    2    1    2    0    0 -0.46929636003E+02  0.30314852337E+02 -0.40886495540E+02  0.14289016383E+03  0.12499804957E+03 0.  0.
         23    2    1    2    0    0  0.46929636003E+02 -0.30314852337E+02 -0.25729130150E+02  0.11000532088E+03  0.91201981751E+02 0.  0.
          5    1    3    3  502    0 -0.43246425908E+02  0.37417569856E+02  0.34488060556E+02  0.66946577274E+02  0.47000000000E+01 0.  1.
         -5    1    3    3    0  502 -0.36832100946E+01 -0.71027175199E+01 -0.75374556096E+02  0.75943586559E+02  0.47000000000E+01 0.  1.
        -11    1    4    4    0    0  0.18030150562E+02 -0.51625634128E+01  0.34125294890E+02  0.38939364936E+02  0.00000000000E+00 0.  1.
         11    1    4    4    0    0  0.28899485441E+02 -0.25152288924E+02 -0.59854425040E+02  0.71065955940E+02  0.00000000000E+00 0. -1.
<mgrwt>
<rscale>  0 0.12871797E+03</rscale>
<asrwt>0</asrwt>
<pdfrwt beam="2">  1        2 0.24577777E-01 0.13691564E+03</pdfrwt>
<pdfrwt beam="1">  1       -2 0.14329220E-01 0.13691564E+03</pdfrwt>
<totfact> 0.76735843E+03</totfact>
</mgrwt>
</event>
<event>
 8    1  0.1154424E-005  0.1469493E+03  0.7546771E-02  0.1214607E+00
          1   -1    0    0  501    0  0.00000000000E+00  0.00000000000E+00  0.67747888813E+02  0.67747888813E+02  0.00000000000E+00 0.  1.
         -1   -1    0    0    0  501 -0.00000000000E+00 -0.00000000000E+00 -0.26750143925E+03  0.26750143925E+03  0.00000000000E+00 0. -1.
         23    2    1    2    0    0  0.29367174644E+02  0.71443773018E+02 -0.14073159583E+03  0.20346864872E+03  0.12500986080E+03 0.  0.
         23    2    1    2    0    0 -0.29367174644E+02 -0.71443773018E+02 -0.59021954608E+02  0.13178067934E+03  0.88971414916E+02 0.  0.
          5    1    3    3  502    0 -0.27513846133E+02  0.60844142897E+02 -0.20587891476E+02  0.70035510488E+02  0.47000000000E+01 0.  1.
         -5    1    3    3    0  502  0.56881020777E+02  0.10599630121E+02 -0.12014370435E+03  0.13343313823E+03  0.47000000000E+01 0.  1.
        -11    1    4    4    0    0 -0.26665555896E+02 -0.90271094981E+02 -0.33414322950E+02  0.99882127723E+02  0.00000000000E+00 0.  1.
         11    1    4    4    0    0 -0.27016187481E+01  0.18827321963E+02 -0.25607631658E+02  0.31898551617E+02  0.00000000000E+00 0. -1.
<mgrwt>
<rscale>  0 0.13905430E+03</rscale>
<asrwt>0</asrwt>
<pdfrwt beam="1">  1        1 0.10422752E-01 0.14694934E+03</pdfrwt>
<pdfrwt beam="2">  1       -1 0.41154068E-01 0.14694934E+03</pdfrwt>
<totfact> 0.34373531E+03</totfact>
</mgrwt>
</event>
<event>
 8    1  0.1154424E-005  0.1267167E+03  0.7546771E-02  0.1246980E+00
         -2   -1    0    0    0  501 -0.00000000000E+00  0.00000000000E+00  0.10784365850E+04  0.10784365850E+04  0.00000000000E+00 0.  1.
          2   -1    0    0  501    0  0.00000000000E+00 -0.00000000000E+00 -0.12547466250E+02  0.12547466250E+02  0.00000000000E+00 0. -1.
         23    2    1    2    0    0  0.10795687157E+02  0.17756250800E+02  0.77266212578E+03  0.78298395524E+03  0.12500112898E+03 0.  0.
         23    2    1    2    0    0 -0.10795687157E+02 -0.17756250800E+02  0.29322699300E+03  0.30800009604E+03  0.91924743309E+02 0.  0.
          5    1    3    3  502    0 -0.41540193386E+02  0.21177087862E+02  0.61454126272E+03  0.61632549055E+03  0.47000000000E+01 0.  1.
         -5    1    3    3    0  502  0.52335880543E+02 -0.34208370619E+01  0.15812086306E+03  0.16665846469E+03  0.47000000000E+01 0.  1.
        -11    1    4    4    0    0 -0.45192795674E+02  0.13086805825E+02  0.17023497001E+03  0.17661709510E+03  0.00000000000E+00 0.  1.
         11    1    4    4    0    0  0.34397108517E+02 -0.30843056625E+02  0.12299202299E+03  0.13138300093E+03  0.00000000000E+00 0. -1.
<mgrwt>
<rscale>  0 0.11767632E+03</rscale>
<asrwt>0</asrwt>
<pdfrwt beam="2">  1        2 0.19303803E-02 0.12671667E+03</pdfrwt>
<pdfrwt beam="1">  1       -2 0.16591325E+00 0.12671667E+03</pdfrwt>
<totfact> 0.13400737E+03</totfact>
</mgrwt>
</event>
<event>
 8    1  0.1154424E-005  0.1646234E+03  0.7546771E-02  0.1189319E+00
         -1   -1    0    0    0  501 -0.00000000000E+00  0.00000000000E+00  0.10382339847E+04  0.10382339847E+04  0.00000000000E+00 0.  1.
          1   -1    0    0  501    0  0.00000000000E+00 -0.00000000000E+00 -0.29174905665E+02  0.29174905665E+02  0.00000000000E+00 0. -1.
         23    2    1    2    0    0 -0.10644875120E+03 -0.11930552139E+02  0.77376976903E+03  0.79108818809E+03  0.12500876437E+03 0.  0.
         23    2    1    2    0    0  0.10644875120E+03  0.11930552139E+02  0.23528931004E+03  0.27632070231E+03  0.97562269331E+02 0.  0.
          5    1    3    3  502    0 -0.11349629188E+03 -0.21023109479E+02  0.76923255528E+03  0.77785872336E+03  0.47000000000E+01 0.  1.
         -5    1    3    3    0  502  0.70475406722E+01  0.90925573406E+01  0.45372137466E+01  0.13229464732E+02  0.47000000000E+01 0.  1.
        -11    1    4    4    0    0 -0.54457462511E+00 -0.26968803440E+02  0.23073234137E+02  0.35496296343E+02  0.00000000000E+00 0. -1.
         11    1    4    4    0    0  0.10699332583E+03  0.38899355578E+02  0.21221607591E+03  0.24082440597E+03  0.00000000000E+00 0.  1.
<mgrwt>
<rscale>  0 0.15945039E+03</rscale>
<asrwt>0</asrwt>
<pdfrwt beam="2">  1        1 0.44884478E-02 0.16462341E+03</pdfrwt>
<pdfrwt beam="1">  1       -1 0.15972828E+00 0.16462341E+03</pdfrwt>
<totfact> 0.61483132E+02</totfact>
</mgrwt>
</event>
<event>
 8    1  0.1154424E-005  0.1173763E+03  0.7546771E-02  0.1258495E+00
         -1   -1    0    0    0  501 -0.00000000000E+00  0.00000000000E+00  0.55053877487E+02  0.55053877487E+02  0.00000000000E+00 0.  1.
          1   -1    0    0  501    0  0.00000000000E+00 -0.00000000000E+00 -0.20386479031E+03  0.20386479031E+03  0.00000000000E+00 0. -1.
         23    2    1    2    0    0 -0.19222338185E+02 -0.27151348589E+01 -0.76954620351E+02  0.14035384402E+03  0.11575974125E+03 0.  0.
         23    2    1    2    0    0  0.19222338185E+02  0.27151348589E+01 -0.71856292472E+02  0.11856482378E+03  0.92289871749E+02 0.  0.
          5    1    3    3  502    0 -0.42469491703E+02  0.44405132334E+02 -0.57029003958E+02  0.83963508714E+02  0.47000000000E+01 0. -1.
         -5    1    3    3    0  502  0.23247153518E+02 -0.47120267193E+02 -0.19925616393E+02  0.56390335304E+02  0.47000000000E+01 0.  1.
        -11    1    4    4    0    0  0.62606476456E+00 -0.15521629319E+02  0.18715406290E+02  0.24322404618E+02  0.00000000000E+00 0.  1.
         11    1    4    4    0    0  0.18596273420E+02  0.18236764178E+02 -0.90571698762E+02  0.94242419162E+02  0.00000000000E+00 0. -1.
<mgrwt>
<rscale>  0 0.11112816E+03</rscale>
<asrwt>0</asrwt>
<pdfrwt beam="2">  1        1 0.31363814E-01 0.11737627E+03</pdfrwt>
<pdfrwt beam="1">  1       -1 0.84698274E-02 0.11737627E+03</pdfrwt>
<totfact> 0.10501186E+04</totfact>
</mgrwt>
</event>
<event>
 8    1  0.1154424E-005  0.1209168E+03  0.7546771E-02  0.1250732E+00
          1   -1    0    0  501    0  0.00000000000E+00  0.00000000000E+00  0.15726718875E+03  0.15726718875E+03  0.00000000000E+00 0. -1.
         -1   -1    0    0    0  501 -0.00000000000E+00 -0.00000000000E+00 -0.81094507175E+02  0.81094507175E+02  0.00000000000E+00 0.  1.
         23    2    1    2    0    0 -0.41654526073E+02 -0.14436333719E+02  0.18322782768E+02  0.12229714449E+03  0.11259378272E+03 0.  0.
         23    2    1    2    0    0  0.41654526073E+02  0.14436333719E+02  0.57849898812E+02  0.11606455144E+03  0.90448117919E+02 0.  0.
          5    1    3    3  502    0  0.32310077490E+02 -0.29075966109E+02  0.16497975469E+02  0.46729285327E+02  0.47000000000E+01 0. -1.
         -5    1    3    3    0  502 -0.73964603563E+02  0.14639632389E+02  0.18248072987E+01  0.75567859163E+02  0.47000000000E+01 0.  1.
        -11    1    4    4    0    0  0.42204675419E+02  0.45585903355E+02  0.16472992777E+02  0.64270278535E+02  0.00000000000E+00 0.  1.
         11    1    4    4    0    0 -0.55014934650E+00 -0.31149569636E+02  0.41376906035E+02  0.51794272906E+02  0.00000000000E+00 0. -1.
<mgrwt>
<rscale>  0 0.11548775E+03</rscale>
<asrwt>0</asrwt>
<pdfrwt beam="1">  1        1 0.24194952E-01 0.12091678E+03</pdfrwt>
<pdfrwt beam="2">  1       -1 0.12476078E-01 0.12091678E+03</pdfrwt>
<totfact> 0.80569387E+03</totfact>
</mgrwt>
</event>
<event>
 8    1  0.1154424E-005  0.1385988E+03  0.7546771E-02  0.1226956E+00
         -1   -1    0    0    0  501 -0.00000000000E+00  0.00000000000E+00  0.37166592301E+02  0.37166592301E+02  0.00000000000E+00 0.  1.
          1   -1    0    0  501    0  0.00000000000E+00 -0.00000000000E+00 -0.43132939736E+03  0.43132939736E+03  0.00000000000E+00 0. -1.
         23    2    1    2    0    0  0.15119834302E+02 -0.57935219478E+02 -0.16871513288E+03  0.21834470731E+03  0.12499806440E+03 0.  0.
         23    2    1    2    0    0 -0.15119834302E+02  0.57935219478E+02 -0.22544767217E+03  0.25015128235E+03  0.90354369708E+02 0.  0.
          5    1    3    3  502    0  0.27472577516E+02  0.32262311926E+02 -0.82535438515E+02  0.92896651699E+02  0.47000000000E+01 0. -1.
         -5    1    3    3    0  502 -0.12352743214E+02 -0.90197531404E+02 -0.86179694369E+02  0.12544805562E+03  0.47000000000E+01 0. -1.
        -11    1    4    4    0    0  0.22822279091E+02  0.55903191935E+02 -0.82477662388E+02  0.10221833536E+03  0.00000000000E+00 0.  1.
         11    1    4    4    0    0 -0.37942113393E+02  0.20320275427E+01 -0.14297000979E+03  0.14793294698E+03  0.00000000000E+00 0. -1.
<mgrwt>
<rscale>  0 0.13033758E+03</rscale>
<asrwt>0</asrwt>
<pdfrwt beam="2">  1        1 0.66358367E-01 0.13859876E+03</pdfrwt>
<pdfrwt beam="1">  1       -1 0.57179374E-02 0.13859876E+03</pdfrwt>
<totfact> 0.75482235E+03</totfact>
</mgrwt>
</event>
<event>
 8    1  0.1154424E-005  0.1302685E+03  0.7546771E-02  0.1240891E+00
          1   -1    0    0  501    0  0.00000000000E+00  0.00000000000E+00  0.64051739065E+02  0.64051739065E+02  0.00000000000E+00 0. -1.
         -1   -1    0    0    0  501 -0.00000000000E+00 -0.00000000000E+00 -0.22573255757E+03  0.22573255757E+03  0.00000000000E+00 0.  1.
         23    2    1    2    0    0  0.24575496041E+02  0.27227664467E+02 -0.13614915228E+03  0.18843162763E+03  0.12499834361E+03 0.  0.
         23    2    1    2    0    0 -0.24575496041E+02 -0.27227664467E+02 -0.25531666224E+02  0.10135266901E+03  0.90968108791E+02 0.  0.
          5    1    3    3  502    0  0.59611207012E+02  0.53237200607E+02 -0.58210854840E+02  0.98986307897E+02  0.47000000000E+01 0. -1.
         -5    1    3    3    0  502 -0.35035710971E+02 -0.26009536139E+02 -0.77938297444E+02  0.89445319732E+02  0.47000000000E+01 0. -1.
        -11    1    4    4    0    0  0.33244723381E+02 -0.12966905995E+02  0.20075940892E+01  0.35740491291E+02  0.00000000000E+00 0.  1.
         11    1    4    4    0    0 -0.57820219422E+02 -0.14260758473E+02 -0.27539260313E+02  0.65612177717E+02  0.00000000000E+00 0. -1.
<mgrwt>
<rscale>  0 0.12134707E+03</rscale>
<asrwt>0</asrwt>
<pdfrwt beam="1">  1        1 0.98541137E-02 0.13026852E+03</pdfrwt>
<pdfrwt beam="2">  1       -1 0.34728086E-01 0.13026852E+03</pdfrwt>
<totfact> 0.49374655E+03</totfact>
</mgrwt>
</event>
<event>
 7    1  0.1154424E-005  0.1348220E+03  0.7546771E-02  0.1237096E+00
         -2   -1    0    0    0  501 -0.00000000000E+00  0.00000000000E+00  0.90932523849E+02  0.90932523849E+02  0.00000000000E+00 0.  1.
          2   -1    0    0  501    0  0.00000000000E+00 -0.00000000000E+00 -0.16129145594E+03  0.16129145594E+03  0.00000000000E+00 0. -1.
         23    2    1    2    0    0 -0.99823824154E+01 -0.23990513501E+02 -0.68143193902E+02  0.11738376735E+03  0.91979678544E+02 0.  0.
          5    1    1    2  502    0 -0.34287876204E+01 -0.76560592876E+01 -0.63604666541E+02  0.64327408110E+02  0.47000000000E+01 0. -1.
         -5    1    1    2    0  502  0.13411170036E+02  0.31646572789E+02  0.61388928350E+02  0.70512804333E+02  0.47000000000E+01 0.  1.
        -11    1    3    3    0    0 -0.48252288018E+02 -0.29078232470E+02 -0.33706462413E+02  0.65650228568E+02  0.00000000000E+00 0.  1.
         11    1    3    3    0    0  0.38269905603E+02  0.50877189696E+01 -0.34436731489E+02  0.51733538781E+02  0.00000000000E+00 0. -1.
<mgrwt>
<rscale>  0 0.12371201E+03</rscale>
<asrwt>0</asrwt>
<pdfrwt beam="2">  1        2 0.24814070E-01 0.13482201E+03</pdfrwt>
<pdfrwt beam="1">  1       -2 0.13989619E-01 0.13482201E+03</pdfrwt>
<totfact> 0.78857758E+03</totfact>
</mgrwt>
</event>
<event>
 8    1  0.1154424E-005  0.2954805E+03  0.7546771E-02  0.1089185E+00
         -2   -1    0    0    0  501 -0.00000000000E+00  0.00000000000E+00  0.19503234733E+03  0.19503234733E+03  0.00000000000E+00 0.  1.
          2   -1    0    0  501    0  0.00000000000E+00 -0.00000000000E+00 -0.45421815357E+03  0.45421815357E+03  0.00000000000E+00 0. -1.
         23    2    1    2    0    0  0.26514209927E+03 -0.37174984130E+02 -0.55153000485E+02  0.30058369739E+03  0.12500557356E+03 0.  0.
         23    2    1    2    0    0 -0.26514209927E+03  0.37174984130E+02 -0.20403280576E+03  0.34866680351E+03  0.90867165644E+02 0.  0.
          5    1    3    3  502    0  0.20413857458E+02  0.12627129644E+02  0.28130411237E+02  0.37277070911E+02  0.47000000000E+01 0. -1.
         -5    1    3    3    0  502  0.24472824181E+03 -0.49802113775E+02 -0.83283411722E+02  0.26330662647E+03  0.47000000000E+01 0. -1.
        -11    1    4    4    0    0 -0.61551085811E+02 -0.27196913778E+02 -0.32261139552E+02  0.74625661865E+02  0.00000000000E+00 0.  1.
         11    1    4    4    0    0 -0.20359101346E+03  0.64371897908E+02 -0.17177166621E+03  0.27404114164E+03  0.00000000000E+00 0. -1.
<mgrwt>
<rscale>  0 0.29224126E+03</rscale>
<asrwt>0</asrwt>
<pdfrwt beam="2">  1        2 0.69879715E-01 0.29548047E+03</pdfrwt>
<pdfrwt beam="1">  1       -2 0.30004977E-01 0.29548047E+03</pdfrwt>
<totfact> 0.71129798E+02</totfact>
</mgrwt>
</event>
<event>
 8    1  0.1154424E-005  0.1941929E+03  0.7546771E-02  0.1163486E+00
          2   -1    0    0  501    0  0.00000000000E+00  0.00000000000E+00  0.37305031875E+03  0.37305031875E+03  0.00000000000E+00 0. -1.
         -2   -1    0    0    0  501 -0.00000000000E+00 -0.00000000000E+00 -0.89795086637E+02  0.89795086637E+02  0.00000000000E+00 0.  1.
         23    2    1    2    0    0 -0.23638537476E+02  0.14672732851E+03  0.92987033440E+02  0.21530786882E+03  0.12499280219E+03 0.  0.
         23    2    1    2    0    0  0.23638537476E+02 -0.14672732851E+03  0.19026819867E+03  0.24753753657E+03  0.54636573806E+02 0.  0.
          5    1    3    3  502    0 -0.23744971982E+01  0.16528446026E+03  0.82779655275E+02  0.18493012834E+03  0.47000000000E+01 0.  1.
         -5    1    3    3    0  502 -0.21264040278E+02 -0.18557131745E+02  0.10207378165E+02  0.30377740478E+02  0.47000000000E+01 0.  1.
        -11    1    4    4    0    0  0.12317139442E+02 -0.53553690658E+02  0.32165669310E+02  0.63673699353E+02  0.00000000000E+00 0.  1.
         11    1    4    4    0    0  0.11321398034E+02 -0.93173637857E+02  0.15810252936E+03  0.18386383721E+03  0.00000000000E+00 0. -1.
<mgrwt>
<rscale>  0 0.18453362E+03</rscale>
<asrwt>0</asrwt>
<pdfrwt beam="1">  1        2 0.57392356E-01 0.19419292E+03</pdfrwt>
<pdfrwt beam="2">  1       -2 0.13814629E-01 0.19419292E+03</pdfrwt>
<totfact> 0.33265692E+03</totfact>
</mgrwt>
</event>
<event>
 7    1  0.1154424E-005  0.2561185E+03  0.7546771E-02  0.1132534E+00
          1   -1    0    0  501    0  0.00000000000E+00  0.00000000000E+00  0.26726005182E+02  0.26726005182E+02  0.00000000000E+00 0. -1.
         -1   -1    0    0    0  501 -0.00000000000E+00 -0.00000000000E+00 -0.18509863489E+04  0.18509863489E+04  0.00000000000E+00 0.  1.
         23    2    1    2    0    0 -0.26319883673E+02 -0.10951262635E+03 -0.30888981185E+03  0.34085044654E+03  0.89890819537E+02 0.  0.
          5    1    1    2  502    0 -0.97752082356E+02  0.12723012354E+02 -0.58407683671E+03  0.59235562446E+03  0.47000000000E+01 0. -1.
         -5    1    1    2    0  502  0.12407196603E+03  0.96789614000E+02 -0.93129369513E+03  0.94450628305E+03  0.47000000000E+01 0.  1.
        -11    1    3    3    0    0  0.17846126154E+02 -0.36970307279E+02 -0.19214521529E+03  0.19648173350E+03  0.00000000000E+00 0.  1.
         11    1    3    3    0    0 -0.44166009827E+02 -0.72542319074E+02 -0.11674459655E+03  0.14436871304E+03  0.00000000000E+00 0. -1.
<mgrwt>
<rscale>  0 0.22181968E+03</rscale>
<asrwt>0</asrwt>
<pdfrwt beam="1">  1        1 0.41116913E-02 0.25611848E+03</pdfrwt>
<pdfrwt beam="2">  1       -1 0.28476726E+00 0.25611848E+03</pdfrwt>
<totfact> 0.10533877E+02</totfact>
</mgrwt>
</event>
<event>
 8    1  0.1154424E-005  0.1452148E+03  0.7546771E-02  0.1216652E+00
         -1   -1    0    0    0  501 -0.00000000000E+00  0.00000000000E+00  0.47941303661E+03  0.47941303661E+03  0.00000000000E+00 0.  1.
          1   -1    0    0  501    0  0.00000000000E+00 -0.00000000000E+00 -0.55175380236E+02  0.55175380236E+02  0.00000000000E+00 0. -1.
         23    2    1    2    0    0  0.35195983647E+02 -0.64990355611E+02  0.38463767111E+03  0.41113682635E+03  0.12499939343E+03 0.  0.
         23    2    1    2    0    0 -0.35195983647E+02  0.64990355611E+02  0.39599985264E+02  0.12345159050E+03  0.90607023876E+02 0.  0.
          5    1    3    3  502    0  0.57273849769E+02 -0.64037432904E+02  0.13247809512E+03  0.15796715597E+03  0.47000000000E+01 0. -1.
         -5    1    3    3    0  502 -0.22077866122E+02 -0.95292270738E+00  0.25215957599E+03  0.25316967038E+03  0.47000000000E+01 0. -1.
        -11    1    4    4    0    0 -0.61057561172E+02  0.37392344770E+02  0.45987489085E+02  0.85094432110E+02  0.00000000000E+00 0.  1.
         11    1    4    4    0    0  0.25861577524E+02  0.27598010841E+02 -0.63875038211E+01  0.38357158387E+02  0.00000000000E+00 0. -1.
<mgrwt>
<rscale>  0 0.13755862E+03</rscale>
<asrwt>0</asrwt>
<pdfrwt beam="2">  1        1 0.84885204E-02 0.14521485E+03</pdfrwt>
<pdfrwt beam="1">  1       -1 0.73755849E-01 0.14521485E+03</pdfrwt>
<totfact> 0.15149148E+03</totfact>
</mgrwt>
</event>
<event>
 8    1  0.1154424E-005  0.1495108E+03  0.7546771E-02  0.1212092E+00
         -1   -1    0    0    0  501 -0.00000000000E+00  0.00000000000E+00  0.16100525078E+03  0.16100525078E+03  0.00000000000E+00 0. -1.
          1   -1    0    0  501    0  0.00000000000E+00 -0.00000000000E+00 -0.14527456149E+03  0.14527456149E+03  0.00000000000E+00 0.  1.
         23    2    1    2    0    0  0.21353056908E+02 -0.79196110869E+02  0.82426680797E+02  0.17072675113E+03  0.12500195530E+03 0.  0.
         23    2    1    2    0    0 -0.21353056908E+02  0.79196110869E+02 -0.66695991509E+02  0.13555306114E+03  0.84842796298E+02 0.  0.
          5    1    3    3  502    0 -0.22923542179E+02 -0.54622809137E+02  0.10050051306E+03  0.11675437118E+03  0.47000000000E+01 0.  1.
         -5    1    3    3    0  502  0.44276599087E+02 -0.24573301732E+02 -0.18073832265E+02  0.53972379950E+02  0.47000000000E+01 0.  1.
        -11    1    4    4    0    0 -0.39316396609E+02  0.75192957886E+02 -0.76896493067E+02  0.11451126846E+03  0.00000000000E+00 0.  1.
         11    1    4    4    0    0  0.17963339701E+02  0.40031529832E+01  0.10200501558E+02  0.21041792677E+02  0.00000000000E+00 0. -1.
<mgrwt>
<rscale>  0 0.14092359E+03</rscale>
<asrwt>0</asrwt>
<pdfrwt beam="2">  1        1 0.22349933E-01 0.14951075E+03</pdfrwt>
<pdfrwt beam="1">  1       -1 0.24770039E-01 0.14951075E+03</pdfrwt>
<totfact> 0.30339372E+03</totfact>
</mgrwt>
</event>
<event>
 8    1  0.1154424E-005  0.1343998E+03  0.7546771E-02  0.1233678E+00
         -1   -1    0    0    0  501 -0.00000000000E+00  0.00000000000E+00  0.45785591867E+02  0.45785591867E+02  0.00000000000E+00 0.  1.
          1   -1    0    0  501    0  0.00000000000E+00 -0.00000000000E+00 -0.31183214092E+03  0.31183214092E+03  0.00000000000E+00 0. -1.
         23    2    1    2    0    0 -0.19236486235E+02  0.45387344964E+02 -0.13314999453E+03  0.18918836677E+03  0.12503305000E+03 0.  0.
         23    2    1    2    0    0  0.19236486235E+02 -0.45387344964E+02 -0.13289655452E+03  0.16842936601E+03  0.90977489777E+02 0.  0.
          5    1    3    3  502    0  0.53449526839E+02  0.19583195798E+02 -0.55540100241E+02  0.79668978980E+02  0.47000000000E+01 0. -1.
         -5    1    3    3    0  502 -0.72686013074E+02  0.25804149166E+02 -0.77609894289E+02  0.10951938779E+03  0.47000000000E+01 0. -1.
        -11    1    4    4    0    0  0.29202555561E+02  0.14686871951E+01 -0.11271813155E+03  0.11644880194E+03  0.00000000000E+00 0. -1.
         11    1    4    4    0    0 -0.99660693261E+01 -0.46856032159E+02 -0.20178422970E+02  0.51980564070E+02  0.00000000000E+00 0.  1.
<mgrwt>
<rscale>  0 0.12589466E+03</rscale>
<asrwt>0</asrwt>
<pdfrwt beam="2">  1        1 0.47974176E-01 0.13439984E+03</pdfrwt>
<pdfrwt beam="1">  1       -1 0.70439372E-02 0.13439984E+03</pdfrwt>
<totfact> 0.82839701E+03</totfact>
</mgrwt>
</event>
<event>
 8    1  0.1154424E-005  0.1254771E+03  0.7546771E-02  0.1250530E+00
         -1   -1    0    0    0  501 -0.00000000000E+00  0.00000000000E+00  0.23808434207E+02  0.23808434207E+02  0.00000000000E+00 0.  1.
          1   -1    0    0  501    0  0.00000000000E+00 -0.00000000000E+00 -0.49649177070E+03  0.49649177070E+03  0.00000000000E+00 0. -1.
         23    2    1    2    0    0 -0.63440355881E+01 -0.88060072763E+01 -0.24347285317E+03  0.27390425634E+03  0.12500687525E+03 0.  0.
         23    2    1    2    0    0  0.63440355881E+01  0.88060072763E+01 -0.22921048332E+03  0.24639594857E+03  0.89753692139E+02 0.  0.
          5    1    3    3  502    0  0.43857680306E+02 -0.32275491840E+02 -0.55573195789E+02  0.77946607274E+02  0.47000000000E+01 0.  1.
         -5    1    3    3    0  502 -0.50201715894E+02  0.23469484563E+02 -0.18789965738E+03  0.19595764906E+03  0.47000000000E+01 0.  1.
        -11    1    4    4    0    0  0.47061797830E+02  0.99281944449E+01 -0.14660960567E+03  0.15429762906E+03  0.00000000000E+00 0. -1.
         11    1    4    4    0    0 -0.40717762242E+02 -0.11221871685E+01 -0.82600877656E+02  0.92098319505E+02  0.00000000000E+00 0.  1.
<mgrwt>
<rscale>  0 0.11560446E+03</rscale>
<asrwt>0</asrwt>
<pdfrwt beam="2">  1        1 0.76383350E-01 0.12547714E+03</pdfrwt>
<pdfrwt beam="1">  1       -1 0.36628360E-02 0.12547714E+03</pdfrwt>
<totfact> 0.12059965E+04</totfact>
</mgrwt>
</event>
<event>
 8    1  0.1364673E-005  0.3065818E+03  0.7546771E-02  0.1083490E+00
         -1   -1    0    0    0  501 -0.00000000000E+00  0.00000000000E+00  0.81730009085E+02  0.81730009085E+02  0.00000000000E+00 0.  1.
          1   -1    0    0  501    0  0.00000000000E+00 -0.00000000000E+00 -0.11864739103E+04  0.11864739103E+04  0.00000000000E+00 0. -1.
         23    2    1    2    0    0  0.12398971643E+03 -0.25098745185E+03 -0.39689836452E+03  0.50151838259E+03  0.12499690218E+03 0.  0.
         23    2    1    2    0    0 -0.12398971643E+03  0.25098745185E+03 -0.70784553666E+03  0.76668553676E+03  0.91614724464E+02 0.  0.
          5    1    3    3  502    0  0.39911999108E+02 -0.13157031810E+03 -0.98293293792E+02  0.16907802306E+03  0.47000000000E+01 0. -1.
         -5    1    3    3    0  502  0.84077717317E+02 -0.11941713375E+03 -0.29860507072E+03  0.33244035953E+03  0.47000000000E+01 0. -1.
        -11    1    4    4    0    0 -0.13364569225E+03  0.20183828703E+03 -0.61969396838E+03  0.66529728664E+03  0.00000000000E+00 0. -1.
         11    1    4    4    0    0  0.96559758210E+01  0.49149164813E+02 -0.88151568289E+02  0.10138825012E+03  0.00000000000E+00 0.  1.
<mgrwt>
<rscale>  0 0.30352926E+03</rscale>
<asrwt>0</asrwt>
<pdfrwt beam="2">  1        1 0.18253445E+00 0.30658176E+03</pdfrwt>
<pdfrwt beam="1">  1       -1 0.12573848E-01 0.30658176E+03</pdfrwt>
<totfact> 0.49817581E+02</totfact>
</mgrwt>
</event>
<event>
 8    1  0.1154424E-005  0.1269042E+03  0.7546771E-02  0.1247959E+00
          3   -1    0    0  501    0  0.00000000000E+00  0.00000000000E+00  0.49604815632E+02  0.49604815632E+02  0.00000000000E+00 0. -1.
         -3   -1    0    0    0  501 -0.00000000000E+00 -0.00000000000E+00 -0.24158632212E+03  0.24158632212E+03  0.00000000000E+00 0.  1.
         23    2    1    2    0    0  0.21853475000E+02  0.81758909196E+00 -0.11381225541E+03  0.17046381889E+03  0.12500576485E+03 0.  0.
         23    2    1    2    0    0 -0.21853475000E+02 -0.81758909196E+00 -0.78169251079E+02  0.12072731887E+03  0.89366721352E+02 0.  0.
          5    1    3    3  502    0  0.14380617974E+02  0.52924565101E+02 -0.10260735838E+03  0.11643956268E+03  0.47000000000E+01 0.  1.
         -5    1    3    3    0  502  0.74728570256E+01 -0.52106976009E+02 -0.11204897035E+02  0.54024256205E+02  0.47000000000E+01 0.  1.
        -11    1    4    4    0    0 -0.11308487130E+00  0.24846156162E+02 -0.83098605406E+02  0.86733629490E+02  0.00000000000E+00 0.  1.
         11    1    4    4    0    0 -0.21740390129E+02 -0.25663745254E+02  0.49293543263E+01  0.33993689377E+02  0.00000000000E+00 0. -1.
<mgrwt>
<rscale>  0 0.11710036E+03</rscale>
<asrwt>0</asrwt>
<pdfrwt beam="1">  1        3 0.76315101E-02 0.12690423E+03</pdfrwt>
<pdfrwt beam="2">  1       -3 0.37167126E-01 0.12690423E+03</pdfrwt>
<totfact> 0.18700027E+03</totfact>
</mgrwt>
</event>
<event>
 8    1  0.1154424E-005  0.1501594E+03  0.7546771E-02  0.1209154E+00
         -1   -1    0    0    0  501 -0.00000000000E+00  0.00000000000E+00  0.41482229215E+02  0.41482229215E+02  0.00000000000E+00 0.  1.
          1   -1    0    0  501    0  0.00000000000E+00 -0.00000000000E+00 -0.52348885052E+03  0.52348885052E+03  0.00000000000E+00 0. -1.
         23    2    1    2    0    0  0.54987343914E+02  0.62447067104E+02 -0.15767773599E+03  0.21773866269E+03  0.12499845048E+03 0.  0.
         23    2    1    2    0    0 -0.54987343914E+02 -0.62447067104E+02 -0.32432888531E+03  0.34723241704E+03  0.91966740815E+02 0.  0.
          5    1    3    3  502    0 -0.13745426782E+01  0.32297415227E+02  0.13203084241E+02  0.35233844970E+02  0.47000000000E+01 0. -1.
         -5    1    3    3    0  502  0.56361886592E+02  0.30149651877E+02 -0.17088082023E+03  0.18250481772E+03  0.47000000000E+01 0. -1.
        -11    1    4    4    0    0 -0.75150213136E+02 -0.53403530884E+02 -0.19101624258E+03  0.21210067557E+03  0.00000000000E+00 0.  1.
         11    1    4    4    0    0  0.20162869223E+02 -0.90435362199E+01 -0.13331264273E+03  0.13513174147E+03  0.00000000000E+00 0. -1.
<mgrwt>
<rscale>  0 0.14314889E+03</rscale>
<asrwt>0</asrwt>
<pdfrwt beam="2">  1        1 0.80536747E-01 0.15015944E+03</pdfrwt>
<pdfrwt beam="1">  1       -1 0.63818814E-02 0.15015944E+03</pdfrwt>
<totfact> 0.50079944E+03</totfact>
</mgrwt>
</event>
<event>
 7    1  0.1154424E-005  0.1212458E+03  0.7546771E-02  0.1288770E+00
          1   -1    0    0  501    0  0.00000000000E+00  0.00000000000E+00  0.27483706495E+02  0.27483706495E+02  0.00000000000E+00 0. -1.
         -1   -1    0    0    0  501 -0.00000000000E+00 -0.00000000000E+00 -0.35896672994E+03  0.35896672994E+03  0.00000000000E+00 0.  1.
         23    2    1    2    0    0  0.29213120440E+02 -0.16597170836E+02 -0.31217557698E+03  0.33489420280E+03  0.11649748377E+03 0.  0.
          5    1    3    3  502    0  0.50513130039E+02 -0.58296309273E+01 -0.49580899213E+02  0.71175251808E+02  0.47000000000E+01 0. -1.
         -5    1    3    3    0  502 -0.21300009599E+02 -0.10767539909E+02 -0.26259467776E+03  0.26371895100E+03  0.47000000000E+01 0.  1.
        -11    1    1    2    0    0 -0.75246818445E+01  0.22371801059E+02 -0.16801888191E+02  0.28972776296E+02  0.00000000000E+00 0. -1.
         11    1    1    2    0    0 -0.21688438595E+02 -0.57746302233E+01 -0.25055582768E+01  0.22583457335E+02  0.00000000000E+00 0.  1.
<mgrwt>
<rscale>  0 0.96076479E+02</rscale>
<asrwt>0</asrwt>
<pdfrwt beam="1">  1        1 0.42282624E-02 0.12124577E+03</pdfrwt>
<pdfrwt beam="2">  1       -1 0.55225652E-01 0.12124577E+03</pdfrwt>
<totfact> 0.67393329E+03</totfact>
</mgrwt>
</event>
<event>
 8    1  0.1154424E-005  0.1282520E+03  0.7546771E-02  0.1244415E+00
          1   -1    0    0  501    0  0.00000000000E+00  0.00000000000E+00  0.70061413875E+02  0.70061413875E+02  0.00000000000E+00 0. -1.
         -1   -1    0    0    0  501 -0.00000000000E+00 -0.00000000000E+00 -0.18768835771E+03  0.18768835771E+03  0.00000000000E+00 0.  1.
         23    2    1    2    0    0  0.19323790852E+02 -0.21345692014E+02 -0.94426299183E+02  0.15926359906E+03  0.12497808026E+03 0.  0.
         23    2    1    2    0    0 -0.19323790852E+02  0.21345692014E+02 -0.23200644648E+02  0.98486172525E+02  0.91280933421E+02 0.  0.
          5    1    3    3  502    0  0.27088840692E+02 -0.46664297742E+01 -0.12235399549E+03  0.12549171713E+03  0.47000000000E+01 0. -1.
         -5    1    3    3    0  502 -0.77650498402E+01 -0.16679262240E+02  0.27927696304E+02  0.33771881925E+02  0.47000000000E+01 0. -1.
        -11    1    4    4    0    0  0.35966385525E+02  0.16654621104E+02 -0.15076009623E+02  0.42405699593E+02  0.00000000000E+00 0.  1.
         11    1    4    4    0    0 -0.55290176377E+02  0.46910709103E+01 -0.81246350249E+01  0.56080472933E+02  0.00000000000E+00 0. -1.
<mgrwt>
<rscale>  0 0.11920444E+03</rscale>
<asrwt>0</asrwt>
<pdfrwt beam="1">  1        1 0.10778679E-01 0.12825197E+03</pdfrwt>
<pdfrwt beam="2">  1       -1 0.28875131E-01 0.12825197E+03</pdfrwt>
<totfact> 0.59844133E+03</totfact>
</mgrwt>
</event>
<event>
 8    1  0.1154424E-005  0.1638351E+03  0.7546771E-02  0.1187417E+00
         -1   -1    0    0    0  501 -0.00000000000E+00  0.00000000000E+00  0.10279307332E+03  0.10279307332E+03  0.00000000000E+00 0.  1.
          1   -1    0    0  501    0  0.00000000000E+00 -0.00000000000E+00 -0.25173786138E+03  0.25173786138E+03  0.00000000000E+00 0. -1.
         23    2    1    2    0    0 -0.50859214938E+00 -0.10590956718E+03 -0.10665816152E+03  0.19549402425E+03  0.12499942005E+03 0.  0.
         23    2    1    2    0    0  0.50859214938E+00  0.10590956718E+03 -0.42286626540E+02  0.15903691045E+03  0.11084892880E+03 0.  0.
          5    1    3    3  502    0  0.11473431003E+02 -0.88225524772E+01 -0.95750329825E+02  0.96952012422E+02  0.47000000000E+01 0. -1.
         -5    1    3    3    0  502 -0.11982023153E+02 -0.97087014705E+02 -0.10907831699E+02  0.98542011830E+02  0.47000000000E+01 0. -1.
        -11    1    4    4    0    0 -0.54357667261E+02  0.50661128920E+02 -0.30346510316E+02  0.80263420447E+02  0.00000000000E+00 0. -1.
         11    1    4    4    0    0  0.54866259410E+02  0.55248438263E+02 -0.11940116224E+02  0.78773490005E+02  0.00000000000E+00 0.  1.
<mgrwt>
<rscale>  0 0.16113851E+03</rscale>
<asrwt>0</asrwt>
<pdfrwt beam="2">  1        1 0.38728902E-01 0.16383513E+03</pdfrwt>
<pdfrwt beam="1">  1       -1 0.15814319E-01 0.16383513E+03</pdfrwt>
<totfact> 0.31535982E+03</totfact>
</mgrwt>
</event>
<event>
 8    1  0.1154424E-005  0.1402341E+03  0.7546771E-02  0.1224139E+00
         -1   -1    0    0    0  501 -0.00000000000E+00  0.00000000000E+00  0.24084408712E+02  0.24084408712E+02  0.00000000000E+00 0. -1.
          1   -1    0    0  501    0  0.00000000000E+00 -0.00000000000E+00 -0.65694810861E+03  0.65694810861E+03  0.00000000000E+00 0.  1.
         23    2    1    2    0    0 -0.27533192918E+02  0.57307666550E+02 -0.33462806864E+03  0.36282438738E+03  0.12499338543E+03 0.  0.
         23    2    1    2    0    0  0.27533192918E+02 -0.57307666550E+02 -0.29823563126E+03  0.31820812994E+03  0.90937763602E+02 0.  0.
          5    1    3    3  502    0  0.25636981355E+02  0.15363515823E+02 -0.11062782648E+02  0.32214400372E+02  0.47000000000E+01 0.  1.
         -5    1    3    3    0  502 -0.53170174273E+02  0.41944150727E+02 -0.32356528599E+03  0.33060998701E+03  0.47000000000E+01 0.  1.
        -11    1    4    4    0    0  0.43910185674E+02  0.51468808360E+01 -0.15316684845E+03  0.15941981763E+03  0.00000000000E+00 0.  1.
         11    1    4    4    0    0 -0.16376992756E+02 -0.62454547386E+02 -0.14506878280E+03  0.15878831231E+03  0.00000000000E+00 0. -1.
<mgrwt>
<rscale>  0 0.13226071E+03</rscale>
<asrwt>0</asrwt>
<pdfrwt beam="2">  1        1 0.10106895E+00 0.14023406E+03</pdfrwt>
<pdfrwt beam="1">  1       -1 0.37052932E-02 0.14023406E+03</pdfrwt>
<totfact> 0.81995417E+03</totfact>
</mgrwt>
</event>
<event>
 8    1  0.1154424E-005  0.1271851E+03  0.7546771E-02  0.1244886E+00
          1   -1    0    0  501    0  0.00000000000E+00  0.00000000000E+00  0.22628698483E+03  0.22628698483E+03  0.00000000000E+00 0. -1.
         -1   -1    0    0    0  501 -0.00000000000E+00 -0.00000000000E+00 -0.61599855218E+02  0.61599855218E+02  0.00000000000E+00 0.  1.
         23    2    1    2    0    0  0.22470947265E+02  0.67912317911E+01  0.47837250791E+02  0.13588398973E+03  0.12499996721E+03 0.  0.
         23    2    1    2    0    0 -0.22470947265E+02 -0.67912317911E+01  0.11684987882E+03  0.15200285032E+03  0.94339323851E+02 0.  0.
          5    1    3    3  502    0  0.47514322921E+02  0.51857378463E+02  0.45820660439E+02  0.84073905029E+02  0.47000000000E+01 0.  1.
         -5    1    3    3    0  502 -0.25043375656E+02 -0.45066146672E+02  0.20165903520E+01  0.51810084701E+02  0.47000000000E+01 0.  1.
        -11    1    4    4    0    0 -0.56300637770E+01 -0.33468779785E+02  0.32392873704E+01  0.34093251841E+02  0.00000000000E+00 0.  1.
         11    1    4    4    0    0 -0.16840883488E+02  0.26677547993E+02  0.11361059145E+03  0.11790959848E+03  0.00000000000E+00 0. -1.
<mgrwt>
<rscale>  0 0.11892189E+03</rscale>
<asrwt>0</asrwt>
<pdfrwt beam="1">  1        1 0.34813382E-01 0.12718513E+03</pdfrwt>
<pdfrwt beam="2">  1       -1 0.94769009E-02 0.12718513E+03</pdfrwt>
<totfact> 0.78367202E+03</totfact>
</mgrwt>
</event>
<event>
 8    1  0.1154424E-005  0.1317698E+03  0.7546771E-02  0.1237751E+00
          3   -1    0    0  501    0  0.00000000000E+00  0.00000000000E+00  0.28357722198E+02  0.28357722198E+02  0.00000000000E+00 0. -1.
         -3   -1    0    0    0  501 -0.00000000000E+00 -0.00000000000E+00 -0.48000499503E+03  0.48000499503E+03  0.00000000000E+00 0.  1.
         23    2    1    2    0    0  0.38404339954E+02 -0.16080511437E+02 -0.23819766010E+03  0.27221573182E+03  0.12501921131E+03 0.  0.
         23    2    1    2    0    0 -0.38404339954E+02  0.16080511437E+02 -0.21344961274E+03  0.23614698541E+03  0.92039042627E+02 0.  0.
          5    1    3    3  502    0  0.63351513100E+02  0.12975462638E+01 -0.23237491786E+03  0.24090514791E+03  0.47000000000E+01 0.  1.
         -5    1    3    3    0  502 -0.24947173147E+02 -0.17378057701E+02 -0.58227422371E+01  0.31310583907E+02  0.47000000000E+01 0.  1.
        -11    1    4    4    0    0 -0.45951102696E+02  0.34903049745E+02 -0.20696149103E+03  0.21485526638E+03  0.00000000000E+00 0.  1.
         11    1    4    4    0    0  0.75467627419E+01 -0.18822538308E+02 -0.64881217037E+01  0.21291719035E+02  0.00000000000E+00 0. -1.
<mgrwt>
<rscale>  0 0.12329962E+03</rscale>
<asrwt>0</asrwt>
<pdfrwt beam="1">  1        3 0.43627262E-02 0.13176980E+03</pdfrwt>
<pdfrwt beam="2">  1       -3 0.73846926E-01 0.13176980E+03</pdfrwt>
<totfact> 0.11519101E+03</totfact>
</mgrwt>
</event>
<event>
 8    1  0.1154424E-005  0.1862369E+03  0.7546771E-02  0.1167050E+00
          1   -1    0    0  501    0  0.00000000000E+00  0.00000000000E+00  0.19309629290E+02  0.19309629290E+02  0.00000000000E+00 0. -1.
         -1   -1    0    0    0  501 -0.00000000000E+00 -0.00000000000E+00 -0.18365394485E+04  0.18365394485E+04  0.00000000000E+00 0.  1.
         23    2    1    2    0    0 -0.43524143779E+02 -0.13101611003E+03 -0.12878655962E+04  0.13012616876E+04  0.12499845397E+03 0.  0.
         23    2    1    2    0    0  0.43524143779E+02  0.13101611003E+03 -0.52936422295E+03  0.55458739015E+03  0.91000662634E+02 0.  0.
          5    1    3    3  502    0 -0.53951104809E+02 -0.14712513636E+03 -0.12333967557E+04  0.12433206242E+04  0.47000000000E+01 0. -1.
         -5    1    3    3    0  502  0.10426961030E+02  0.16109026330E+02 -0.54468840498E+02  0.57941063425E+02  0.47000000000E+01 0. -1.
        -11    1    4    4    0    0  0.51027086457E+02  0.27107656626E+02 -0.24555639654E+03  0.25226282422E+03  0.00000000000E+00 0.  1.
         11    1    4    4    0    0 -0.75029426783E+01  0.10390845341E+03 -0.28380782641E+03  0.30232456593E+03  0.00000000000E+00 0. -1.
<mgrwt>
<rscale>  0 0.18078005E+03</rscale>
<asrwt>0</asrwt>
<pdfrwt beam="1">  1        1 0.29707132E-02 0.18623691E+03</pdfrwt>
<pdfrwt beam="2">  1       -1 0.28254443E+00 0.18623691E+03</pdfrwt>
<totfact> 0.17268921E+02</totfact>
</mgrwt>
</event>
<event>
 8    1  0.1154424E-005  0.1375007E+03  0.7546771E-02  0.1228635E+00
          1   -1    0    0  501    0  0.00000000000E+00  0.00000000000E+00  0.45499282234E+03  0.45499282234E+03  0.00000000000E+00 0. -1.
         -1   -1    0    0    0  501 -0.00000000000E+00 -0.00000000000E+00 -0.50731272281E+02  0.50731272281E+02  0.00000000000E+00 0.  1.
         23    2    1    2    0    0  0.99480357417E+01  0.56416760517E+02  0.69209485539E+02  0.15393632353E+03  0.12499849812E+03 0.  0.
         23    2    1    2    0    0 -0.99480357417E+01 -0.56416760517E+02  0.33505206452E+03  0.35178777109E+03  0.90625248498E+02 0.  0.
          5    1    3    3  502    0  0.11888387765E+02 -0.21224720050E+02 -0.22638061085E+02  0.33561798440E+02  0.47000000000E+01 0.  1.
         -5    1    3    3    0  502 -0.19403520229E+01  0.77641480567E+02  0.91847546625E+02  0.12037452509E+03  0.47000000000E+01 0.  1.
        -11    1    4    4    0    0  0.14065337428E+01  0.12708899456E+02  0.39887332128E+01  0.13394194832E+02  0.00000000000E+00 0.  1.
         11    1    4    4    0    0 -0.11354569484E+02 -0.69125659973E+02  0.33106333131E+03  0.33839357625E+03  0.00000000000E+00 0. -1.
<mgrwt>
<rscale>  0 0.12920850E+03</rscale>
<asrwt>0</asrwt>
<pdfrwt beam="1">  1        1 0.69998893E-01 0.13750069E+03</pdfrwt>
<pdfrwt beam="2">  1       -1 0.78048114E-02 0.13750069E+03</pdfrwt>
<totfact> 0.44229899E+03</totfact>
</mgrwt>
</event>
<event>
 8    1  0.1154424E-005  0.1430614E+03  0.7546771E-02  0.1219759E+00
          4   -1    0    0  501    0  0.00000000000E+00  0.00000000000E+00  0.24120203873E+03  0.24120203873E+03  0.00000000000E+00 0.  1.
         -4   -1    0    0    0  501 -0.00000000000E+00 -0.00000000000E+00 -0.68831264540E+02  0.68831264540E+02  0.00000000000E+00 0. -1.
         23    2    1    2    0    0 -0.68041409433E+02 -0.14853849177E+02  0.91540307178E+02  0.16984163201E+03  0.12496512271E+03 0.  0.
         23    2    1    2    0    0  0.68041409433E+02  0.14853849177E+02  0.80830467010E+02  0.14019167126E+03  0.90938825920E+02 0.  0.
          5    1    3    3  502    0 -0.57869527253E+02 -0.66517689435E+02  0.70331611119E+02  0.11288095816E+03  0.47000000000E+01 0.  1.
         -5    1    3    3    0  502 -0.10171882180E+02  0.51663840258E+02  0.21208696060E+02  0.56960673854E+02  0.47000000000E+01 0.  1.
        -11    1    4    4    0    0  0.14418026601E+02  0.44253470733E+02  0.59243517162E+02  0.75339521426E+02  0.00000000000E+00 0.  1.
         11    1    4    4    0    0  0.53623382831E+02 -0.29399621556E+02  0.21586949849E+02  0.64852149831E+02  0.00000000000E+00 0. -1.
<mgrwt>
<rscale>  0 0.13532688E+03</rscale>
<asrwt>0</asrwt>
<pdfrwt beam="1">  1        4 0.37108006E-01 0.14306136E+03</pdfrwt>
<pdfrwt beam="2">  1       -4 0.10589425E-01 0.14306136E+03</pdfrwt>
<totfact> 0.81135478E+02</totfact>
</mgrwt>
</event>
<event>
 8    1  0.1154424E-005  0.1315785E+03  0.7546771E-02  0.1238421E+00
         -1   -1    0    0    0  501 -0.00000000000E+00  0.00000000000E+00  0.15583383025E+03  0.15583383025E+03  0.00000000000E+00 0.  1.
          1   -1    0    0  501    0  0.00000000000E+00 -0.00000000000E+00 -0.95833149054E+02  0.95833149054E+02  0.00000000000E+00 0. -1.
         23    2    1    2    0    0 -0.31832400203E+02 -0.25963638285E+02  0.73439058716E+02  0.15068578018E+03  0.12500198714E+03 0.  0.
         23    2    1    2    0    0  0.31832400203E+02  0.25963638285E+02 -0.13438377516E+02  0.10098119913E+03  0.91264452942E+02 0.  0.
          5    1    3    3  502    0  0.47088981992E+02 -0.37313116186E+01  0.39758070580E+02  0.61920021703E+02  0.47000000000E+01 0.  1.
         -5    1    3    3    0  502 -0.78921382196E+02 -0.22232326666E+02  0.33680988136E+02  0.88765758480E+02  0.47000000000E+01 0.  1.
        -11    1    4    4    0    0  0.27542774829E+02 -0.16551574751E+02  0.27133800774E+02  0.42057130388E+02  0.00000000000E+00 0.  1.
         11    1    4    4    0    0  0.42896253742E+01  0.42515213036E+02 -0.40572178290E+02  0.58924068737E+02  0.00000000000E+00 0. -1.
<mgrwt>
<rscale>  0 0.12287934E+03</rscale>
<asrwt>0</asrwt>
<pdfrwt beam="2">  1        1 0.14743561E-01 0.13157853E+03</pdfrwt>
<pdfrwt beam="1">  1       -1 0.23974435E-01 0.13157853E+03</pdfrwt>
<totfact> 0.54128665E+03</totfact>
</mgrwt>
</event>
<event>
 7    1  0.1154424E-005  0.1910987E+03  0.7546771E-02  0.1185621E+00
          2   -1    0    0  501    0  0.00000000000E+00  0.00000000000E+00  0.65131708627E+02  0.65131708627E+02  0.00000000000E+00 0. -1.
         -2   -1    0    0    0  501 -0.00000000000E+00 -0.00000000000E+00 -0.32910688833E+03  0.32910688833E+03  0.00000000000E+00 0.  1.
         23    2    1    2    0    0  0.14034771265E+02  0.13888098724E+02 -0.74587813842E+02  0.12519162458E+03  0.98588776246E+02 0.  0.
          5    1    1    2  502    0 -0.46960607179E+02  0.76438864922E+02 -0.61016985158E+02  0.10859724294E+03  0.47000000000E+01 0. -1.
         -5    1    1    2    0  502  0.32925835915E+02 -0.90326963646E+02 -0.12837038070E+03  0.16044972943E+03  0.47000000000E+01 0.  1.
        -11    1    3    3    0    0  0.53365929623E+02 -0.91985182968E+01 -0.48229084207E+02  0.72516065440E+02  0.00000000000E+00 0.  1.
         11    1    3    3    0    0 -0.39331158358E+02  0.23086617021E+02 -0.26358729635E+02  0.52675559145E+02  0.00000000000E+00 0. -1.
<mgrwt>
<rscale>  0 0.16275524E+03</rscale>
<asrwt>0</asrwt>
<pdfrwt beam="1">  1        2 0.10020263E-01 0.19109866E+03</pdfrwt>
<pdfrwt beam="2">  1       -2 0.50631829E-01 0.19109866E+03</pdfrwt>
<totfact> 0.23483718E+03</totfact>
</mgrwt>
</event>
<event>
 8    1  0.1154424E-005  0.2335389E+03  0.7546771E-02  0.1126743E+00
          1   -1    0    0  501    0  0.00000000000E+00  0.00000000000E+00  0.25089446671E+03  0.25089446671E+03  0.00000000000E+00 0. -1.
         -1   -1    0    0    0  501 -0.00000000000E+00 -0.00000000000E+00 -0.20422916188E+03  0.20422916188E+03  0.00000000000E+00 0.  1.
         23    2    1    2    0    0 -0.16139473420E+03 -0.11342182393E+03  0.27295801836E+02  0.23512868122E+03  0.12501066180E+03 0.  0.
         23    2    1    2    0    0  0.16139473420E+03  0.11342182393E+03  0.19369502999E+02  0.21999494738E+03  0.95445423433E+02 0.  0.
          5    1    3    3  502    0 -0.12850361772E+03 -0.10920822373E+03 -0.27476087083E+02  0.17092876077E+03  0.47000000000E+01 0. -1.
         -5    1    3    3    0  502 -0.32891116481E+02 -0.42136002000E+01  0.54771888919E+02  0.64199920450E+02  0.47000000000E+01 0. -1.
        -11    1    4    4    0    0  0.69344386111E+02  0.84593339592E+02  0.47890626127E+02  0.11940765913E+03  0.00000000000E+00 0.  1.
         11    1    4    4    0    0  0.92050348085E+02  0.28828484340E+02 -0.28521123128E+02  0.10058728824E+03  0.00000000000E+00 0. -1.
<mgrwt>
<rscale>  0 0.22985300E+03</rscale>
<asrwt>0</asrwt>
<pdfrwt beam="1">  1        1 0.38599149E-01 0.23353894E+03</pdfrwt>
<pdfrwt beam="2">  1       -1 0.31419871E-01 0.23353894E+03</pdfrwt>
<totfact> 0.10367789E+03</totfact>
</mgrwt>
</event>
<event>
 8    1  0.1154424E-005  0.1407527E+03  0.7546771E-02  0.1223242E+00
         -2   -1    0    0    0  501 -0.00000000000E+00  0.00000000000E+00  0.38750964248E+02  0.38750964248E+02  0.00000000000E+00 0.  1.
          2   -1    0    0  501    0  0.00000000000E+00 -0.00000000000E+00 -0.47232782724E+03  0.47232782724E+03  0.00000000000E+00 0. -1.
         23    2    1    2    0    0 -0.56434830901E+02  0.31644182903E+02 -0.14727583051E+03  0.20371914089E+03  0.12500029464E+03 0.  0.
         23    2    1    2    0    0  0.56434830901E+02 -0.31644182903E+02 -0.28630103248E+03  0.30735965060E+03  0.91188975042E+02 0.  0.
          5    1    3    3  502    0 -0.45506001422E+02 -0.36691499640E+02 -0.26306555467E+02  0.64274311912E+02  0.47000000000E+01 0. -1.
         -5    1    3    3    0  502 -0.10928829479E+02  0.68335682543E+02 -0.12096927505E+03  0.13944482897E+03  0.47000000000E+01 0. -1.
        -11    1    4    4    0    0  0.49913559632E+02 -0.16420867292E+02 -0.28600905864E+03  0.29079578735E+03  0.00000000000E+00 0. -1.
         11    1    4    4    0    0  0.65212712693E+01 -0.15223315611E+02 -0.29197384289E+00  0.16563863253E+02  0.00000000000E+00 0.  1.
<mgrwt>
<rscale>  0 0.13288120E+03</rscale>
<asrwt>0</asrwt>
<pdfrwt beam="2">  1        2 0.72665815E-01 0.14075268E+03</pdfrwt>
<pdfrwt beam="1">  1       -2 0.59616871E-02 0.14075268E+03</pdfrwt>
<totfact> 0.94722527E+03</totfact>
</mgrwt>
</event>
<event>
 8    1  0.1154424E-005  0.1326052E+03  0.7546771E-02  0.1236407E+00
         -1   -1    0    0    0  501 -0.00000000000E+00  0.00000000000E+00  0.95041802520E+03  0.95041802520E+03  0.00000000000E+00 0.  1.
          1   -1    0    0  501    0  0.00000000000E+00 -0.00000000000E+00 -0.23192215159E+02  0.23192215159E+02  0.00000000000E+00 0. -1.
         23    2    1    2    0    0  0.36788701151E+02 -0.24614720158E+02  0.79855796917E+03  0.80949303692E+03  0.12499941483E+03 0.  0.
         23    2    1    2    0    0 -0.36788701151E+02  0.24614720158E+02  0.12866784087E+03  0.16411720345E+03  0.91759196876E+02 0.  0.
          5    1    3    3  502    0  0.98781724503E+00  0.49716792748E+02  0.30758075042E+03  0.31160992169E+03  0.47000000000E+01 0. -1.
         -5    1    3    3    0  502  0.35800883906E+02 -0.74331512906E+02  0.49097721875E+03  0.49788311523E+03  0.47000000000E+01 0. -1.
        -11    1    4    4    0    0 -0.65571804439E+02  0.17408715050E+02  0.65380747500E+02  0.94219780517E+02  0.00000000000E+00 0.  1.
         11    1    4    4    0    0  0.28783103288E+02  0.72060051083E+01  0.63287093373E+02  0.69897422929E+02  0.00000000000E+00 0. -1.
<mgrwt>
<rscale>  0 0.12414812E+03</rscale>
<asrwt>0</asrwt>
<pdfrwt beam="2">  1        1 0.35680338E-02 0.13260523E+03</pdfrwt>
<pdfrwt beam="1">  1       -1 0.14621813E+00 0.13260523E+03</pdfrwt>
<totfact> 0.10577565E+03</totfact>
</mgrwt>
</event>
<event>
 7    1  0.1154424E-005  0.2650530E+03  0.7546771E-02  0.1104145E+00
         -1   -1    0    0    0  501 -0.00000000000E+00  0.00000000000E+00  0.43779605994E+02  0.43779605994E+02  0.00000000000E+00 0.  1.
          1   -1    0    0  501    0  0.00000000000E+00 -0.00000000000E+00 -0.40117488391E+03  0.40117488391E+03  0.00000000000E+00 0. -1.
         23    2    1    2    0    0 -0.44245740819E+01  0.17144955697E+02 -0.12036274215E+03  0.17442710441E+03  0.12499639473E+03 0.  0.
          5    1    3    3  502    0  0.12934031445E+02 -0.16677697956E+02 -0.13249314936E+03  0.13424589158E+03  0.47000000000E+01 0.  1.
         -5    1    3    3    0  502 -0.17358605527E+02  0.33822653654E+02  0.12130407211E+02  0.40181212838E+02  0.47000000000E+01 0.  1.
        -11    1    1    2    0    0 -0.48762995622E+02 -0.33537121721E+02 -0.18537258570E+03  0.19459075981E+03  0.00000000000E+00 0. -1.
         11    1    1    2    0    0  0.53187569704E+02  0.16392166024E+02 -0.51659950068E+02  0.75936625676E+02  0.00000000000E+00 0.  1.
<mgrwt>
<rscale>  0 0.26505304E+03</rscale>
<asrwt>0</asrwt>
<pdfrwt beam="2">  1        1 0.61719212E-01 0.26505304E+03</pdfrwt>
<pdfrwt beam="1">  1       -1 0.67353241E-02 0.26505304E+03</pdfrwt>
<totfact> 0.67117588E+03</totfact>
</mgrwt>
</event>
<event>
 8    1  0.1154424E-005  0.1248881E+03  0.7546771E-02  0.1248383E+00
         -2   -1    0    0    0  501 -0.00000000000E+00  0.00000000000E+00  0.61188088913E+02  0.61188088913E+02  0.00000000000E+00 0.  1.
          2   -1    0    0  501    0  0.00000000000E+00 -0.00000000000E+00 -0.27402913516E+03  0.27402913516E+03  0.00000000000E+00 0. -1.
         23    2    1    2    0    0  0.25652211929E+02 -0.12263897236E+02 -0.29392099850E+02  0.12830019214E+03  0.12160840685E+03 0.  0.
         23    2    1    2    0    0 -0.25652211929E+02  0.12263897236E+02 -0.18344894639E+03  0.20691703193E+03  0.91393123468E+02 0.  0.
          5    1    3    3  502    0 -0.41238612959E+02 -0.14329112514E+02 -0.41164431248E+02  0.60187598923E+02  0.47000000000E+01 0. -1.
         -5    1    3    3    0  502  0.66890824888E+02  0.20652152775E+01  0.11772331398E+02  0.68112593218E+02  0.47000000000E+01 0.  1.
        -11    1    4    4    0    0  0.14814225414E+02 -0.19544902104E+02 -0.10869792183E+02  0.26825675294E+02  0.00000000000E+00 0.  1.
         11    1    4    4    0    0 -0.40466437343E+02  0.31808799341E+02 -0.17257915421E+03  0.18009135664E+03  0.00000000000E+00 0. -1.
<mgrwt>
<rscale>  0 0.11685157E+03</rscale>
<asrwt>0</asrwt>
<pdfrwt beam="2">  1        2 0.42158330E-01 0.12488813E+03</pdfrwt>
<pdfrwt beam="1">  1       -2 0.94135519E-02 0.12488813E+03</pdfrwt>
<totfact> 0.83152040E+03</totfact>
</mgrwt>
</event>
<event>
 8    1  0.1154424E-005  0.1343120E+03  0.7546771E-02  0.1227517E+00
         -1   -1    0    0    0  501 -0.00000000000E+00  0.00000000000E+00  0.40167304880E+02  0.40167304880E+02  0.00000000000E+00 0.  1.
          1   -1    0    0  501    0  0.00000000000E+00 -0.00000000000E+00 -0.40005760875E+03  0.40005760875E+03  0.00000000000E+00 0. -1.
         23    2    1    2    0    0  0.38365802646E+02 -0.63818679459E+02 -0.16788081338E+03  0.21499693831E+03  0.11178084506E+03 0.  0.
         23    2    1    2    0    0 -0.38365802646E+02  0.63818679459E+02 -0.19200949050E+03  0.22522797532E+03  0.91187925551E+02 0.  0.
          5    1    3    3  502    0  0.20107051610E+02 -0.11039454982E+02 -0.15594672290E+03  0.15769474776E+03  0.47000000000E+01 0. -1.
         -5    1    3    3    0  502  0.18258751036E+02 -0.52779224478E+02 -0.11934090483E+02  0.57302190547E+02  0.47000000000E+01 0.  1.
        -11    1    4    4    0    0  0.62488763833E+01 -0.18265965467E+02 -0.12905873078E+02  0.23221875686E+02  0.00000000000E+00 0.  1.
         11    1    4    4    0    0 -0.44614679029E+02  0.82084644926E+02 -0.17910361742E+03  0.20200609963E+03  0.00000000000E+00 0. -1.
<mgrwt>
<rscale>  0 0.12995905E+03</rscale>
<asrwt>0</asrwt>
<pdfrwt beam="2">  1        1 0.61547325E-01 0.13431201E+03</pdfrwt>
<pdfrwt beam="1">  1       -1 0.61795853E-02 0.13431201E+03</pdfrwt>
<totfact> 0.73818783E+03</totfact>
</mgrwt>
</event>
<event>
 8    1  0.1154424E-005  0.1316311E+03  0.7546771E-02  0.1237091E+00
          1   -1    0    0  501    0  0.00000000000E+00  0.00000000000E+00  0.60138689976E+03  0.60138689976E+03  0.00000000000E+00 0. -1.
         -1   -1    0    0    0  501 -0.00000000000E+00 -0.00000000000E+00 -0.23247132612E+02  0.23247132612E+02  0.00000000000E+00 0.  1.
         23    2    1    2    0    0  0.11742678181E+02  0.39540620364E+02  0.28252896959E+03  0.31168791194E+03  0.12500153856E+03 0.  0.
         23    2    1    2    0    0 -0.11742678181E+02 -0.39540620364E+02  0.29561079756E+03  0.31294612043E+03  0.94064762318E+02 0.  0.
          5    1    3    3  502    0  0.32098267795E+02  0.90617330917E+01  0.79160701708E+01  0.34600115159E+02  0.47000000000E+01 0. -1.
         -5    1    3    3    0  502 -0.20355589615E+02  0.30478887272E+02  0.27461289942E+03  0.27708779678E+03  0.47000000000E+01 0. -1.
        -11    1    4    4    0    0 -0.45881912617E+02 -0.34796690075E+02  0.10998767009E+03  0.12415009914E+03  0.00000000000E+00 0.  1.
         11    1    4    4    0    0  0.34139234437E+02 -0.47439302886E+01  0.18562312747E+03  0.18879602129E+03  0.00000000000E+00 0. -1.
<mgrwt>
<rscale>  0 0.12371516E+03</rscale>
<asrwt>0</asrwt>
<pdfrwt beam="1">  1        1 0.92521050E-01 0.13163106E+03</pdfrwt>
<pdfrwt beam="2">  1       -1 0.35764824E-02 0.13163106E+03</pdfrwt>
<totfact> 0.97165239E+03</totfact>
</mgrwt>
</event>
<event>
 7    1  0.1154424E-005  0.1531207E+03  0.7546771E-02  0.1207636E+00
         -2   -1    0    0    0  501 -0.00000000000E+00  0.00000000000E+00  0.38294274295E+02  0.38294274295E+02  0.00000000000E+00 0.  1.
          2   -1    0    0  501    0  0.00000000000E+00 -0.00000000000E+00 -0.49108085332E+03  0.49108085332E+03  0.00000000000E+00 0. -1.
         23    2    1    2    0    0 -0.75684025359E+02  0.19662475083E+02 -0.21243928842E+03  0.24439657436E+03  0.92111615280E+02 0.  0.
          5    1    1    2  502    0  0.42355002859E+01 -0.66274581864E+02 -0.12244744824E+03  0.13937620759E+03  0.47000000000E+01 0. -1.
         -5    1    1    2    0  502  0.71448525073E+02  0.46612106781E+02 -0.11789984237E+03  0.14560234567E+03  0.47000000000E+01 0.  1.
        -11    1    3    3    0    0 -0.96039020161E+02  0.25974121021E+02 -0.17297043644E+03  0.19954177567E+03  0.00000000000E+00 0.  1.
         11    1    3    3    0    0  0.20354994803E+02 -0.63116459385E+01 -0.39468851984E+02  0.44854798682E+02  0.00000000000E+00 0. -1.
<mgrwt>
<rscale>  0 0.14431675E+03</rscale>
<asrwt>0</asrwt>
<pdfrwt beam="2">  1        2 0.75550899E-01 0.15312072E+03</pdfrwt>
<pdfrwt beam="1">  1       -2 0.58914269E-02 0.15312072E+03</pdfrwt>
<totfact> 0.92931860E+03</totfact>
</mgrwt>
</event>
<event>
 8    1  0.1154424E-005  0.1328290E+03  0.7546771E-02  0.1236420E+00
          1   -1    0    0  501    0  0.00000000000E+00  0.00000000000E+00  0.70437010302E+02  0.70437010302E+02  0.00000000000E+00 0. -1.
         -1   -1    0    0    0  501 -0.00000000000E+00 -0.00000000000E+00 -0.19718215908E+03  0.19718215908E+03  0.00000000000E+00 0.  1.
         23    2    1    2    0    0  0.39484851521E+02 -0.20936296913E+02 -0.56659288274E+02  0.14440854589E+03  0.12508465593E+03 0.  0.
         23    2    1    2    0    0 -0.39484851521E+02  0.20936296913E+02 -0.70085860508E+02  0.12321062350E+03  0.90947500631E+02 0.  0.
          5    1    3    3  502    0 -0.14187266898E+00  0.49407024869E+02 -0.87094721357E+01  0.50388680665E+02  0.47000000000E+01 0. -1.
         -5    1    3    3    0  502  0.39626724190E+02 -0.70343321782E+02 -0.47949816138E+02  0.94019865226E+02  0.47000000000E+01 0. -1.
        -11    1    4    4    0    0 -0.49845201284E+02  0.46489077732E+02 -0.66810977750E+02  0.95443623084E+02  0.00000000000E+00 0.  1.
         11    1    4    4    0    0  0.10360349763E+02 -0.25552780819E+02 -0.32748827582E+01  0.27767000412E+02  0.00000000000E+00 0. -1.
<mgrwt>
<rscale>  0 0.12413947E+03</rscale>
<asrwt>0</asrwt>
<pdfrwt beam="1">  1        1 0.10836463E-01 0.13282904E+03</pdfrwt>
<pdfrwt beam="2">  1       -1 0.30335716E-01 0.13282904E+03</pdfrwt>
<totfact> 0.54846137E+03</totfact>
</mgrwt>
</event>
<event>
 8    1  0.1154424E-005  0.1341106E+03  0.7546771E-02  0.1233240E+00
         -1   -1    0    0    0  501 -0.00000000000E+00  0.00000000000E+00  0.54459357964E+02  0.54459357964E+02  0.00000000000E+00 0.  1.
          1   -1    0    0  501    0  0.00000000000E+00 -0.00000000000E+00 -0.26936997191E+03  0.26936997191E+03  0.00000000000E+00 0. -1.
         23    2    1    2    0    0 -0.45282738862E+02  0.17636939271E+02 -0.94778369440E+02  0.16422114828E+03  0.12499623259E+03 0.  0.
         23    2    1    2    0    0  0.45282738862E+02 -0.17636939271E+02 -0.12013224450E+03  0.15960818159E+03  0.93174177738E+02 0.  0.
          5    1    3    3  502    0  0.11029235618E+02  0.61437610025E+02 -0.42884476029E+02  0.75877481826E+02  0.47000000000E+01 0. -1.
         -5    1    3    3    0  502 -0.56311974480E+02 -0.43800670754E+02 -0.51893893411E+02  0.88343666449E+02  0.47000000000E+01 0. -1.
        -11    1    4    4    0    0  0.21048379816E+02 -0.39165275795E+02 -0.11055660671E+02  0.45816817370E+02  0.00000000000E+00 0.  1.
         11    1    4    4    0    0  0.24234359046E+02  0.21528336525E+02 -0.10907658383E+03  0.11379136423E+03  0.00000000000E+00 0. -1.
<mgrwt>
<rscale>  0 0.12617788E+03</rscale>
<asrwt>0</asrwt>
<pdfrwt beam="2">  1        1 0.41441533E-01 0.13411057E+03</pdfrwt>
<pdfrwt beam="1">  1       -1 0.83783631E-02 0.13411057E+03</pdfrwt>
<totfact> 0.76448468E+03</totfact>
</mgrwt>
</event>
<event>
 8    1  0.1154424E-005  0.1945649E+03  0.7546771E-02  0.1158855E+00
          2   -1    0    0  501    0  0.00000000000E+00  0.00000000000E+00  0.23256341395E+03  0.23256341395E+03  0.00000000000E+00 0. -1.
         -2   -1    0    0    0  501 -0.00000000000E+00 -0.00000000000E+00 -0.28075537144E+03  0.28075537144E+03  0.00000000000E+00 0.  1.
         23    2    1    2    0    0 -0.10884804877E+03  0.10188884807E+03 -0.20173121775E+03  0.28026948010E+03  0.12500504860E+03 0.  0.
         23    2    1    2    0    0  0.10884804877E+03 -0.10188884807E+03  0.15353926026E+03  0.23304930528E+03  0.92241201028E+02 0.  0.
          5    1    3    3  502    0 -0.16694756566E+02  0.36163628773E+02  0.89199612222E+01  0.41087451260E+02  0.47000000000E+01 0.  1.
         -5    1    3    3    0  502 -0.92153292202E+02  0.65725219301E+02 -0.21065117898E+03  0.23918202884E+03  0.47000000000E+01 0.  1.
        -11    1    4    4    0    0  0.84992238726E+02 -0.11701282960E+03  0.11248750266E+03  0.18321877957E+03  0.00000000000E+00 0.  1.
         11    1    4    4    0    0  0.23855810042E+02  0.15123981522E+02  0.41051757608E+02  0.49830525710E+02  0.00000000000E+00 0. -1.
<mgrwt>
<rscale>  0 0.18956460E+03</rscale>
<asrwt>0</asrwt>
<pdfrwt beam="1">  1        2 0.35778987E-01 0.19456489E+03</pdfrwt>
<pdfrwt beam="2">  1       -2 0.43193134E-01 0.19456489E+03</pdfrwt>
<totfact> 0.74018196E+02</totfact>
</mgrwt>
</event>
<event>
 8    1  0.1154424E-005  0.1634204E+03  0.7546771E-02  0.1192206E+00
          1   -1    0    0  501    0  0.00000000000E+00  0.00000000000E+00  0.31685555646E+03  0.31685555646E+03  0.00000000000E+00 0. -1.
         -1   -1    0    0    0  501 -0.00000000000E+00 -0.00000000000E+00 -0.72194617559E+02  0.72194617559E+02  0.00000000000E+00 0.  1.
         23    2    1    2    0    0 -0.88576256245E+01  0.10490797787E+03  0.12717306066E+03  0.20707299641E+03  0.12498838799E+03 0.  0.
         23    2    1    2    0    0  0.88576256245E+01 -0.10490797787E+03  0.11748787824E+03  0.18197717761E+03  0.90709152151E+02 0.  0.
          5    1    3    3  502    0  0.27785126814E+02  0.11266844116E+03  0.61735473245E+02  0.13152775206E+03  0.47000000000E+01 0.  1.
         -5    1    3    3    0  502 -0.36642752439E+02 -0.77604632911E+01  0.65437587411E+02  0.75545244344E+02  0.47000000000E+01 0.  1.
        -11    1    4    4    0    0  0.47150569835E+02 -0.58379543694E+02  0.85472977591E+02  0.11374083372E+03  0.00000000000E+00 0. -1.
         11    1    4    4    0    0 -0.38292944210E+02 -0.46528434178E+02  0.32014900651E+02  0.68236343886E+02  0.00000000000E+00 0.  1.
<mgrwt>
<rscale>  0 0.15693109E+03</rscale>
<asrwt>0</asrwt>
<pdfrwt beam="1">  1        1 0.48747008E-01 0.16342043E+03</pdfrwt>
<pdfrwt beam="2">  1       -1 0.11106864E-01 0.16342043E+03</pdfrwt>
<totfact> 0.41114363E+03</totfact>
</mgrwt>
</event>
<event>
 8    1  0.1154424E-005  0.1584566E+03  0.7546771E-02  0.1198352E+00
         -1   -1    0    0    0  501 -0.00000000000E+00  0.00000000000E+00  0.14649970777E+03  0.14649970777E+03  0.00000000000E+00 0.  1.
          1   -1    0    0  501    0  0.00000000000E+00 -0.00000000000E+00 -0.17304572208E+03  0.17304572208E+03  0.00000000000E+00 0. -1.
         23    2    1    2    0    0  0.55577735034E+02 -0.79629615268E+02  0.49644992503E+02  0.16605158309E+03  0.12521478629E+03 0.  0.
         23    2    1    2    0    0 -0.55577735034E+02  0.79629615268E+02 -0.76191006812E+02  0.15349384676E+03  0.91244348954E+02 0.  0.
          5    1    3    3  502    0  0.95186776003E+02 -0.53073156457E+02  0.23965834221E+02  0.11168586962E+03  0.47000000000E+01 0.  1.
         -5    1    3    3    0  502 -0.39609040969E+02 -0.26556458812E+02  0.25679158281E+02  0.54365713471E+02  0.47000000000E+01 0.  1.
        -11    1    4    4    0    0 -0.63831823030E+01 -0.18423088957E+02  0.73038625943E+00  0.19511245146E+02  0.00000000000E+00 0.  1.
         11    1    4    4    0    0 -0.49194552731E+02  0.98052704225E+02 -0.76921393072E+02  0.13398260162E+03  0.00000000000E+00 0. -1.
<mgrwt>
<rscale>  0 0.15173955E+03</rscale>
<asrwt>0</asrwt>
<pdfrwt beam="2">  1        1 0.26622419E-01 0.15845663E+03</pdfrwt>
<pdfrwt beam="1">  1       -1 0.22538417E-01 0.15845663E+03</pdfrwt>
<totfact> 0.28476976E+03</totfact>
</mgrwt>
</event>
<event>
 8    1  0.1154424E-005  0.1264389E+03  0.7546771E-02  0.1248449E+00
         -2   -1    0    0    0  501 -0.00000000000E+00  0.00000000000E+00  0.15631950086E+03  0.15631950086E+03  0.00000000000E+00 0.  1.
          2   -1    0    0  501    0  0.00000000000E+00 -0.00000000000E+00 -0.18533956874E+03  0.18533956874E+03  0.00000000000E+00 0. -1.
         23    2    1    2    0    0 -0.44074091318E+01 -0.19339756402E+02  0.11485908513E+03  0.17081978017E+03  0.12487328149E+03 0.  0.
         23    2    1    2    0    0  0.44074091318E+01  0.19339756402E+02 -0.14387915301E+03  0.17083928942E+03  0.89952213459E+02 0.  0.
          5    1    3    3  502    0  0.36728064367E+02  0.22576458197E+02  0.18881362829E+01  0.43408550258E+02  0.47000000000E+01 0. -1.
         -5    1    3    3    0  502 -0.41135473499E+02 -0.41916214599E+02  0.11297094884E+03  0.12741122992E+03  0.47000000000E+01 0.  1.
        -11    1    4    4    0    0 -0.21349753798E+02 -0.24098116212E+02 -0.22229310598E+02  0.39123821923E+02  0.00000000000E+00 0.  1.
         11    1    4    4    0    0  0.25757162930E+02  0.43437872614E+02 -0.12164984241E+03  0.13171546750E+03  0.00000000000E+00 0. -1.
<mgrwt>
<rscale>  0 0.11681295E+03</rscale>
<asrwt>0</asrwt>
<pdfrwt beam="2">  1        2 0.28513780E-01 0.12643887E+03</pdfrwt>
<pdfrwt beam="1">  1       -2 0.24049154E-01 0.12643887E+03</pdfrwt>
<totfact> 0.27243650E+03</totfact>
</mgrwt>
</event>
<event>
 8    1  0.1154424E-005  0.1889822E+03  0.7546771E-02  0.1163837E+00
         -2   -1    0    0    0  501 -0.00000000000E+00  0.00000000000E+00  0.66992351430E+02  0.66992351430E+02  0.00000000000E+00 0.  1.
          2   -1    0    0  501    0  0.00000000000E+00 -0.00000000000E+00 -0.49227022354E+03  0.49227022354E+03  0.00000000000E+00 0. -1.
         23    2    1    2    0    0  0.12290306289E+03  0.70595984407E+02 -0.18311368203E+03  0.26314425844E+03  0.12500129728E+03 0.  0.
         23    2    1    2    0    0 -0.12290306289E+03 -0.70595984407E+02 -0.24216419007E+03  0.29611831652E+03  0.94623498907E+02 0.  0.
          5    1    3    3  502    0  0.63569687361E+02  0.10306261395E+03 -0.11796260635E+03  0.16911615547E+03  0.47000000000E+01 0. -1.
         -5    1    3    3    0  502  0.59333375528E+02 -0.32466629541E+02 -0.65151075684E+02  0.94028102970E+02  0.47000000000E+01 0. -1.
        -11    1    4    4    0    0 -0.45590492221E+02  0.19336961779E+02 -0.94830714540E+02  0.10698259434E+03  0.00000000000E+00 0.  1.
         11    1    4    4    0    0 -0.77312570668E+02 -0.89932946186E+02 -0.14733347553E+03  0.18913572218E+03  0.00000000000E+00 0. -1.
<mgrwt>
<rscale>  0 0.18415990E+03</rscale>
<asrwt>0</asrwt>
<pdfrwt beam="2">  1        2 0.75733881E-01 0.18898222E+03</pdfrwt>
<pdfrwt beam="1">  1       -2 0.10306516E-01 0.18898222E+03</pdfrwt>
<totfact> 0.39353182E+03</totfact>
</mgrwt>
</event>
<event>
 8    1  0.1154424E-005  0.1279845E+03  0.7546771E-02  0.1245017E+00
         -4   -1    0    0    0  501 -0.00000000000E+00  0.00000000000E+00  0.12047896837E+03  0.12047896837E+03  0.00000000000E+00 0.  1.
          4   -1    0    0  501    0  0.00000000000E+00 -0.00000000000E+00 -0.10525436417E+03  0.10525436417E+03  0.00000000000E+00 0. -1.
         23    2    1    2    0    0 -0.19640239589E+02 -0.19259388945E+02  0.23854524696E+02  0.13018861069E+03  0.12499349156E+03 0.  0.
         23    2    1    2    0    0  0.19640239589E+02  0.19259388945E+02 -0.86299205021E+01  0.95544721848E+02  0.91091466513E+02 0.  0.
          5    1    3    3  502    0 -0.62874933544E+02 -0.82780983646E+00  0.45969796539E+02  0.78033676904E+02  0.47000000000E+01 0. -1.
         -5    1    3    3    0  502  0.43234693955E+02 -0.18431579109E+02 -0.22115271843E+02  0.52154933789E+02  0.47000000000E+01 0. -1.
        -11    1    4    4    0    0  0.55409788693E+02  0.20764273609E+02 -0.25228431476E+01  0.59226383302E+02  0.00000000000E+00 0. -1.
         11    1    4    4    0    0 -0.35769549104E+02 -0.15048846635E+01 -0.61070773545E+01  0.36318338546E+02  0.00000000000E+00 0.  1.
<mgrwt>
<rscale>  0 0.11884339E+03</rscale>
<asrwt>0</asrwt>
<pdfrwt beam="2">  1        4 0.16192979E-01 0.12798451E+03</pdfrwt>
<pdfrwt beam="1">  1       -4 0.18535226E-01 0.12798451E+03</pdfrwt>
<totfact> 0.13855908E+03</totfact>
</mgrwt>
</event>
<event>
 8    1  0.1154424E-005  0.1511826E+03  0.7546771E-02  0.1205043E+00
         -3   -1    0    0    0  501 -0.00000000000E+00  0.00000000000E+00  0.73982044994E+03  0.73982044994E+03  0.00000000000E+00 0.  1.
          3   -1    0    0  501    0  0.00000000000E+00 -0.00000000000E+00 -0.44550712289E+02  0.44550712289E+02  0.00000000000E+00 0. -1.
         23    2    1    2    0    0 -0.57265417782E+02 -0.61930890506E+02  0.60562183140E+03  0.62420666989E+03  0.12546473925E+03 0.  0.
         23    2    1    2    0    0  0.57265417782E+02  0.61930890506E+02  0.89647906250E+02  0.16016449234E+03  0.10247513961E+03 0.  0.
          5    1    3    3  502    0  0.91649047437E+01 -0.38479789376E+02  0.49111683644E+02  0.63235568629E+02  0.47000000000E+01 0. -1.
         -5    1    3    3    0  502 -0.66430322526E+02 -0.23451101129E+02  0.55651014776E+03  0.56097110127E+03  0.47000000000E+01 0.  1.
        -11    1    4    4    0    0  0.62323925104E+02  0.82689000495E+02  0.92201927767E+02  0.13864681001E+03  0.00000000000E+00 0. -1.
         11    1    4    4    0    0 -0.50585073219E+01 -0.20758109989E+02 -0.25540215175E+01  0.21517682323E+02  0.00000000000E+00 0.  1.
<mgrwt>
<rscale>  0 0.14634046E+03</rscale>
<asrwt>0</asrwt>
<pdfrwt beam="2">  1        3 0.68539563E-02 0.15118255E+03</pdfrwt>
<pdfrwt beam="1">  1       -3 0.11381852E+00 0.15118255E+03</pdfrwt>
<totfact> 0.21775435E+02</totfact>
</mgrwt>
</event>
<event>
 8    1  0.1154424E-005  0.1254058E+03  0.7546771E-02  0.1246672E+00
          2   -1    0    0  501    0  0.00000000000E+00  0.00000000000E+00  0.48429466433E+03  0.48429466433E+03  0.00000000000E+00 0. -1.
         -2   -1    0    0    0  501 -0.00000000000E+00 -0.00000000000E+00 -0.26224174257E+02  0.26224174257E+02  0.00000000000E+00 0.  1.
         23    2    1    2    0    0  0.75080487260E+01  0.71201571450E+01  0.22186913246E+03  0.25485785539E+03  0.12497818643E+03 0.  0.
         23    2    1    2    0    0 -0.75080487260E+01 -0.71201571450E+01  0.23620135762E+03  0.25566098320E+03  0.97285094212E+02 0.  0.
          5    1    3    3  502    0  0.40506979012E+02  0.38027014417E+02  0.43306848504E+02  0.70600582869E+02  0.47000000000E+01 0. -1.
         -5    1    3    3    0  502 -0.32998930286E+02 -0.30906857272E+02  0.17856228395E+03  0.18425727252E+03  0.47000000000E+01 0. -1.
        -11    1    4    4    0    0  0.14457009570E+02  0.31858913035E+02  0.34786576159E+02  0.49336612635E+02  0.00000000000E+00 0.  1.
         11    1    4    4    0    0 -0.21965058296E+02 -0.38979070180E+02  0.20141478146E+03  0.20632437056E+03  0.00000000000E+00 0. -1.
<mgrwt>
<rscale>  0 0.11785838E+03</rscale>
<asrwt>0</asrwt>
<pdfrwt beam="1">  1        2 0.74506864E-01 0.12540580E+03</pdfrwt>
<pdfrwt beam="2">  1       -2 0.40344887E-02 0.12540580E+03</pdfrwt>
<totfact> 0.16410243E+04</totfact>
</mgrwt>
</event>
<event>
 8    1  0.1154424E-005  0.1307252E+03  0.7546771E-02  0.1240781E+00
          3   -1    0    0  501    0  0.00000000000E+00  0.00000000000E+00  0.11800436072E+03  0.11800436072E+03  0.00000000000E+00 0. -1.
         -3   -1    0    0    0  501 -0.00000000000E+00 -0.00000000000E+00 -0.11288800066E+03  0.11288800066E+03  0.00000000000E+00 0.  1.
         23    2    1    2    0    0  0.16316955340E+02  0.34596969279E+02 -0.14921212340E+02  0.13157404837E+03  0.12500357720E+03 0.  0.
         23    2    1    2    0    0 -0.16316955340E+02 -0.34596969279E+02  0.20037572398E+02  0.99318313013E+02  0.89439530842E+02 0.  0.
          5    1    3    3  502    0 -0.45560138976E+02  0.26575392016E+02  0.23729861050E+02  0.58027355875E+02  0.47000000000E+01 0. -1.
         -5    1    3    3    0  502  0.61877094317E+02  0.80215772628E+01 -0.38651073389E+02  0.73546692495E+02  0.47000000000E+01 0. -1.
        -11    1    4    4    0    0 -0.44948996864E+02  0.79765184739E+01  0.54276294850E+01  0.45972778118E+02  0.00000000000E+00 0.  1.
         11    1    4    4    0    0  0.28632041524E+02 -0.42573487753E+02  0.14609942913E+02  0.53345534895E+02  0.00000000000E+00 0. -1.
<mgrwt>
<rscale>  0 0.12141463E+03</rscale>
<asrwt>0</asrwt>
<pdfrwt beam="1">  1        3 0.18154517E-01 0.13072524E+03</pdfrwt>
<pdfrwt beam="2">  1       -3 0.17367385E-01 0.13072524E+03</pdfrwt>
<totfact> 0.17473408E+03</totfact>
</mgrwt>
</event>
<event>
 8    1  0.1154424E-005  0.1482123E+03  0.7546771E-02  0.1213413E+00
          1   -1    0    0  501    0  0.00000000000E+00  0.00000000000E+00  0.15016318643E+03  0.15016318643E+03  0.00000000000E+00 0. -1.
         -1   -1    0    0    0  501 -0.00000000000E+00 -0.00000000000E+00 -0.13538653361E+03  0.13538653361E+03  0.00000000000E+00 0.  1.
         23    2    1    2    0    0 -0.45954857190E+02 -0.65044011273E+02 -0.43048876702E+02  0.15433758734E+03  0.12499725108E+03 0.  0.
         23    2    1    2    0    0  0.45954857190E+02  0.65044011273E+02  0.57825529522E+02  0.13121213271E+03  0.86777068424E+02 0.  0.
          5    1    3    3  502    0  0.36921070916E+02 -0.51415452789E+02 -0.11561655237E+02  0.64517254552E+02  0.47000000000E+01 0. -1.
         -5    1    3    3    0  502 -0.82875928106E+02 -0.13628558484E+02 -0.31487221464E+02  0.89820332783E+02  0.47000000000E+01 0. -1.
        -11    1    4    4    0    0 -0.12297268068E+02 -0.14281894109E+02  0.14003773670E+02  0.23479799367E+02  0.00000000000E+00 0.  1.
         11    1    4    4    0    0  0.58252125258E+02  0.79325905382E+02  0.43821755851E+02  0.10773233334E+03  0.00000000000E+00 0. -1.
<mgrwt>
<rscale>  0 0.13993741E+03</rscale>
<asrwt>0</asrwt>
<pdfrwt beam="1">  1        1 0.23102029E-01 0.14821230E+03</pdfrwt>
<pdfrwt beam="2">  1       -1 0.20828697E-01 0.14821230E+03</pdfrwt>
<totfact> 0.38574409E+03</totfact>
</mgrwt>
</event>
<event>
 8    1  0.1154424E-005  0.1828699E+03  0.7546771E-02  0.1170266E+00
          2   -1    0    0  501    0  0.00000000000E+00  0.00000000000E+00  0.11928174283E+04  0.11928174283E+04  0.00000000000E+00 0. -1.
         -2   -1    0    0    0  501 -0.00000000000E+00 -0.00000000000E+00 -0.26523333681E+02  0.26523333681E+02  0.00000000000E+00 0.  1.
         23    2    1    2    0    0 -0.20521558639E+01  0.13346153246E+03  0.46827203612E+03  0.50271272737E+03  0.12500077783E+03 0.  0.
         23    2    1    2    0    0  0.20521558639E+01 -0.13346153246E+03  0.69802205852E+03  0.71662803463E+03  0.92221222350E+02 0.  0.
          5    1    3    3  502    0 -0.42335168540E+01 -0.19527055168E+02  0.18600033696E+02  0.27699815919E+02  0.47000000000E+01 0.  1.
         -5    1    3    3    0  502  0.21813609901E+01  0.15298858763E+03  0.44967200243E+03  0.47501291145E+03  0.47000000000E+01 0.  1.
        -11    1    4    4    0    0  0.45511816796E+02 -0.61268029598E+02  0.28119088466E+03  0.29136473797E+03  0.00000000000E+00 0.  1.
         11    1    4    4    0    0 -0.43459660933E+02 -0.72193502863E+02  0.41683117387E+03  0.42526329666E+03  0.00000000000E+00 0. -1.
<mgrwt>
<rscale>  0 0.17747790E+03</rscale>
<asrwt>0</asrwt>
<pdfrwt beam="1">  1        2 0.18351033E+00 0.18286986E+03</pdfrwt>
<pdfrwt beam="2">  1       -2 0.40805138E-02 0.18286986E+03</pdfrwt>
<totfact> 0.53181764E+03</totfact>
</mgrwt>
</event>
<event>
 8    1  0.1154424E-005  0.1357286E+03  0.7546771E-02  0.1230934E+00
         -4   -1    0    0    0  501 -0.00000000000E+00  0.00000000000E+00  0.10309245472E+03  0.10309245472E+03  0.00000000000E+00 0.  1.
          4   -1    0    0  501    0  0.00000000000E+00 -0.00000000000E+00 -0.14224059562E+03  0.14224059562E+03  0.00000000000E+00 0. -1.
         23    2    1    2    0    0 -0.28719340747E+02 -0.44412349871E+02 -0.17477532068E+02  0.13684926449E+03  0.12499999884E+03 0.  0.
         23    2    1    2    0    0  0.28719340747E+02  0.44412349871E+02 -0.21670608824E+02  0.10848378584E+03  0.92205526680E+02 0.  0.
          5    1    3    3  502    0  0.12804220399E+02 -0.60151204509E+02  0.32592103434E+02  0.69759950330E+02  0.47000000000E+01 0.  1.
         -5    1    3    3    0  502 -0.41523561146E+02  0.15738854638E+02 -0.50069635502E+02  0.67089314163E+02  0.47000000000E+01 0.  1.
        -11    1    4    4    0    0 -0.33850642602E+02  0.13911072669E+02 -0.53367695530E+01  0.36984659748E+02  0.00000000000E+00 0.  1.
         11    1    4    4    0    0  0.62569983349E+02  0.30501277202E+02 -0.16333839271E+02  0.71499126097E+02  0.00000000000E+00 0. -1.
<mgrwt>
<rscale>  0 0.12768331E+03</rscale>
<asrwt>0</asrwt>
<pdfrwt beam="2">  1        4 0.21883168E-01 0.13572862E+03</pdfrwt>
<pdfrwt beam="1">  1       -4 0.15860378E-01 0.13572862E+03</pdfrwt>
<totfact> 0.10795421E+03</totfact>
</mgrwt>
</event>
<event>
 8    1  0.1154424E-005  0.1352303E+03  0.7546771E-02  0.1232272E+00
         -1   -1    0    0    0  501 -0.00000000000E+00  0.00000000000E+00  0.33785352421E+02  0.33785352421E+02  0.00000000000E+00 0.  1.
          1   -1    0    0  501    0  0.00000000000E+00 -0.00000000000E+00 -0.42643415588E+03  0.42643415588E+03  0.00000000000E+00 0. -1.
         23    2    1    2    0    0  0.50634381471E+02  0.98826097067E+01 -0.23229145237E+03  0.26878720393E+03  0.12500294233E+03 0.  0.
         23    2    1    2    0    0 -0.50634381471E+02 -0.98826097067E+01 -0.16035735109E+03  0.19143230438E+03  0.90941412721E+02 0.  0.
          5    1    3    3  502    0  0.64344869310E+02  0.42149512714E+02 -0.21695031271E+03  0.23023112694E+03  0.47000000000E+01 0.  1.
         -5    1    3    3    0  502 -0.13710487838E+02 -0.32266903007E+02 -0.15341139659E+02  0.38556076985E+02  0.47000000000E+01 0.  1.
        -11    1    4    4    0    0 -0.70031857447E+02  0.14796081038E+02 -0.95186317700E+02  0.11909584438E+03  0.00000000000E+00 0.  1.
         11    1    4    4    0    0  0.19397475976E+02 -0.24678690744E+02 -0.65171033393E+02  0.72336459995E+02  0.00000000000E+00 0. -1.
<mgrwt>
<rscale>  0 0.12680672E+03</rscale>
<asrwt>0</asrwt>
<pdfrwt beam="2">  1        1 0.65605255E-01 0.13523033E+03</pdfrwt>
<pdfrwt beam="1">  1       -1 0.51977465E-02 0.13523033E+03</pdfrwt>
<totfact> 0.88092337E+03</totfact>
</mgrwt>
</event>
<event>
 8    1  0.1154424E-005  0.2125195E+03  0.7546771E-02  0.1143038E+00
          3   -1    0    0  501    0  0.00000000000E+00  0.00000000000E+00  0.20959074371E+03  0.20959074371E+03  0.00000000000E+00 0. -1.
         -3   -1    0    0    0  501 -0.00000000000E+00 -0.00000000000E+00 -0.19900065854E+03  0.19900065854E+03  0.00000000000E+00 0.  1.
         23    2    1    2    0    0 -0.15891758048E+02  0.17113460340E+03  0.14025693326E+02  0.21298186587E+03  0.12499981864E+03 0.  0.
         23    2    1    2    0    0  0.15891758048E+02 -0.17113460340E+03 -0.34356081588E+01  0.19560953638E+03  0.93336417678E+02 0.  0.
          5    1    3    3  502    0  0.31615895803E+02  0.10335517564E+03  0.54034627294E+02  0.12092844225E+03  0.47000000000E+01 0. -1.
         -5    1    3    3    0  502 -0.47507653851E+02  0.67779427756E+02 -0.40008933968E+02  0.92053423612E+02  0.47000000000E+01 0. -1.
        -11    1    4    4    0    0 -0.96047529410E+01 -0.80144713018E+01  0.25115451083E+02  0.28058312715E+02  0.00000000000E+00 0. -1.
         11    1    4    4    0    0  0.25496510989E+02 -0.16312013210E+03 -0.28551059241E+02  0.16755122367E+03  0.00000000000E+00 0.  1.
<mgrwt>
<rscale>  0 0.20815167E+03</rscale>
<asrwt>0</asrwt>
<pdfrwt beam="1">  1        3 0.32244730E-01 0.21251954E+03</pdfrwt>
<pdfrwt beam="2">  1       -3 0.30615486E-01 0.21251954E+03</pdfrwt>
<totfact> 0.23823302E+02</totfact>
</mgrwt>
</event>
<event>
 8    1  0.1154424E-005  0.1268142E+03  0.7546771E-02  0.1248341E+00
          1   -1    0    0  501    0  0.00000000000E+00  0.00000000000E+00  0.46934580776E+03  0.46934580776E+03  0.00000000000E+00 0. -1.
         -1   -1    0    0    0  501 -0.00000000000E+00 -0.00000000000E+00 -0.25532143951E+02  0.25532143951E+02  0.00000000000E+00 0.  1.
         23    2    1    2    0    0 -0.36044520877E+01 -0.20873523363E+02  0.23912158739E+03  0.27066766962E+03  0.12503262681E+03 0.  0.
         23    2    1    2    0    0  0.36044520877E+01  0.20873523363E+02  0.20469207642E+03  0.22421028209E+03  0.89009597212E+02 0.  0.
          5    1    3    3  502    0  0.39780427735E+02 -0.44372291965E+02  0.59536556242E+02  0.84368680529E+02  0.47000000000E+01 0.  1.
         -5    1    3    3    0  502 -0.43384879823E+02  0.23498768602E+02  0.17958503115E+03  0.18629898909E+03  0.47000000000E+01 0.  1.
        -11    1    4    4    0    0  0.37392105820E+02 -0.15421802450E+02  0.11213209223E+03  0.11920405898E+03  0.00000000000E+00 0. -1.
         11    1    4    4    0    0 -0.33787653732E+02  0.36295325813E+02  0.92559984183E+02  0.10500622311E+03  0.00000000000E+00 0.  1.
<mgrwt>
<rscale>  0 0.11687613E+03</rscale>
<asrwt>0</asrwt>
<pdfrwt beam="1">  1        1 0.72207041E-01 0.12681425E+03</pdfrwt>
<pdfrwt beam="2">  1       -1 0.39280225E-02 0.12681425E+03</pdfrwt>
<totfact> 0.11717771E+04</totfact>
</mgrwt>
</event>
<event>
 8    1  0.1154424E-005  0.1253989E+03  0.7546771E-02  0.1246835E+00
         -2   -1    0    0    0  501 -0.00000000000E+00  0.00000000000E+00  0.41845962106E+02  0.41845962106E+02  0.00000000000E+00 0.  1.
          2   -1    0    0  501    0  0.00000000000E+00 -0.00000000000E+00 -0.29760968485E+03  0.29760968485E+03  0.00000000000E+00 0. -1.
         23    2    1    2    0    0  0.60221821890E+01  0.78522717473E+01 -0.15200644181E+03  0.19705542259E+03  0.12500782523E+03 0.  0.
         23    2    1    2    0    0 -0.60221821890E+01 -0.78522717473E+01 -0.10375728094E+03  0.14240022437E+03  0.97027448197E+02 0.  0.
          5    1    3    3  502    0 -0.38250078829E+02 -0.18542835562E+02 -0.13647346776E+03  0.14301749083E+03  0.47000000000E+01 0.  1.
         -5    1    3    3    0  502  0.44272261018E+02  0.26395107309E+02 -0.15532974045E+02  0.54037931753E+02  0.47000000000E+01 0.  1.
        -11    1    4    4    0    0  0.39055010206E+02  0.20275546752E+02 -0.40683528711E+02  0.59929467932E+02  0.00000000000E+00 0. -1.
         11    1    4    4    0    0 -0.45077192395E+02 -0.28127818499E+02 -0.63073752226E+02  0.82470756439E+02  0.00000000000E+00 0.  1.
<mgrwt>
<rscale>  0 0.11776214E+03</rscale>
<asrwt>0</asrwt>
<pdfrwt beam="2">  1        2 0.45786103E-01 0.12539889E+03</pdfrwt>
<pdfrwt beam="1">  1       -2 0.64378406E-02 0.12539889E+03</pdfrwt>
<totfact> 0.13678611E+04</totfact>
</mgrwt>
</event>
<event>
 8    1  0.1154424E-005  0.1252145E+03  0.7546771E-02  0.1249860E+00
          2   -1    0    0  501    0  0.00000000000E+00  0.00000000000E+00  0.32134162432E+03  0.32134162432E+03  0.00000000000E+00 0. -1.
         -2   -1    0    0    0  501 -0.00000000000E+00 -0.00000000000E+00 -0.41159277576E+02  0.41159277576E+02  0.00000000000E+00 0.  1.
         23    2    1    2    0    0 -0.32579679616E+01  0.64131989971E+01  0.10055746858E+03  0.16059411192E+03  0.12500768304E+03 0.  0.
         23    2    1    2    0    0  0.32579679616E+01 -0.64131989971E+01  0.17962487816E+03  0.20190678997E+03  0.91921224461E+02 0.  0.
          5    1    3    3  502    0 -0.19356530990E+02  0.41863970735E+02  0.11075989140E+03  0.12007127417E+03  0.47000000000E+01 0. -1.
         -5    1    3    3    0  502  0.16098563028E+02 -0.35450771737E+02 -0.10202422816E+02  0.40522837754E+02  0.47000000000E+01 0. -1.
        -11    1    4    4    0    0 -0.34322056976E+02 -0.21227181122E+01  0.24463195728E+02  0.42201391830E+02  0.00000000000E+00 0.  1.
         11    1    4    4    0    0  0.37580024937E+02 -0.42904808849E+01  0.15516168243E+03  0.15970539814E+03  0.00000000000E+00 0. -1.
<mgrwt>
<rscale>  0 0.11599153E+03</rscale>
<asrwt>0</asrwt>
<pdfrwt beam="1">  1        2 0.49437171E-01 0.12521447E+03</pdfrwt>
<pdfrwt beam="2">  1       -2 0.63321968E-02 0.12521447E+03</pdfrwt>
<totfact> 0.12932880E+04</totfact>
</mgrwt>
</event>
<event>
 8    1  0.1154424E-005  0.1383376E+03  0.7546771E-02  0.1227405E+00
         -2   -1    0    0    0  501 -0.00000000000E+00  0.00000000000E+00  0.27693268509E+02  0.27693268509E+02  0.00000000000E+00 0.  1.
          2   -1    0    0  501    0  0.00000000000E+00 -0.00000000000E+00 -0.55525334490E+03  0.55525334490E+03  0.00000000000E+00 0. -1.
         23    2    1    2    0    0 -0.53895396495E+02 -0.24470006945E+02 -0.26230485991E+03  0.29654868761E+03  0.12503515340E+03 0.  0.
         23    2    1    2    0    0  0.53895396495E+02  0.24470006945E+02 -0.26525521648E+03  0.28639792580E+03  0.90332425128E+02 0.  0.
          5    1    3    3  502    0 -0.65493829922E+02 -0.22930583463E+02 -0.27193150123E+03  0.28068502770E+03  0.47000000000E+01 0. -1.
         -5    1    3    3    0  502  0.11598433427E+02 -0.15394234816E+01  0.96266413173E+01  0.15863659908E+02  0.47000000000E+01 0. -1.
        -11    1    4    4    0    0 -0.17681717964E+02 -0.15037483029E+02 -0.91048945508E+02  0.93961053231E+02  0.00000000000E+00 0. -1.
         11    1    4    4    0    0  0.71577114459E+02  0.39507489974E+02 -0.17420627097E+03  0.19243687257E+03  0.00000000000E+00 0.  1.
<mgrwt>
<rscale>  0 0.13003446E+03</rscale>
<asrwt>0</asrwt>
<pdfrwt beam="2">  1        2 0.85423595E-01 0.13833757E+03</pdfrwt>
<pdfrwt beam="1">  1       -2 0.42605027E-02 0.13833757E+03</pdfrwt>
<totfact> 0.13114028E+04</totfact>
</mgrwt>
</event>
<event>
 8    1  0.1154424E-005  0.1607367E+03  0.7546771E-02  0.1195562E+00
         -1   -1    0    0    0  501 -0.00000000000E+00  0.00000000000E+00  0.65911947292E+02  0.65911947292E+02  0.00000000000E+00 0.  1.
          1   -1    0    0  501    0  0.00000000000E+00 -0.00000000000E+00 -0.36052132506E+03  0.36052132506E+03  0.00000000000E+00 0. -1.
         23    2    1    2    0    0 -0.83978663798E+01  0.10070970897E+03 -0.10036785989E+03  0.18949932285E+03  0.12499326551E+03 0.  0.
         23    2    1    2    0    0  0.83978663798E+01 -0.10070970897E+03 -0.19424151788E+03  0.23693394950E+03  0.90526015687E+02 0.  0.
          5    1    3    3  502    0  0.53721561413E+01  0.24296192223E+02 -0.10838213042E+03  0.11130112854E+03  0.47000000000E+01 0. -1.
         -5    1    3    3    0  502 -0.13770022521E+02  0.76413516746E+02  0.80142705393E+01  0.78198194314E+02  0.47000000000E+01 0. -1.
        -11    1    4    4    0    0  0.21613509762E+02 -0.61409572553E+02 -0.18261439381E+03  0.19387185519E+03  0.00000000000E+00 0. -1.
         11    1    4    4    0    0 -0.13215643383E+02 -0.39300136416E+02 -0.11627124063E+02  0.43062094310E+02  0.00000000000E+00 0.  1.
<mgrwt>
<rscale>  0 0.15406781E+03</rscale>
<asrwt>0</asrwt>
<pdfrwt beam="2">  1        1 0.55464819E-01 0.16073670E+03</pdfrwt>
<pdfrwt beam="1">  1       -1 0.10140300E-01 0.16073670E+03</pdfrwt>
<totfact> 0.40205744E+03</totfact>
</mgrwt>
</event>
<event>
 8    1  0.1154424E-005  0.1415062E+03  0.7546771E-02  0.1221497E+00
         -3   -1    0    0    0  501 -0.00000000000E+00  0.00000000000E+00  0.29556208806E+03  0.29556208806E+03  0.00000000000E+00 0.  1.
          3   -1    0    0  501    0  0.00000000000E+00 -0.00000000000E+00 -0.55309046369E+02  0.55309046369E+02  0.00000000000E+00 0. -1.
         23    2    1    2    0    0  0.76868969770E+00  0.66314600613E+02  0.13740113870E+03  0.19723864593E+03  0.12500317354E+03 0.  0.
         23    2    1    2    0    0 -0.76868969770E+00 -0.66314600613E+02  0.10285190299E+03  0.15363248849E+03  0.92877394627E+02 0.  0.
          5    1    3    3  502    0 -0.15890114337E+02  0.87859730274E+02  0.43642528017E+02  0.99491648841E+02  0.47000000000E+01 0. -1.
         -5    1    3    3    0  502  0.16658804035E+02 -0.21545129661E+02  0.93758610681E+02  0.97746997093E+02  0.47000000000E+01 0. -1.
        -11    1    4    4    0    0 -0.13599544834E+02 -0.10137466477E+02  0.93776753429E+02  0.95298453975E+02  0.00000000000E+00 0.  1.
         11    1    4    4    0    0  0.12830855137E+02 -0.56177134136E+02  0.90751495607E+01  0.58334034515E+02  0.00000000000E+00 0. -1.
<mgrwt>
<rscale>  0 0.13409929E+03</rscale>
<asrwt>0</asrwt>
<pdfrwt beam="2">  1        3 0.85090842E-02 0.14150622E+03</pdfrwt>
<pdfrwt beam="1">  1       -3 0.45471090E-01 0.14150622E+03</pdfrwt>
<totfact> 0.10800139E+03</totfact>
</mgrwt>
</event>
<event>
 8    1  0.1154424E-005  0.1371197E+03  0.7546771E-02  0.1227592E+00
         -3   -1    0    0    0  501 -0.00000000000E+00  0.00000000000E+00  0.22128103448E+03  0.22128103448E+03  0.00000000000E+00 0.  1.
          3   -1    0    0  501    0  0.00000000000E+00 -0.00000000000E+00 -0.13019059273E+03  0.13019059273E+03  0.00000000000E+00 0. -1.
         23    2    1    2    0    0  0.17819917396E+02 -0.53470451468E+02  0.16800881190E+03  0.21686118136E+03  0.12500068988E+03 0.  0.
         23    2    1    2    0    0 -0.17819917396E+02  0.53470451468E+02 -0.76918370138E+02  0.13461044585E+03  0.95009988058E+02 0.  0.
          5    1    3    3  502    0  0.61986732281E+02 -0.63293309230E+02  0.13102686894E+03  0.15823567346E+03  0.47000000000E+01 0. -1.
         -5    1    3    3    0  502 -0.44166814884E+02  0.98228577623E+01  0.36981942960E+02  0.58625507902E+02  0.47000000000E+01 0. -1.
        -11    1    4    4    0    0  0.15519911772E+02  0.30474116988E+02  0.12528551086E+02  0.36421203439E+02  0.00000000000E+00 0.  1.
         11    1    4    4    0    0 -0.33339829169E+02  0.22996334480E+02 -0.89446921224E+02  0.98189242410E+02  0.00000000000E+00 0. -1.
<mgrwt>
<rscale>  0 0.12990791E+03</rscale>
<asrwt>0</asrwt>
<pdfrwt beam="2">  1        3 0.20029322E-01 0.13711970E+03</pdfrwt>
<pdfrwt beam="1">  1       -3 0.34043236E-01 0.13711970E+03</pdfrwt>
<totfact> 0.44049741E+02</totfact>
</mgrwt>
</event>
<event>
 8    1  0.1154424E-005  0.1329345E+03  0.7546771E-02  0.1235857E+00
         -2   -1    0    0    0  501 -0.00000000000E+00  0.00000000000E+00  0.58007587940E+03  0.58007587940E+03  0.00000000000E+00 0.  1.
          2   -1    0    0  501    0  0.00000000000E+00 -0.00000000000E+00 -0.44001779128E+02  0.44001779128E+02  0.00000000000E+00 0. -1.
         23    2    1    2    0    0 -0.16880855717E+02 -0.41977069054E+02  0.49721415916E+03  0.51467806603E+03  0.12499821584E+03 0.  0.
         23    2    1    2    0    0  0.16880855717E+02  0.41977069054E+02  0.38859941110E+02  0.10939959250E+03  0.91712257634E+02 0.  0.
          5    1    3    3  502    0 -0.57225144071E+02 -0.39318750568E+02  0.15320600951E+03  0.16827017742E+03  0.47000000000E+01 0. -1.
         -5    1    3    3    0  502  0.40344288354E+02 -0.26583184859E+01  0.34400814965E+03  0.34640788860E+03  0.47000000000E+01 0. -1.
        -11    1    4    4    0    0 -0.36155075414E+02  0.14579100788E+02  0.15710076541E+01  0.39015480556E+02  0.00000000000E+00 0.  1.
         11    1    4    4    0    0  0.53035931131E+02  0.27397968266E+02  0.37288933456E+02  0.70384111946E+02  0.00000000000E+00 0. -1.
<mgrwt>
<rscale>  0 0.12449742E+03</rscale>
<asrwt>0</asrwt>
<pdfrwt beam="2">  1        2 0.67695049E-02 0.13293454E+03</pdfrwt>
<pdfrwt beam="1">  1       -2 0.89242438E-01 0.13293454E+03</pdfrwt>
<totfact> 0.11406849E+03</totfact>
</mgrwt>
</event>
<event>
 8    1  0.1154424E-005  0.1315830E+03  0.7546771E-02  0.1239983E+00
         -3   -1    0    0    0  501 -0.00000000000E+00  0.00000000000E+00  0.76602328063E+03  0.76602328063E+03  0.00000000000E+00 0.  1.
          3   -1    0    0  501    0  0.00000000000E+00 -0.00000000000E+00 -0.28345402624E+02  0.28345402624E+02  0.00000000000E+00 0. -1.
         23    2    1    2    0    0 -0.32747962732E+02  0.24955766867E+02  0.65150721120E+03  0.66466211000E+03  0.12497541698E+03 0.  0.
         23    2    1    2    0    0  0.32747962732E+02 -0.24955766867E+02  0.86170666806E+02  0.12970657326E+03  0.87767829909E+02 0.  0.
          5    1    3    3  502    0 -0.73462421254E+02  0.36213299185E+02  0.52069774674E+03  0.52712082470E+03  0.47000000000E+01 0.  1.
         -5    1    3    3    0  502  0.40714458522E+02 -0.11257532318E+02  0.13080946447E+03  0.13754128530E+03  0.47000000000E+01 0.  1.
        -11    1    4    4    0    0  0.40303411200E+01  0.19346515063E+02  0.72534341196E+02  0.75178201278E+02  0.00000000000E+00 0.  1.
         11    1    4    4    0    0  0.28717621612E+02 -0.44302281930E+02  0.13636325610E+02  0.54528371985E+02  0.00000000000E+00 0. -1.
<mgrwt>
<rscale>  0 0.12190781E+03</rscale>
<asrwt>0</asrwt>
<pdfrwt beam="2">  1        3 0.43608318E-02 0.13158296E+03</pdfrwt>
<pdfrwt beam="1">  1       -3 0.11784972E+00 0.13158296E+03</pdfrwt>
<totfact> 0.40497747E+02</totfact>
</mgrwt>
</event>
<event>
 8    1  0.1154424E-005  0.1490884E+03  0.7546771E-02  0.1211443E+00
          2   -1    0    0  501    0  0.00000000000E+00  0.00000000000E+00  0.14134265034E+03  0.14134265034E+03  0.00000000000E+00 0. -1.
         -2   -1    0    0    0  501 -0.00000000000E+00 -0.00000000000E+00 -0.19590552820E+03  0.19590552820E+03  0.00000000000E+00 0.  1.
         23    2    1    2    0    0 -0.48064964909E+02 -0.65497269604E+02 -0.12756541221E+03  0.19621487023E+03  0.12500883061E+03 0.  0.
         23    2    1    2    0    0  0.48064964909E+02  0.65497269604E+02  0.73002534346E+02  0.14103330831E+03  0.89223824476E+02 0.  0.
          5    1    3    3  502    0  0.35097251432E+02 -0.25850911928E+02 -0.82770648986E+02  0.93665132462E+02  0.47000000000E+01 0. -1.
         -5    1    3    3    0  502 -0.83162216342E+02 -0.39646357676E+02 -0.44794763223E+02  0.10254973777E+03  0.47000000000E+01 0. -1.
        -11    1    4    4    0    0  0.37136267126E+02 -0.18107452966E+01 -0.49007990854E+01  0.37501986164E+02  0.00000000000E+00 0.  1.
         11    1    4    4    0    0  0.10928697783E+02  0.67308014901E+02  0.77903333431E+02  0.10353132214E+03  0.00000000000E+00 0. -1.
<mgrwt>
<rscale>  0 0.14141055E+03</rscale>
<asrwt>0</asrwt>
<pdfrwt beam="1">  1        2 0.21745023E-01 0.14908837E+03</pdfrwt>
<pdfrwt beam="2">  1       -2 0.30139312E-01 0.14908837E+03</pdfrwt>
<totfact> 0.24851022E+03</totfact>
</mgrwt>
</event>
<event>
 8    1  0.1154424E-005  0.1669960E+03  0.7546771E-02  0.1187939E+00
          2   -1    0    0  501    0  0.00000000000E+00  0.00000000000E+00  0.28171034221E+03  0.28171034221E+03  0.00000000000E+00 0. -1.
         -2   -1    0    0    0  501 -0.00000000000E+00 -0.00000000000E+00 -0.88879300121E+02  0.88879300121E+02  0.00000000000E+00 0.  1.
         23    2    1    2    0    0 -0.11070808110E+03 -0.25625237306E+01  0.66663075795E+02  0.17980999477E+03  0.12499929119E+03 0.  0.
         23    2    1    2    0    0  0.11070808110E+03  0.25625237306E+01  0.12616796629E+03  0.19077964755E+03  0.90640346721E+02 0.  0.
          5    1    3    3  502    0 -0.66780144980E+02 -0.60978650725E+02  0.19296683302E+02  0.92587448362E+02  0.47000000000E+01 0. -1.
         -5    1    3    3    0  502 -0.43927936121E+02  0.58416126994E+02  0.47366392493E+02  0.87222546412E+02  0.47000000000E+01 0. -1.
        -11    1    4    4    0    0  0.54963900156E+02  0.91980795683E+01  0.12243109217E+03  0.13451768404E+03  0.00000000000E+00 0. -1.
         11    1    4    4    0    0  0.55744180945E+02 -0.66355558377E+01  0.37368741173E+01  0.56261963516E+02  0.00000000000E+00 0.  1.
<mgrwt>
<rscale>  0 0.16067263E+03</rscale>
<asrwt>0</asrwt>
<pdfrwt beam="1">  1        2 0.43340052E-01 0.16699601E+03</pdfrwt>
<pdfrwt beam="2">  1       -2 0.13673739E-01 0.16699601E+03</pdfrwt>
<totfact> 0.45383634E+03</totfact>
</mgrwt>
</event>
<event>
 8    1  0.1154424E-005  0.1446126E+03  0.7546771E-02  0.1217624E+00
          1   -1    0    0  501    0  0.00000000000E+00  0.00000000000E+00  0.22722638813E+03  0.22722638813E+03  0.00000000000E+00 0. -1.
         -1   -1    0    0    0  501 -0.00000000000E+00 -0.00000000000E+00 -0.74811832366E+02  0.74811832366E+02  0.00000000000E+00 0.  1.
         23    2    1    2    0    0 -0.33941290215E+02  0.64302344233E+02  0.89785410069E+02  0.17021817409E+03  0.12500401703E+03 0.  0.
         23    2    1    2    0    0  0.33941290215E+02 -0.64302344233E+02  0.62629145695E+02  0.13182004640E+03  0.90373182349E+02 0.  0.
          5    1    3    3  502    0 -0.15488218852E+01 -0.34741344405E+02  0.44052700634E+02  0.56321312959E+02  0.47000000000E+01 0.  1.
         -5    1    3    3    0  502 -0.32392468330E+02  0.99043688638E+02  0.45732709435E+02  0.11389686113E+03  0.47000000000E+01 0.  1.
        -11    1    4    4    0    0 -0.28004517096E+02 -0.25213198827E+02  0.38015195320E+01  0.37873604577E+02  0.00000000000E+00 0.  1.
         11    1    4    4    0    0  0.61945807311E+02 -0.39089145406E+02  0.58827626163E+02  0.93946441826E+02  0.00000000000E+00 0. -1.
<mgrwt>
<rscale>  0 0.13685527E+03</rscale>
<asrwt>0</asrwt>
<pdfrwt beam="1">  1        1 0.34957906E-01 0.14461261E+03</pdfrwt>
<pdfrwt beam="2">  1       -1 0.11509513E-01 0.14461261E+03</pdfrwt>
<totfact> 0.58415527E+03</totfact>
</mgrwt>
</event>
<event>
 8    1  0.1154424E-005  0.1351403E+03  0.7546771E-02  0.1231624E+00
          1   -1    0    0  501    0  0.00000000000E+00  0.00000000000E+00  0.38001777284E+03  0.38001777284E+03  0.00000000000E+00 0. -1.
         -1   -1    0    0    0  501 -0.00000000000E+00 -0.00000000000E+00 -0.43077811216E+02  0.43077811216E+02  0.00000000000E+00 0.  1.
         23    2    1    2    0    0 -0.49759840102E+02 -0.12723099707E+02  0.11651676084E+03  0.17843502415E+03  0.12499993333E+03 0.  0.
         23    2    1    2    0    0  0.49759840102E+02  0.12723099707E+02  0.22042320079E+03  0.24466055991E+03  0.92921919788E+02 0.  0.
          5    1    3    3  502    0 -0.62432428402E+02  0.44179480197E+02  0.64299418256E+02  0.10003069416E+03  0.47000000000E+01 0. -1.
         -5    1    3    3    0  502  0.12672588300E+02 -0.56902579904E+02  0.52217342580E+02  0.78404329983E+02  0.47000000000E+01 0. -1.
        -11    1    4    4    0    0 -0.20961377523E+02  0.22434433023E+02  0.38569949083E+02  0.49298317466E+02  0.00000000000E+00 0.  1.
         11    1    4    4    0    0  0.70721217625E+02 -0.97113333162E+01  0.18185325171E+03  0.19536224245E+03  0.00000000000E+00 0. -1.
<mgrwt>
<rscale>  0 0.12723035E+03</rscale>
<asrwt>0</asrwt>
<pdfrwt beam="1">  1        1 0.58464270E-01 0.13514031E+03</pdfrwt>
<pdfrwt beam="2">  1       -1 0.66273558E-02 0.13514031E+03</pdfrwt>
<totfact> 0.70961554E+03</totfact>
</mgrwt>
</event>
<event>
 8    1  0.1154424E-005  0.1408510E+03  0.7546771E-02  0.1223651E+00
         -2   -1    0    0    0  501 -0.00000000000E+00  0.00000000000E+00  0.95411218529E+02  0.95411218529E+02  0.00000000000E+00 0. -1.
          2   -1    0    0  501    0  0.00000000000E+00 -0.00000000000E+00 -0.16873249502E+03  0.16873249502E+03  0.00000000000E+00 0.  1.
         23    2    1    2    0    0  0.40373664254E+01  0.64786612263E+02 -0.23431127889E+02  0.14278665056E+03  0.12500161746E+03 0.  0.
         23    2    1    2    0    0 -0.40373664254E+01 -0.64786612263E+02 -0.49890148602E+02  0.12135706299E+03  0.89581830485E+02 0.  0.
          5    1    3    3  502    0 -0.34895462657E+01  0.10221351739E+03 -0.17594822801E+02  0.10388189380E+03  0.47000000000E+01 0. -1.
         -5    1    3    3    0  502  0.75269126911E+01 -0.37426905123E+02 -0.58363050880E+01  0.38904756764E+02  0.47000000000E+01 0. -1.
        -11    1    4    4    0    0  0.76680994169E+01 -0.49406893053E+02 -0.74711695569E+02  0.89898155068E+02  0.00000000000E+00 0.  1.
         11    1    4    4    0    0 -0.11705465842E+02 -0.15379719210E+02  0.24821546967E+02  0.31458907918E+02  0.00000000000E+00 0. -1.
<mgrwt>
<rscale>  0 0.13259772E+03</rscale>
<asrwt>0</asrwt>
<pdfrwt beam="2">  1        2 0.25958845E-01 0.14085102E+03</pdfrwt>
<pdfrwt beam="1">  1       -2 0.14678649E-01 0.14085102E+03</pdfrwt>
<totfact> 0.69603712E+03</totfact>
</mgrwt>
</event>
<event>
 8    1  0.1154424E-005  0.1220753E+03  0.7546771E-02  0.1246857E+00
         -1   -1    0    0    0  501 -0.00000000000E+00  0.00000000000E+00  0.31017633667E+02  0.31017633667E+02  0.00000000000E+00 0.  1.
          1   -1    0    0  501    0  0.00000000000E+00 -0.00000000000E+00 -0.41996944280E+03  0.41996944280E+03  0.00000000000E+00 0. -1.
         23    2    1    2    0    0  0.26419157993E+01  0.52158788359E+02 -0.19320561991E+03  0.22854056403E+03  0.11033974315E+03 0.  0.
         23    2    1    2    0    0 -0.26419157993E+01 -0.52158788359E+02 -0.19574618922E+03  0.22244651244E+03  0.91860553994E+02 0.  0.
          5    1    3    3  502    0 -0.19188422742E+02 -0.23623358866E+02 -0.10817278051E+03  0.11247088109E+03  0.47000000000E+01 0. -1.
         -5    1    3    3    0  502  0.21830338541E+02  0.75782147225E+02 -0.85032839407E+02  0.11606968293E+03  0.47000000000E+01 0.  1.
        -11    1    4    4    0    0  0.11861797892E+02  0.79859561949E+01  0.27240090377E+01  0.14556715660E+02  0.00000000000E+00 0.  1.
         11    1    4    4    0    0 -0.14503713691E+02 -0.60144744554E+02 -0.19847019826E+03  0.20788979678E+03  0.00000000000E+00 0. -1.
<mgrwt>
<rscale>  0 0.11774906E+03</rscale>
<asrwt>0</asrwt>
<pdfrwt beam="2">  1        1 0.64610679E-01 0.12207530E+03</pdfrwt>
<pdfrwt beam="1">  1       -1 0.47719440E-02 0.12207530E+03</pdfrwt>
<totfact> 0.10114612E+04</totfact>
</mgrwt>
</event>
<event>
 8    1  0.1154424E-005  0.1340608E+03  0.7546771E-02  0.1233026E+00
         -2   -1    0    0    0  501 -0.00000000000E+00  0.00000000000E+00  0.54461531395E+02  0.54461531395E+02  0.00000000000E+00 0. -1.
          2   -1    0    0  501    0  0.00000000000E+00 -0.00000000000E+00 -0.31961816907E+03  0.31961816907E+03  0.00000000000E+00 0.  1.
         23    2    1    2    0    0  0.39396018164E+02 -0.28189977426E+02 -0.67832534975E+02  0.15024499775E+03  0.12500234187E+03 0.  0.
         23    2    1    2    0    0 -0.39396018164E+02  0.28189977426E+02 -0.19732410270E+03  0.22383470272E+03  0.93906610842E+02 0.  0.
          5    1    3    3  502    0  0.28617828888E+02 -0.30089535421E+02 -0.10404495145E+03  0.11212404824E+03  0.47000000000E+01 0.  1.
         -5    1    3    3    0  502  0.10778189276E+02  0.18995579951E+01  0.36212416472E+02  0.38120949508E+02  0.47000000000E+01 0.  1.
        -11    1    4    4    0    0 -0.10675991973E+02  0.36865977584E+02 -0.18673244112E+02  0.42682164349E+02  0.00000000000E+00 0. -1.
         11    1    4    4    0    0 -0.28720026191E+02 -0.86760001577E+01 -0.17865085859E+03  0.18115253837E+03  0.00000000000E+00 0.  1.
<mgrwt>
<rscale>  0 0.12631636E+03</rscale>
<asrwt>0</asrwt>
<pdfrwt beam="2">  1        2 0.49172026E-01 0.13406083E+03</pdfrwt>
<pdfrwt beam="1">  1       -2 0.83786972E-02 0.13406083E+03</pdfrwt>
<totfact> 0.85116894E+03</totfact>
</mgrwt>
</event>
<event>
 8    1  0.1154424E-005  0.1307692E+03  0.7546771E-02  0.1240273E+00
          1   -1    0    0  501    0  0.00000000000E+00  0.00000000000E+00  0.39322380552E+03  0.39322380552E+03  0.00000000000E+00 0. -1.
         -1   -1    0    0    0  501 -0.00000000000E+00 -0.00000000000E+00 -0.33329695358E+02  0.33329695358E+02  0.00000000000E+00 0.  1.
         23    2    1    2    0    0  0.30548512254E+02 -0.23265584404E+02  0.20732924429E+03  0.24512443210E+03  0.12500429054E+03 0.  0.
         23    2    1    2    0    0 -0.30548512254E+02  0.23265584404E+02  0.15256486587E+03  0.18142906878E+03  0.90365755031E+02 0.  0.
          5    1    3    3  502    0  0.46579023344E+02 -0.22394944351E+02  0.17808467242E+02  0.54866842935E+02  0.47000000000E+01 0. -1.
         -5    1    3    3    0  502 -0.16030511090E+02 -0.87064005322E+00  0.18952077705E+03  0.19025758916E+03  0.47000000000E+01 0. -1.
        -11    1    4    4    0    0  0.23283725371E+02  0.11296789168E+02  0.10642386704E+03  0.10952528835E+03  0.00000000000E+00 0. -1.
         11    1    4    4    0    0 -0.53832237625E+02  0.11968795236E+02  0.46140998830E+02  0.71903780430E+02  0.00000000000E+00 0.  1.
<mgrwt>
<rscale>  0 0.12172822E+03</rscale>
<asrwt>0</asrwt>
<pdfrwt beam="1">  1        1 0.60495967E-01 0.13076915E+03</pdfrwt>
<pdfrwt beam="2">  1       -1 0.51276457E-02 0.13076915E+03</pdfrwt>
<totfact> 0.99338530E+03</totfact>
</mgrwt>
</event>
<event>
 8    1  0.1154424E-005  0.1476842E+03  0.7546771E-02  0.1212744E+00
          2   -1    0    0  501    0  0.00000000000E+00  0.00000000000E+00  0.56820370222E+03  0.56820370222E+03  0.00000000000E+00 0. -1.
         -2   -1    0    0    0  501 -0.00000000000E+00 -0.00000000000E+00 -0.31746851088E+02  0.31746851088E+02  0.00000000000E+00 0.  1.
         23    2    1    2    0    0 -0.83218451696E+01 -0.78210045432E+02  0.30593114652E+03  0.33971236983E+03  0.12499825396E+03 0.  0.
         23    2    1    2    0    0  0.83218451696E+01  0.78210045432E+02  0.23052570462E+03  0.26023818348E+03  0.91628310795E+02 0.  0.
          5    1    3    3  502    0  0.49505044627E+01  0.33952306437E+02  0.73418262927E+02  0.81176338536E+02  0.47000000000E+01 0.  1.
         -5    1    3    3    0  502 -0.13272349632E+02 -0.11216235187E+03  0.23251288359E+03  0.25853603129E+03  0.47000000000E+01 0.  1.
        -11    1    4    4    0    0  0.13177230927E+02 -0.13265820644E+02  0.93909826850E+02  0.95753208778E+02  0.00000000000E+00 0. -1.
         11    1    4    4    0    0 -0.48553857575E+01  0.91475866076E+02  0.13661587777E+03  0.16448497470E+03  0.00000000000E+00 0.  1.
<mgrwt>
<rscale>  0 0.14043553E+03</rscale>
<asrwt>0</asrwt>
<pdfrwt beam="1">  1        2 0.87415947E-01 0.14768422E+03</pdfrwt>
<pdfrwt beam="2">  1       -2 0.48841313E-02 0.14768422E+03</pdfrwt>
<totfact> 0.10463007E+04</totfact>
</mgrwt>
</event>
<event>
 8    1  0.1154424E-005  0.1408485E+03  0.7546771E-02  0.1223621E+00
         -2   -1    0    0    0  501 -0.00000000000E+00  0.00000000000E+00  0.11777879665E+03  0.11777879665E+03  0.00000000000E+00 0.  1.
          2   -1    0    0  501    0  0.00000000000E+00 -0.00000000000E+00 -0.13772061536E+03  0.13772061536E+03  0.00000000000E+00 0. -1.
         23    2    1    2    0    0 -0.11541197158E+02  0.63861089613E+02  0.88050180455E+01  0.14112343132E+03  0.12500742588E+03 0.  0.
         23    2    1    2    0    0  0.11541197158E+02 -0.63861089613E+02 -0.28746836757E+02  0.11437598069E+03  0.89688607620E+02 0.  0.
          5    1    3    3  502    0  0.36057775788E+02  0.12796024678E+02 -0.40204432404E+02  0.55699082822E+02  0.47000000000E+01 0.  1.
         -5    1    3    3    0  502 -0.47598972946E+02  0.51065064935E+02  0.49009450449E+02  0.85424348494E+02  0.47000000000E+01 0.  1.
        -11    1    4    4    0    0  0.13383877457E+02 -0.14457153417E+02 -0.54983959564E+02  0.58406962514E+02  0.00000000000E+00 0. -1.
         11    1    4    4    0    0 -0.18426802992E+01 -0.49403936196E+02  0.26237122807E+02  0.55969018176E+02  0.00000000000E+00 0.  1.
<mgrwt>
<rscale>  0 0.13261890E+03</rscale>
<asrwt>0</asrwt>
<pdfrwt beam="2">  1        2 0.21187787E-01 0.14084848E+03</pdfrwt>
<pdfrwt beam="1">  1       -2 0.18119815E-01 0.14084848E+03</pdfrwt>
<totfact> 0.61615755E+03</totfact>
</mgrwt>
</event>
<event>
 8    1  0.1154424E-005  0.1417627E+03  0.7546771E-02  0.1222047E+00
         -2   -1    0    0    0  501 -0.00000000000E+00  0.00000000000E+00  0.68184946803E+02  0.68184946803E+02  0.00000000000E+00 0.  1.
          2   -1    0    0  501    0  0.00000000000E+00 -0.00000000000E+00 -0.23945958345E+03  0.23945958345E+03  0.00000000000E+00 0. -1.
         23    2    1    2    0    0 -0.20704142442E+02  0.63582906354E+02 -0.78472170886E+02  0.16203253730E+03  0.12500085618E+03 0.  0.
         23    2    1    2    0    0  0.20704142442E+02 -0.63582906354E+02 -0.92802465765E+02  0.14561199296E+03  0.90106089399E+02 0.  0.
          5    1    3    3  502    0 -0.18374675421E+02 -0.11631933082E+02  0.25344943923E+02  0.33725164885E+02  0.47000000000E+01 0. -1.
         -5    1    3    3    0  502 -0.23294670213E+01  0.75214839436E+02 -0.10381711481E+03  0.12830737241E+03  0.47000000000E+01 0. -1.
        -11    1    4    4    0    0  0.39394793016E+02 -0.57864711820E+02 -0.23866569974E+02  0.73958689504E+02  0.00000000000E+00 0.  1.
         11    1    4    4    0    0 -0.18690650574E+02 -0.57181945341E+01 -0.68935895791E+02  0.71653303456E+02  0.00000000000E+00 0. -1.
<mgrwt>
<rscale>  0 0.13371406E+03</rscale>
<asrwt>0</asrwt>
<pdfrwt beam="2">  1        2 0.36839936E-01 0.14176269E+03</pdfrwt>
<pdfrwt beam="1">  1       -2 0.10489992E-01 0.14176269E+03</pdfrwt>
<totfact> 0.81709904E+03</totfact>
</mgrwt>
</event>
<event>
 7    1  0.1154424E-005  0.1568584E+03  0.7546771E-02  0.1202475E+00
          1   -1    0    0  501    0  0.00000000000E+00  0.00000000000E+00  0.34705318962E+02  0.34705318962E+02  0.00000000000E+00 0. -1.
         -1   -1    0    0    0  501 -0.00000000000E+00 -0.00000000000E+00 -0.58759445316E+03  0.58759445316E+03  0.00000000000E+00 0.  1.
         23    2    1    2    0    0 -0.78847367672E+02 -0.36033546700E+02 -0.20076811139E+03  0.23682112572E+03  0.90890522933E+02 0.  0.
          5    1    1    2  502    0 -0.20830664232E+01  0.69101506930E+02 -0.15299359494E+03  0.16795382556E+03  0.47000000000E+01 0. -1.
         -5    1    1    2    0  502  0.80930434095E+02 -0.33067960229E+02 -0.19912742787E+03  0.21752482086E+03  0.47000000000E+01 0.  1.
        -11    1    3    3    0    0  0.41386198617E+01 -0.19144133947E+02 -0.11364569117E+03  0.11532115660E+03  0.00000000000E+00 0.  1.
         11    1    3    3    0    0 -0.82985987533E+02 -0.16889412754E+02 -0.87122420220E+02  0.12149996912E+03  0.00000000000E+00 0. -1.
<mgrwt>
<rscale>  0 0.14838225E+03</rscale>
<asrwt>0</asrwt>
<pdfrwt beam="1">  1        1 0.53392804E-02 0.15685845E+03</pdfrwt>
<pdfrwt beam="2">  1       -1 0.90399137E-01 0.15685845E+03</pdfrwt>
<totfact> 0.18708725E+03</totfact>
</mgrwt>
</event>
<event>
 8    1  0.1154424E-005  0.1943823E+03  0.7546771E-02  0.1158891E+00
         -2   -1    0    0    0  501 -0.00000000000E+00  0.00000000000E+00  0.48622590296E+02  0.48622590296E+02  0.00000000000E+00 0.  1.
          2   -1    0    0  501    0  0.00000000000E+00 -0.00000000000E+00 -0.79870248388E+03  0.79870248388E+03  0.00000000000E+00 0. -1.
         23    2    1    2    0    0 -0.57157096891E+02  0.13745040809E+03 -0.24609753713E+03  0.31360562989E+03  0.12499977964E+03 0.  0.
         23    2    1    2    0    0  0.57157096891E+02 -0.13745040809E+03 -0.50398235646E+03  0.53371944428E+03  0.93266720648E+02 0.  0.
          5    1    3    3  502    0  0.27947365305E+02  0.93751453576E+02 -0.13729771047E+03  0.16865094597E+03  0.47000000000E+01 0. -1.
         -5    1    3    3    0  502 -0.85104462196E+02  0.43698954510E+02 -0.10879982666E+03  0.14495468393E+03  0.47000000000E+01 0. -1.
        -11    1    4    4    0    0 -0.24476754341E+02 -0.17453354013E+02 -0.10211659258E+03  0.10644965735E+03  0.00000000000E+00 0. -1.
         11    1    4    4    0    0  0.81633851232E+02 -0.11999705407E+03 -0.40186576388E+03  0.42726978694E+03  0.00000000000E+00 0.  1.
<mgrwt>
<rscale>  0 0.18952390E+03</rscale>
<asrwt>0</asrwt>
<pdfrwt beam="2">  1        2 0.12287731E+00 0.19438234E+03</pdfrwt>
<pdfrwt beam="1">  1       -2 0.74803985E-02 0.19438234E+03</pdfrwt>
<totfact> 0.36919752E+03</totfact>
</mgrwt>
</event>
<event>
 8    1  0.1154424E-005  0.1261832E+03  0.7546771E-02  0.1247918E+00
          2   -1    0    0  501    0  0.00000000000E+00  0.00000000000E+00  0.37208251573E+02  0.37208251573E+02  0.00000000000E+00 0. -1.
         -2   -1    0    0    0  501 -0.00000000000E+00 -0.00000000000E+00 -0.32526673728E+03  0.32526673728E+03  0.00000000000E+00 0.  1.
         23    2    1    2    0    0  0.68031449656E+01  0.15841519807E+02 -0.17243000340E+03  0.21366865815E+03  0.12499981149E+03 0.  0.
         23    2    1    2    0    0 -0.68031449656E+01 -0.15841519807E+02 -0.11562848231E+03  0.14880633070E+03  0.92065963334E+02 0.  0.
          5    1    3    3  502    0  0.20079709729E+02  0.13593528368E+02 -0.18968274575E+03  0.19128411536E+03  0.47000000000E+01 0. -1.
         -5    1    3    3    0  502 -0.13276564763E+02  0.22479914386E+01  0.17252742347E+02  0.22384542790E+02  0.47000000000E+01 0. -1.
        -11    1    4    4    0    0  0.11753693968E+02 -0.35493126144E+02 -0.11589477905E+03  0.12177648023E+03  0.00000000000E+00 0.  1.
         11    1    4    4    0    0 -0.18556838933E+02  0.19651606337E+02  0.26629673940E+00  0.27029850476E+02  0.00000000000E+00 0. -1.
<mgrwt>
<rscale>  0 0.11712427E+03</rscale>
<asrwt>0</asrwt>
<pdfrwt beam="1">  1        2 0.57243464E-02 0.12618316E+03</pdfrwt>
<pdfrwt beam="2">  1       -2 0.50041036E-01 0.12618316E+03</pdfrwt>
<totfact> 0.47580423E+03</totfact>
</mgrwt>
</event>
<event>
 8    1  0.1154424E-005  0.1397833E+03  0.7546771E-02  0.1224590E+00
         -2   -1    0    0    0  501 -0.00000000000E+00  0.00000000000E+00  0.32939788204E+03  0.32939788204E+03  0.00000000000E+00 0.  1.
          2   -1    0    0  501    0  0.00000000000E+00 -0.00000000000E+00 -0.49482304937E+02  0.49482304937E+02  0.00000000000E+00 0. -1.
         23    2    1    2    0    0 -0.51616863310E+02 -0.35343876137E+02  0.19090072733E+03  0.23660611319E+03  0.12500349974E+03 0.  0.
         23    2    1    2    0    0  0.51616863310E+02  0.35343876137E+02  0.89014849770E+02  0.14227407378E+03  0.91677578674E+02 0.  0.
          5    1    3    3  502    0 -0.41370170084E+02  0.40905636261E+02  0.11204682312E+03  0.12633820729E+03  0.47000000000E+01 0.  1.
         -5    1    3    3    0  502 -0.10246693226E+02 -0.76249512398E+02  0.78853904212E+02  0.11026790590E+03  0.47000000000E+01 0.  1.
        -11    1    4    4    0    0 -0.19101195303E+01  0.51665992424E+02  0.60122862587E+02  0.79295535406E+02  0.00000000000E+00 0.  1.
         11    1    4    4    0    0  0.53526982840E+02 -0.16322116286E+02  0.28891987183E+02  0.62978538372E+02  0.00000000000E+00 0. -1.
<mgrwt>
<rscale>  0 0.13195022E+03</rscale>
<asrwt>0</asrwt>
<pdfrwt beam="2">  1        2 0.76126625E-02 0.13978328E+03</pdfrwt>
<pdfrwt beam="1">  1       -2 0.50676596E-01 0.13978328E+03</pdfrwt>
<totfact> 0.32485643E+03</totfact>
</mgrwt>
</event>
<event>
 8    1  0.1154424E-005  0.1285622E+03  0.7546771E-02  0.1243032E+00
         -3   -1    0    0    0  501 -0.00000000000E+00  0.00000000000E+00  0.59301375331E+02  0.59301375331E+02  0.00000000000E+00 0.  1.
          3   -1    0    0  501    0  0.00000000000E+00 -0.00000000000E+00 -0.22589695170E+03  0.22589695170E+03  0.00000000000E+00 0. -1.
         23    2    1    2    0    0  0.18567321854E+02 -0.23603266011E+02 -0.64344943535E+02  0.14376549843E+03  0.12500554857E+03 0.  0.
         23    2    1    2    0    0 -0.18567321854E+02  0.23603266011E+02 -0.10225063283E+03  0.14143282860E+03  0.92984909976E+02 0.  0.
          5    1    3    3  502    0 -0.48106032574E+02 -0.18863121922E+01 -0.54385761962E+02  0.72784954819E+02  0.47000000000E+01 0. -1.
         -5    1    3    3    0  502  0.66673354429E+02 -0.21716953819E+02 -0.99591815723E+01  0.70980543613E+02  0.47000000000E+01 0. -1.
        -11    1    4    4    0    0 -0.31839395274E+02  0.34883057515E+02 -0.10944871737E+02  0.48480563222E+02  0.00000000000E+00 0.  1.
         11    1    4    4    0    0  0.13272073420E+02 -0.11279791504E+02 -0.91305761092E+02  0.92952265373E+02  0.00000000000E+00 0. -1.
<mgrwt>
<rscale>  0 0.12003956E+03</rscale>
<asrwt>0</asrwt>
<pdfrwt beam="2">  1        3 0.34753377E-01 0.12856223E+03</pdfrwt>
<pdfrwt beam="1">  1       -3 0.91232885E-02 0.12856223E+03</pdfrwt>
<totfact> 0.15916425E+03</totfact>
</mgrwt>
</event>
<event>
 8    1  0.1154424E-005  0.1320595E+03  0.7546771E-02  0.1238041E+00
          1   -1    0    0  501    0  0.00000000000E+00  0.00000000000E+00  0.56322642038E+03  0.56322642038E+03  0.00000000000E+00 0. -1.
         -1   -1    0    0    0  501 -0.00000000000E+00 -0.00000000000E+00 -0.30375318661E+02  0.30375318661E+02  0.00000000000E+00 0.  1.
         23    2    1    2    0    0  0.27936528081E+02  0.32125116105E+02  0.15910760517E+03  0.20677269037E+03  0.12500897077E+03 0.  0.
         23    2    1    2    0    0 -0.27936528081E+02 -0.32125116105E+02  0.37374349655E+03  0.38682904867E+03  0.90222164660E+02 0.  0.
          5    1    3    3  502    0  0.69487218714E+02  0.49879850278E+02  0.11549947438E+03  0.14380087486E+03  0.47000000000E+01 0.  1.
         -5    1    3    3    0  502 -0.41550690633E+02 -0.17754734173E+02  0.43608130786E+02  0.62971815507E+02  0.47000000000E+01 0.  1.
        -11    1    4    4    0    0  0.10254482398E+02  0.20497554166E+02  0.34557513152E+02  0.41467165943E+02  0.00000000000E+00 0.  1.
         11    1    4    4    0    0 -0.38191010480E+02 -0.52622670271E+02  0.33918598340E+03  0.34536188273E+03  0.00000000000E+00 0. -1.
<mgrwt>
<rscale>  0 0.12311724E+03</rscale>
<asrwt>0</asrwt>
<pdfrwt beam="1">  1        1 0.86650211E-01 0.13205951E+03</pdfrwt>
<pdfrwt beam="2">  1       -1 0.46731263E-02 0.13205951E+03</pdfrwt>
<totfact> 0.71691450E+03</totfact>
</mgrwt>
</event>
<event>
 8    1  0.1154424E-005  0.1389578E+03  0.7546771E-02  0.1225214E+00
          2   -1    0    0  501    0  0.00000000000E+00  0.00000000000E+00  0.13774300507E+03  0.13774300507E+03  0.00000000000E+00 0. -1.
         -2   -1    0    0    0  501 -0.00000000000E+00 -0.00000000000E+00 -0.11415503594E+03  0.11415503594E+03  0.00000000000E+00 0.  1.
         23    2    1    2    0    0  0.36815477019E+02  0.48263471896E+02  0.68280699985E+01  0.13912550495E+03  0.12499816607E+03 0.  0.
         23    2    1    2    0    0 -0.36815477019E+02 -0.48263471896E+02  0.16759899136E+02  0.11277253606E+03  0.93552170488E+02 0.  0.
          5    1    3    3  502    0  0.44982830954E+02  0.82824506252E+02 -0.17291391716E+02  0.95939752678E+02  0.47000000000E+01 0. -1.
         -5    1    3    3    0  502 -0.81673539346E+01 -0.34561034356E+02  0.24119461714E+02  0.43185752273E+02  0.47000000000E+01 0. -1.
        -11    1    4    4    0    0  0.11464099450E+02 -0.59094471917E+02  0.19337269671E+02  0.63225882245E+02  0.00000000000E+00 0. -1.
         11    1    4    4    0    0 -0.48279576469E+02  0.10831000021E+02 -0.25773705348E+01  0.49546653816E+02  0.00000000000E+00 0.  1.
<mgrwt>
<rscale>  0 0.13152269E+03</rscale>
<asrwt>0</asrwt>
<pdfrwt beam="1">  1        2 0.21191231E-01 0.13895785E+03</pdfrwt>
<pdfrwt beam="2">  1       -2 0.17562313E-01 0.13895785E+03</pdfrwt>
<totfact> 0.64841813E+03</totfact>
</mgrwt>
</event>
<event>
 8    1  0.1154424E-005  0.1340368E+03  0.7546771E-02  0.1233342E+00
         -2   -1    0    0    0  501 -0.00000000000E+00  0.00000000000E+00  0.21983287760E+02  0.21983287760E+02  0.00000000000E+00 0.  1.
          2   -1    0    0  501    0  0.00000000000E+00 -0.00000000000E+00 -0.71925271584E+03  0.71925271584E+03  0.00000000000E+00 0. -1.
         23    2    1    2    0    0 -0.17336385525E+02 -0.45127729115E+02 -0.27262416021E+03  0.30379236712E+03  0.12501522864E+03 0.  0.
         23    2    1    2    0    0  0.17336385525E+02  0.45127729115E+02 -0.42464526787E+03  0.43744363648E+03  0.93253790130E+02 0.  0.
          5    1    3    3  502    0 -0.51771483162E+02  0.90562586501E+01 -0.52447267248E+02  0.74398307315E+02  0.47000000000E+01 0. -1.
         -5    1    3    3    0  502  0.34435097637E+02 -0.54183987766E+02 -0.22017689296E+03  0.22939405980E+03  0.47000000000E+01 0. -1.
        -11    1    4    4    0    0 -0.22622914432E+02 -0.16808323977E+02 -0.75162389680E+02  0.80272665551E+02  0.00000000000E+00 0.  1.
         11    1    4    4    0    0  0.39959299957E+02  0.61936053092E+02 -0.34948287819E+03  0.35717097093E+03  0.00000000000E+00 0. -1.
<mgrwt>
<rscale>  0 0.12611200E+03</rscale>
<asrwt>0</asrwt>
<pdfrwt beam="2">  1        2 0.11065426E+00 0.13403682E+03</pdfrwt>
<pdfrwt beam="1">  1       -2 0.33820444E-02 0.13403682E+03</pdfrwt>
<totfact> 0.13667736E+04</totfact>
</mgrwt>
</event>
<event>
 8    1  0.1154424E-005  0.1742620E+03  0.7546771E-02  0.1177166E+00
          2   -1    0    0  501    0  0.00000000000E+00  0.00000000000E+00  0.93454672899E+03  0.93454672899E+03  0.00000000000E+00 0. -1.
         -2   -1    0    0    0  501 -0.00000000000E+00 -0.00000000000E+00 -0.31362680805E+02  0.31362680805E+02  0.00000000000E+00 0.  1.
         23    2    1    2    0    0 -0.28188659584E+02 -0.11810432685E+03  0.36678381140E+03  0.40607587276E+03  0.12499607028E+03 0.  0.
         23    2    1    2    0    0  0.28188659584E+02  0.11810432685E+03  0.53640023679E+03  0.55983353703E+03  0.10461903560E+03 0.  0.
          5    1    3    3  502    0  0.26027238134E+02 -0.24349910944E+02  0.16788663549E+02  0.39677254336E+02  0.47000000000E+01 0.  1.
         -5    1    3    3    0  502 -0.54215897718E+02 -0.93754415908E+02  0.34999514785E+03  0.36639861843E+03  0.47000000000E+01 0.  1.
        -11    1    4    4    0    0  0.59140998129E+02  0.63105956820E+02  0.20532156183E+03  0.22279354389E+03  0.00000000000E+00 0.  1.
         11    1    4    4    0    0 -0.30952338544E+02  0.54998370032E+02  0.33107867495E+03  0.33703999314E+03  0.00000000000E+00 0. -1.
<mgrwt>
<rscale>  0 0.17065504E+03</rscale>
<asrwt>0</asrwt>
<pdfrwt beam="1">  1        2 0.14377640E+00 0.17426202E+03</pdfrwt>
<pdfrwt beam="2">  1       -2 0.48250285E-02 0.17426202E+03</pdfrwt>
<totfact> 0.58601976E+03</totfact>
</mgrwt>
</event>
<event>
 8    1  0.1154424E-005  0.1378657E+03  0.7546771E-02  0.1228749E+00
          1   -1    0    0  501    0  0.00000000000E+00  0.00000000000E+00  0.48964738697E+03  0.48964738697E+03  0.00000000000E+00 0. -1.
         -1   -1    0    0    0  501 -0.00000000000E+00 -0.00000000000E+00 -0.31258112573E+02  0.31258112573E+02  0.00000000000E+00 0.  1.
         23    2    1    2    0    0 -0.82807691711E+01 -0.57558273694E+02  0.21520559596E+03  0.25557855029E+03  0.12500168329E+03 0.  0.
         23    2    1    2    0    0  0.82807691711E+01  0.57558273694E+02  0.24318367843E+03  0.26532694925E+03  0.88761267094E+02 0.  0.
          5    1    3    3  502    0  0.43063253920E+01 -0.13737878744E+02  0.20874247144E+03  0.20929114442E+03  0.47000000000E+01 0.  1.
         -5    1    3    3    0  502 -0.12587094563E+02 -0.43820394949E+02  0.64631245221E+01  0.46287405864E+02  0.47000000000E+01 0.  1.
        -11    1    4    4    0    0 -0.18940845589E+02  0.59884987007E+02  0.22211855789E+03  0.23082812016E+03  0.00000000000E+00 0. -1.
         11    1    4    4    0    0  0.27221614760E+02 -0.23267133129E+01  0.21065120544E+02  0.34498829089E+02  0.00000000000E+00 0.  1.
<mgrwt>
<rscale>  0 0.12913229E+03</rscale>
<asrwt>0</asrwt>
<pdfrwt beam="1">  1        1 0.75330362E-01 0.13786568E+03</pdfrwt>
<pdfrwt beam="2">  1       -1 0.48089407E-02 0.13786568E+03</pdfrwt>
<totfact> 0.82862930E+03</totfact>
</mgrwt>
</event>
<event>
 8    1  0.1154424E-005  0.3090173E+03  0.7546771E-02  0.1082313E+00
          2   -1    0    0  501    0  0.00000000000E+00  0.00000000000E+00  0.78100398154E+03  0.78100398154E+03  0.00000000000E+00 0. -1.
         -2   -1    0    0    0  501 -0.00000000000E+00 -0.00000000000E+00 -0.12848802446E+03  0.12848802446E+03  0.00000000000E+00 0.  1.
         23    2    1    2    0    0  0.65155274787E+02 -0.27499090926E+03  0.19931171866E+03  0.36771840314E+03  0.12500581108E+03 0.  0.
         23    2    1    2    0    0 -0.65155274787E+02  0.27499090926E+03  0.45320423843E+03  0.54177360286E+03  0.90880938711E+02 0.  0.
          5    1    3    3  502    0  0.46363981025E+02 -0.23433346341E+03  0.21358769023E+03  0.32047399618E+03  0.47000000000E+01 0.  1.
         -5    1    3    3    0  502  0.18791293762E+02 -0.40657445850E+02 -0.14275971573E+02  0.47244406956E+02  0.47000000000E+01 0.  1.
        -11    1    4    4    0    0  0.43607662058E+01  0.12384648676E+03  0.25101618639E+03  0.27993944773E+03  0.00000000000E+00 0. -1.
         11    1    4    4    0    0 -0.69516040993E+02  0.15114442250E+03  0.20218805204E+03  0.26183415514E+03  0.00000000000E+00 0.  1.
<mgrwt>
<rscale>  0 0.30593148E+03</rscale>
<asrwt>0</asrwt>
<pdfrwt beam="1">  1        2 0.12015446E+00 0.30901725E+03</pdfrwt>
<pdfrwt beam="2">  1       -2 0.19767389E-01 0.30901725E+03</pdfrwt>
<totfact> 0.78614473E+02</totfact>
</mgrwt>
</event>
<event>
 8    1  0.1154424E-005  0.2278630E+03  0.7546771E-02  0.1128214E+00
         -2   -1    0    0    0  501 -0.00000000000E+00  0.00000000000E+00  0.10660887675E+03  0.10660887675E+03  0.00000000000E+00 0.  1.
          2   -1    0    0  501    0  0.00000000000E+00 -0.00000000000E+00 -0.71642761978E+03  0.71642761978E+03  0.00000000000E+00 0. -1.
         23    2    1    2    0    0  0.13585673223E+03 -0.13356323069E+03 -0.71832801335E+02  0.23891730521E+03  0.12500135637E+03 0.  0.
         23    2    1    2    0    0 -0.13585673223E+03  0.13356323069E+03 -0.53798594169E+03  0.58411919132E+03  0.12437912979E+03 0.  0.
          5    1    3    3  502    0  0.85833101826E+02 -0.76200172594E+01 -0.18302996562E+01  0.86318167433E+02  0.47000000000E+01 0. -1.
         -5    1    3    3    0  502  0.50023630403E+02 -0.12594321344E+03 -0.70002501678E+02  0.15259913778E+03  0.47000000000E+01 0. -1.
        -11    1    4    4    0    0 -0.35503012277E+02  0.73501432397E+02 -0.37335913348E+03  0.38217792584E+03  0.00000000000E+00 0. -1.
         11    1    4    4    0    0 -0.10035371995E+03  0.60061798298E+02 -0.16462680820E+03  0.20194126548E+03  0.00000000000E+00 0.  1.
<mgrwt>
<rscale>  0 0.22777772E+03</rscale>
<asrwt>0</asrwt>
<pdfrwt beam="2">  1        2 0.11021963E+00 0.22786296E+03</pdfrwt>
<pdfrwt beam="1">  1       -2 0.16401366E-01 0.22786296E+03</pdfrwt>
<totfact> 0.12021418E+03</totfact>
</mgrwt>
</event>
<event>
 8    1  0.1154424E-005  0.4369802E+03  0.7546771E-02  0.1032348E+00
         -1   -1    0    0    0  501 -0.00000000000E+00  0.00000000000E+00  0.28065952732E+03  0.28065952732E+03  0.00000000000E+00 0.  1.
          1   -1    0    0  501    0  0.00000000000E+00 -0.00000000000E+00 -0.66751867241E+03  0.66751867241E+03  0.00000000000E+00 0. -1.
         23    2    1    2    0    0  0.33806511248E+03  0.24705673074E+03 -0.20745254539E+03  0.48372332269E+03  0.12500658317E+03 0.  0.
         23    2    1    2    0    0 -0.33806511248E+03 -0.24705673074E+03 -0.17940659970E+03  0.46445487703E+03  0.90590045267E+02 0.  0.
          5    1    3    3  502    0  0.13635567332E+03  0.90213220941E+02 -0.14968874572E+03  0.22172078268E+03  0.47000000000E+01 0. -1.
         -5    1    3    3    0  502  0.20170943917E+03  0.15684350980E+03 -0.57763799678E+02  0.26200254001E+03  0.47000000000E+01 0. -1.
        -11    1    4    4    0    0 -0.28293977023E+03 -0.17408264414E+03 -0.11103978211E+03  0.35027062934E+03  0.00000000000E+00 0.  1.
         11    1    4    4    0    0 -0.55125342258E+02 -0.72974086600E+02 -0.68366817590E+02  0.11418424769E+03  0.00000000000E+00 0. -1.
<mgrwt>
<rscale>  0 0.43482067E+03</rscale>
<asrwt>0</asrwt>
<pdfrwt beam="2">  1        1 0.10269518E+00 0.43698020E+03</pdfrwt>
<pdfrwt beam="1">  1       -1 0.43178389E-01 0.43698020E+03</pdfrwt>
<totfact> 0.16100127E+02</totfact>
</mgrwt>
</event>
<event>
 8    1  0.1154424E-005  0.1259731E+03  0.7546771E-02  0.1249795E+00
         -1   -1    0    0    0  501 -0.00000000000E+00  0.00000000000E+00  0.22824928771E+03  0.22824928771E+03  0.00000000000E+00 0.  1.
          1   -1    0    0  501    0  0.00000000000E+00 -0.00000000000E+00 -0.52262086476E+02  0.52262086476E+02  0.00000000000E+00 0. -1.
         23    2    1    2    0    0  0.11853291780E+02  0.10167517908E+02  0.11983322312E+03  0.17386551230E+03  0.12500134423E+03 0.  0.
         23    2    1    2    0    0 -0.11853291780E+02 -0.10167517908E+02  0.56153978112E+02  0.10664586188E+03  0.89309527217E+02 0.  0.
          5    1    3    3  502    0  0.62880658338E+02 -0.13762476772E+02  0.87474212386E+02  0.10870699514E+03  0.47000000000E+01 0. -1.
         -5    1    3    3    0  502 -0.51027366559E+02  0.23929994680E+02  0.32359010732E+02  0.65158517163E+02  0.47000000000E+01 0. -1.
        -11    1    4    4    0    0 -0.35476589681E+02 -0.75247633946E+01  0.70215173513E+02  0.79027723433E+02  0.00000000000E+00 0.  1.
         11    1    4    4    0    0  0.23623297901E+02 -0.26427545132E+01 -0.14061195400E+02  0.27618138446E+02  0.00000000000E+00 0. -1.
<mgrwt>
<rscale>  0 0.11602932E+03</rscale>
<asrwt>0</asrwt>
<pdfrwt beam="2">  1        1 0.80403211E-02 0.12597307E+03</pdfrwt>
<pdfrwt beam="1">  1       -1 0.35115275E-01 0.12597307E+03</pdfrwt>
<totfact> 0.63365026E+03</totfact>
</mgrwt>
</event>
<event>
 8    1  0.1154424E-005  0.1544269E+03  0.7546771E-02  0.1203565E+00
          1   -1    0    0  501    0  0.00000000000E+00  0.00000000000E+00  0.44472535789E+03  0.44472535789E+03  0.00000000000E+00 0. -1.
         -1   -1    0    0    0  501 -0.00000000000E+00 -0.00000000000E+00 -0.45162684182E+02  0.45162684182E+02  0.00000000000E+00 0.  1.
         23    2    1    2    0    0  0.15337378624E+02  0.89376459886E+02  0.23170375935E+03  0.27844983878E+03  0.12499717538E+03 0.  0.
         23    2    1    2    0    0 -0.15337378624E+02 -0.89376459886E+02  0.16785891436E+03  0.21143820329E+03  0.91137873128E+02 0.  0.
          5    1    3    3  502    0  0.56938394172E+02  0.31811381121E+01  0.69157318599E+02  0.89760375926E+02  0.47000000000E+01 0. -1.
         -5    1    3    3    0  502 -0.41601015548E+02  0.86195321774E+02  0.16254644075E+03  0.18868946285E+03  0.47000000000E+01 0. -1.
        -11    1    4    4    0    0 -0.46496569679E+02 -0.82256457689E+02  0.10738305046E+03  0.14303557372E+03  0.00000000000E+00 0. -1.
         11    1    4    4    0    0  0.31159191055E+02 -0.71200021976E+01  0.60475863899E+02  0.68402629575E+02  0.00000000000E+00 0.  1.
<mgrwt>
<rscale>  0 0.14751112E+03</rscale>
<asrwt>0</asrwt>
<pdfrwt beam="1">  1        1 0.68419283E-01 0.15442694E+03</pdfrwt>
<pdfrwt beam="2">  1       -1 0.69481056E-02 0.15442694E+03</pdfrwt>
<totfact> 0.54581557E+03</totfact>
</mgrwt>
</event>
<event>
 8    1  0.1154424E-005  0.1462489E+03  0.7546771E-02  0.1214412E+00
         -2   -1    0    0    0  501 -0.00000000000E+00  0.00000000000E+00  0.77285980570E+02  0.77285980570E+02  0.00000000000E+00 0. -1.
          2   -1    0    0  501    0  0.00000000000E+00 -0.00000000000E+00 -0.22937026074E+03  0.22937026074E+03  0.00000000000E+00 0.  1.
         23    2    1    2    0    0 -0.75117577695E+02 -0.11040533163E+02 -0.85238108750E+02  0.16927577935E+03  0.12499684172E+03 0.  0.
         23    2    1    2    0    0  0.75117577695E+02  0.11040533163E+02 -0.66846171424E+02  0.13738046197E+03  0.92953950130E+02 0.  0.
          5    1    3    3  502    0 -0.35330443826E+02 -0.15895624525E+02  0.28673240865E+02  0.48426809535E+02  0.47000000000E+01 0.  1.
         -5    1    3    3    0  502 -0.39787133869E+02  0.48550913619E+01 -0.11391134962E+03  0.12084896981E+03  0.47000000000E+01 0.  1.
        -11    1    4    4    0    0  0.22219858416E+02 -0.23750155331E+02 -0.66543676990E+02  0.74066543957E+02  0.00000000000E+00 0.  1.
         11    1    4    4    0    0  0.52897719279E+02  0.34790688494E+02 -0.30249443390E+00  0.63313918010E+02  0.00000000000E+00 0. -1.
<mgrwt>
<rscale>  0 0.13919821E+03</rscale>
<asrwt>0</asrwt>
<pdfrwt beam="2">  1        2 0.35287733E-01 0.14624895E+03</pdfrwt>
<pdfrwt beam="1">  1       -2 0.11890151E-01 0.14624895E+03</pdfrwt>
<totfact> 0.70272955E+03</totfact>
</mgrwt>
</event>
<event>
 8    1  0.1154424E-005  0.1257444E+03  0.7546771E-02  0.1249531E+00
         -3   -1    0    0    0  501 -0.00000000000E+00  0.00000000000E+00  0.11406313283E+02  0.11406313283E+02  0.00000000000E+00 0.  1.
          3   -1    0    0  501    0  0.00000000000E+00 -0.00000000000E+00 -0.10357690818E+04  0.10357690818E+04  0.00000000000E+00 0. -1.
         23    2    1    2    0    0 -0.30483146680E+01  0.13665669069E+02 -0.59242915790E+03  0.60562690718E+03  0.12496239768E+03 0.  0.
         23    2    1    2    0    0  0.30483146680E+01 -0.13665669069E+02 -0.43193361062E+03  0.44154848791E+03  0.90566994312E+02 0.  0.
          5    1    3    3  502    0 -0.13543931012E+02 -0.57435088294E+01 -0.57933742622E+03  0.57954324203E+03  0.47000000000E+01 0.  1.
         -5    1    3    3    0  502  0.10495616344E+02  0.19409177899E+02 -0.13091731676E+02  0.26083665146E+02  0.47000000000E+01 0.  1.
        -11    1    4    4    0    0 -0.29032528563E+02  0.25700928768E+02 -0.14187873609E+03  0.14708161411E+03  0.00000000000E+00 0. -1.
         11    1    4    4    0    0  0.32080843231E+02 -0.39366597837E+02 -0.29005487453E+03  0.29446687380E+03  0.00000000000E+00 0.  1.
<mgrwt>
<rscale>  0 0.11618260E+03</rscale>
<asrwt>0</asrwt>
<pdfrwt beam="2">  1        3 0.15934912E+00 0.12574436E+03</pdfrwt>
<pdfrwt beam="1">  1       -3 0.17548171E-02 0.12574436E+03</pdfrwt>
<totfact> 0.78771715E+02</totfact>
</mgrwt>
</event>
<event>
 8    1  0.1154424E-005  0.1801396E+03  0.7546771E-02  0.1172810E+00
         -1   -1    0    0    0  501 -0.00000000000E+00  0.00000000000E+00  0.59613192798E+02  0.59613192798E+02  0.00000000000E+00 0.  1.
          1   -1    0    0  501    0  0.00000000000E+00 -0.00000000000E+00 -0.48929676192E+03  0.48929676192E+03  0.00000000000E+00 0. -1.
         23    2    1    2    0    0 -0.11831844145E+03 -0.53165840275E+02 -0.20369340342E+03  0.27192146729E+03  0.12499768645E+03 0.  0.
         23    2    1    2    0    0  0.11831844145E+03  0.53165840275E+02 -0.22599016570E+03  0.27698848743E+03  0.93942572947E+02 0.  0.
          5    1    3    3  502    0  0.56031301160E+01 -0.31331784684E+02  0.32302298191E+00  0.32175614095E+02  0.47000000000E+01 0.  1.
         -5    1    3    3    0  502 -0.12392157157E+03 -0.21834055591E+02 -0.20401642640E+03  0.23974585320E+03  0.47000000000E+01 0.  1.
        -11    1    4    4    0    0  0.80256691511E+02  0.30638054541E+02 -0.21483580903E+03  0.23137469991E+03  0.00000000000E+00 0. -1.
         11    1    4    4    0    0  0.38061749942E+02  0.22527785734E+02 -0.11154356677E+02  0.45613787516E+02  0.00000000000E+00 0.  1.
<mgrwt>
<rscale>  0 0.17492227E+03</rscale>
<asrwt>0</asrwt>
<pdfrwt beam="2">  1        1 0.75276426E-01 0.18013962E+03</pdfrwt>
<pdfrwt beam="1">  1       -1 0.91712603E-02 0.18013962E+03</pdfrwt>
<totfact> 0.31868040E+03</totfact>
</mgrwt>
</event>
<event>
 8    1  0.1154424E-005  0.1526323E+03  0.7546771E-02  0.1206308E+00
          1   -1    0    0  501    0  0.00000000000E+00  0.00000000000E+00  0.54227363040E+03  0.54227363040E+03  0.00000000000E+00 0. -1.
         -1   -1    0    0    0  501 -0.00000000000E+00 -0.00000000000E+00 -0.35872373562E+02  0.35872373562E+02  0.00000000000E+00 0.  1.
         23    2    1    2    0    0  0.80597789349E+02 -0.34294288788E+02  0.29945650715E+03  0.33611133605E+03  0.12499811461E+03 0.  0.
         23    2    1    2    0    0 -0.80597789349E+02  0.34294288788E+02  0.20694474969E+03  0.24203466791E+03  0.89902998596E+02 0.  0.
          5    1    3    3  502    0 -0.28813490258E+02  0.13656687721E+02  0.79089053780E+02  0.85404278395E+02  0.47000000000E+01 0.  1.
         -5    1    3    3    0  502  0.10941127961E+03 -0.47950976510E+02  0.22036745337E+03  0.25070705766E+03  0.47000000000E+01 0.  1.
        -11    1    4    4    0    0 -0.54467032385E+02 -0.91185744033E+01  0.41713407946E+02  0.69208485163E+02  0.00000000000E+00 0.  1.
         11    1    4    4    0    0 -0.26130756964E+02  0.43412863192E+02  0.16523134174E+03  0.17282618275E+03  0.00000000000E+00 0. -1.
<mgrwt>
<rscale>  0 0.14534865E+03</rscale>
<asrwt>0</asrwt>
<pdfrwt beam="1">  1        1 0.83426706E-01 0.15263234E+03</pdfrwt>
<pdfrwt beam="2">  1       -1 0.55188271E-02 0.15263234E+03</pdfrwt>
<totfact> 0.59419930E+03</totfact>
</mgrwt>
</event>
<event>
 8    1  0.1154424E-005  0.1795218E+03  0.7546771E-02  0.1173126E+00
         -1   -1    0    0    0  501 -0.00000000000E+00  0.00000000000E+00  0.22395692952E+03  0.22395692952E+03  0.00000000000E+00 0.  1.
          1   -1    0    0  501    0  0.00000000000E+00 -0.00000000000E+00 -0.13458969831E+03  0.13458969831E+03  0.00000000000E+00 0. -1.
         23    2    1    2    0    0  0.65551373299E+02 -0.11092932973E+03  0.82954777905E+02  0.19776144300E+03  0.12500317766E+03 0.  0.
         23    2    1    2    0    0 -0.65551373299E+02  0.11092932973E+03  0.64124533039E+01  0.16078518483E+03  0.95960707417E+02 0.  0.
          5    1    3    3  502    0  0.81721006058E+02 -0.84971896157E+02  0.98710650114E+01  0.11839794716E+03  0.47000000000E+01 0.  1.
         -5    1    3    3    0  502 -0.16169632759E+02 -0.25957433572E+02  0.73083712893E+02  0.79363495837E+02  0.47000000000E+01 0.  1.
        -11    1    4    4    0    0  0.20736494198E+02  0.44636074434E+02 -0.11406801509E+02  0.50522237215E+02  0.00000000000E+00 0. -1.
         11    1    4    4    0    0 -0.86287867497E+02  0.66293255295E+02  0.17819254813E+02  0.11026294762E+03  0.00000000000E+00 0.  1.
<mgrwt>
<rscale>  0 0.17460757E+03</rscale>
<asrwt>0</asrwt>
<pdfrwt beam="2">  1        1 0.20706107E-01 0.17952185E+03</pdfrwt>
<pdfrwt beam="1">  1       -1 0.34454912E-01 0.17952185E+03</pdfrwt>
<totfact> 0.19329965E+03</totfact>
</mgrwt>
</event>
<event>
 8    1  0.1154424E-005  0.1280959E+03  0.7546771E-02  0.1244625E+00
          1   -1    0    0  501    0  0.00000000000E+00  0.00000000000E+00  0.37616266754E+03  0.37616266754E+03  0.00000000000E+00 0.  1.
         -1   -1    0    0    0  501 -0.00000000000E+00 -0.00000000000E+00 -0.51742471291E+02  0.51742471291E+02  0.00000000000E+00 0. -1.
         23    2    1    2    0    0  0.13813305268E+02  0.24337819516E+02  0.50376575802E+02  0.13764573975E+03  0.12500165368E+03 0.  0.
         23    2    1    2    0    0 -0.13813305268E+02 -0.24337819516E+02  0.27404362044E+03  0.29025939908E+03  0.91473908761E+02 0.  0.
          5    1    3    3  502    0 -0.46850752018E+02 -0.19538361468E+02  0.32734219275E+02  0.60583493174E+02  0.47000000000E+01 0. -1.
         -5    1    3    3    0  502  0.60664057286E+02  0.43876180984E+02  0.17642356527E+02  0.77062246580E+02  0.47000000000E+01 0. -1.
        -11    1    4    4    0    0  0.35212022616E+02 -0.83420753222E+01  0.17382036576E+03  0.17754716644E+03  0.00000000000E+00 0.  1.
         11    1    4    4    0    0 -0.49025327883E+02 -0.15995744193E+02  0.10022325468E+03  0.11271223263E+03  0.00000000000E+00 0. -1.
<mgrwt>
<rscale>  0 0.11907829E+03</rscale>
<asrwt>0</asrwt>
<pdfrwt beam="1">  1        1 0.57871178E-01 0.12809586E+03</pdfrwt>
<pdfrwt beam="2">  1       -1 0.79603804E-02 0.12809586E+03</pdfrwt>
<totfact> 0.54411068E+03</totfact>
</mgrwt>
</event>
<event>
 8    1  0.1154424E-005  0.1322913E+03  0.7546771E-02  0.1237735E+00
          3   -1    0    0  501    0  0.00000000000E+00  0.00000000000E+00  0.57364135603E+02  0.57364135603E+02  0.00000000000E+00 0. -1.
         -3   -1    0    0    0  501 -0.00000000000E+00 -0.00000000000E+00 -0.26195796000E+03  0.26195796000E+03  0.00000000000E+00 0.  1.
         23    2    1    2    0    0 -0.30133859418E+02 -0.31193932735E+02 -0.16599245169E+03  0.21226042252E+03  0.12497952644E+03 0.  0.
         23    2    1    2    0    0  0.30133859418E+02  0.31193932735E+02 -0.38601372713E+02  0.10706167308E+03  0.89950124762E+02 0.  0.
          5    1    3    3  502    0  0.37586036244E+02 -0.25053538717E+02 -0.12435664035E+03  0.13238978028E+03  0.47000000000E+01 0.  1.
         -5    1    3    3    0  502 -0.67719895662E+02 -0.61403940185E+01 -0.41635811336E+02  0.79870642246E+02  0.47000000000E+01 0.  1.
        -11    1    4    4    0    0  0.16294629330E+01  0.41199714159E+02  0.16348831223E+02  0.44354885622E+02  0.00000000000E+00 0. -1.
         11    1    4    4    0    0  0.28504396485E+02 -0.10005781423E+02 -0.54950203936E+02  0.62706787459E+02  0.00000000000E+00 0.  1.
<mgrwt>
<rscale>  0 0.12330964E+03</rscale>
<asrwt>0</asrwt>
<pdfrwt beam="1">  1        3 0.88252515E-02 0.13229132E+03</pdfrwt>
<pdfrwt beam="2">  1       -3 0.40301225E-01 0.13229132E+03</pdfrwt>
<totfact> 0.12733164E+03</totfact>
</mgrwt>
</event>
<event>
 8    1  0.1154424E-005  0.1538156E+03  0.7546771E-02  0.1204133E+00
          1   -1    0    0  501    0  0.00000000000E+00  0.00000000000E+00  0.17965665097E+03  0.17965665097E+03  0.00000000000E+00 0. -1.
         -1   -1    0    0    0  501 -0.00000000000E+00 -0.00000000000E+00 -0.11127279358E+03  0.11127279358E+03  0.00000000000E+00 0.  1.
         23    2    1    2    0    0 -0.82341109912E+02  0.35314879596E+02  0.29159936890E+02  0.15655523853E+03  0.12502816359E+03 0.  0.
         23    2    1    2    0    0  0.82341109912E+02 -0.35314879596E+02  0.39223920504E+02  0.13437420602E+03  0.92145060642E+02 0.  0.
          5    1    3    3  502    0  0.38180178249E+01 -0.15726885406E+02 -0.34082330418E+02  0.38021144530E+02  0.47000000000E+01 0. -1.
         -5    1    3    3    0  502 -0.86159127736E+02  0.51041765001E+02  0.63242267308E+02  0.11853409400E+03  0.47000000000E+01 0. -1.
        -11    1    4    4    0    0  0.60305382476E+02 -0.25787565399E+02 -0.21544498921E+02  0.69035520701E+02  0.00000000000E+00 0.  1.
         11    1    4    4    0    0  0.22035727436E+02 -0.95273141970E+01  0.60768419425E+02  0.65338685316E+02  0.00000000000E+00 0. -1.
<mgrwt>
<rscale>  0 0.14706004E+03</rscale>
<asrwt>0</asrwt>
<pdfrwt beam="1">  1        1 0.27639485E-01 0.15381561E+03</pdfrwt>
<pdfrwt beam="2">  1       -1 0.17118891E-01 0.15381561E+03</pdfrwt>
<totfact> 0.42227527E+03</totfact>
</mgrwt>
</event>
<event>
 8    1  0.1154424E-005  0.1185019E+03  0.7546771E-02  0.1253765E+00
         -2   -1    0    0    0  501 -0.00000000000E+00  0.00000000000E+00  0.78285240879E+02  0.78285240879E+02  0.00000000000E+00 0.  1.
          2   -1    0    0  501    0  0.00000000000E+00 -0.00000000000E+00 -0.15396352344E+03  0.15396352344E+03  0.00000000000E+00 0. -1.
         23    2    1    2    0    0 -0.41698626418E+02  0.11976817772E+02 -0.48197472289E+02  0.12792848743E+03  0.11027457527E+03 0.  0.
         23    2    1    2    0    0  0.41698626418E+02 -0.11976817772E+02 -0.27480810269E+02  0.10432027689E+03  0.90803665278E+02 0.  0.
          5    1    3    3  502    0 -0.28999480619E+02 -0.11410782573E+01 -0.83161506533E+02  0.88205431265E+02  0.47000000000E+01 0. -1.
         -5    1    3    3    0  502 -0.12699145799E+02  0.13117896030E+02  0.34964034244E+02  0.39723056162E+02  0.47000000000E+01 0.  1.
        -11    1    4    4    0    0  0.91201494954E+01  0.36540799808E+02  0.41139257187E+01  0.37885769918E+02  0.00000000000E+00 0.  1.
         11    1    4    4    0    0  0.32578476923E+02 -0.48517617581E+02 -0.31594735987E+02  0.66434506970E+02  0.00000000000E+00 0. -1.
<mgrwt>
<rscale>  0 0.11375799E+03</rscale>
<asrwt>0</asrwt>
<pdfrwt beam="2">  1        2 0.23686695E-01 0.11850191E+03</pdfrwt>
<pdfrwt beam="1">  1       -2 0.12043883E-01 0.11850191E+03</pdfrwt>
<totfact> 0.10451534E+04</totfact>
</mgrwt>
</event>
<event>
 8    1  0.1154424E-005  0.1554068E+03  0.7546771E-02  0.1202742E+00
          2   -1    0    0  501    0  0.00000000000E+00  0.00000000000E+00  0.22945126753E+03  0.22945126753E+03  0.00000000000E+00 0. -1.
         -2   -1    0    0    0  501 -0.00000000000E+00 -0.00000000000E+00 -0.90335971681E+02  0.90335971681E+02  0.00000000000E+00 0.  1.
         23    2    1    2    0    0 -0.65694578489E+02  0.64902042989E+02  0.10282230801E+03  0.18634300015E+03  0.12499293521E+03 0.  0.
         23    2    1    2    0    0  0.65694578489E+02 -0.64902042989E+02  0.36292987841E+02  0.13344423906E+03  0.89230774658E+02 0.  0.
          5    1    3    3  502    0 -0.71597599939E+02  0.95376563869E+02  0.60968126359E+02  0.13402278793E+03  0.47000000000E+01 0.  1.
         -5    1    3    3    0  502  0.59030214506E+01 -0.30474520879E+02  0.41854181653E+02  0.52320212222E+02  0.47000000000E+01 0.  1.
        -11    1    4    4    0    0  0.41977904559E+02 -0.72405800519E+01 -0.22127957429E+02  0.48002260057E+02  0.00000000000E+00 0.  1.
         11    1    4    4    0    0  0.23716673930E+02 -0.57661462938E+02  0.58420945270E+02  0.85441979007E+02  0.00000000000E+00 0. -1.
<mgrwt>
<rscale>  0 0.14816847E+03</rscale>
<asrwt>0</asrwt>
<pdfrwt beam="1">  1        2 0.35300195E-01 0.15540684E+03</pdfrwt>
<pdfrwt beam="2">  1       -2 0.13897842E-01 0.15540684E+03</pdfrwt>
<totfact> 0.54838346E+03</totfact>
</mgrwt>
</event>
<event>
 8    1  0.1154424E-005  0.2116745E+03  0.7546771E-02  0.1144052E+00
         -1   -1    0    0    0  501 -0.00000000000E+00  0.00000000000E+00  0.19132551146E+04  0.19132551146E+04  0.00000000000E+00 0.  1.
          1   -1    0    0  501    0  0.00000000000E+00 -0.00000000000E+00 -0.41440701080E+02  0.41440701080E+02  0.00000000000E+00 0. -1.
         23    2    1    2    0    0 -0.14536953028E+03  0.89718355421E+02  0.16370098782E+04  0.16506384908E+04  0.12499760860E+03 0.  0.
         23    2    1    2    0    0  0.14536953028E+03 -0.89718355421E+02  0.23480453531E+03  0.30405732493E+03  0.90199797161E+02 0.  0.
          5    1    3    3  502    0 -0.95900611995E+02  0.38164408375E+02  0.46037660105E+03  0.47182852207E+03  0.47000000000E+01 0.  1.
         -5    1    3    3    0  502 -0.49468918288E+02  0.51553947046E+02  0.11766332772E+04  0.11788099687E+04  0.47000000000E+01 0.  1.
        -11    1    4    4    0    0  0.11059104995E+03 -0.37345739655E+02  0.20161207388E+03  0.23296461735E+03  0.00000000000E+00 0. -1.
         11    1    4    4    0    0  0.34778480329E+02 -0.52372615766E+02  0.33192461431E+02  0.71092707587E+02  0.00000000000E+00 0.  1.
<mgrwt>
<rscale>  0 0.20689058E+03</rscale>
<asrwt>0</asrwt>
<pdfrwt beam="2">  1        1 0.63754940E-02 0.21167448E+03</pdfrwt>
<pdfrwt beam="1">  1       -1 0.29434687E+00 0.21167448E+03</pdfrwt>
<totfact> 0.50413492E+01</totfact>
</mgrwt>
</event>
<event>
 8    1  0.1154424E-005  0.1560051E+03  0.7546771E-02  0.1201564E+00
         -1   -1    0    0    0  501 -0.00000000000E+00  0.00000000000E+00  0.25545135709E+03  0.25545135709E+03  0.00000000000E+00 0.  1.
          1   -1    0    0  501    0  0.00000000000E+00 -0.00000000000E+00 -0.94900212057E+02  0.94900212057E+02  0.00000000000E+00 0. -1.
         23    2    1    2    0    0 -0.50611936108E+02  0.78424135848E+02  0.15514781385E+03  0.22001917573E+03  0.12500272151E+03 0.  0.
         23    2    1    2    0    0  0.50611936108E+02 -0.78424135848E+02  0.54033311862E+01  0.13033239342E+03  0.90804315022E+02 0.  0.
          5    1    3    3  502    0 -0.76044285589E+02  0.15274056405E+02  0.43185472571E+02  0.88899410634E+02  0.47000000000E+01 0. -1.
         -5    1    3    3    0  502  0.25432349482E+02  0.63150079444E+02  0.11196234128E+03  0.13111976509E+03  0.47000000000E+01 0. -1.
        -11    1    4    4    0    0 -0.10384603344E+02 -0.55436669229E+02  0.25813425266E+02  0.62027390770E+02  0.00000000000E+00 0.  1.
         11    1    4    4    0    0  0.60996539452E+02 -0.22987466619E+02 -0.20410094080E+02  0.68305002650E+02  0.00000000000E+00 0. -1.
<mgrwt>
<rscale>  0 0.14911585E+03</rscale>
<asrwt>0</asrwt>
<pdfrwt beam="2">  1        1 0.14600033E-01 0.15600511E+03</pdfrwt>
<pdfrwt beam="1">  1       -1 0.39300208E-01 0.15600511E+03</pdfrwt>
<totfact> 0.24010071E+03</totfact>
</mgrwt>
</event>
<event>
 8    1  0.1154424E-005  0.1774153E+03  0.7546771E-02  0.1175110E+00
         -2   -1    0    0    0  501 -0.00000000000E+00  0.00000000000E+00  0.32385324615E+02  0.32385324615E+02  0.00000000000E+00 0.  1.
          2   -1    0    0  501    0  0.00000000000E+00 -0.00000000000E+00 -0.10136968456E+04  0.10136968456E+04  0.00000000000E+00 0. -1.
         23    2    1    2    0    0  0.12311896725E+03  0.26302548960E+02 -0.31992845774E+03  0.36582836159E+03  0.12500427152E+03 0.  0.
         23    2    1    2    0    0 -0.12311896725E+03 -0.26302548960E+02 -0.66138306323E+03  0.68025380860E+03  0.97301508779E+02 0.  0.
          5    1    3    3  502    0  0.19739501715E+02  0.56219001044E+02 -0.17721415408E+03  0.18702184474E+03  0.47000000000E+01 0. -1.
         -5    1    3    3    0  502  0.10337946553E+03 -0.29916452084E+02 -0.14271430366E+03  0.17880651685E+03  0.47000000000E+01 0. -1.
        -11    1    4    4    0    0 -0.96234963214E+00 -0.29777513487E+02 -0.65340385974E+02  0.71812202762E+02  0.00000000000E+00 0.  1.
         11    1    4    4    0    0 -0.12215661762E+03  0.34749645271E+01 -0.59604267725E+03  0.60844160584E+03  0.00000000000E+00 0. -1.
<mgrwt>
<rscale>  0 0.17265184E+03</rscale>
<asrwt>0</asrwt>
<pdfrwt beam="2">  1        2 0.15595333E+00 0.17741525E+03</pdfrwt>
<pdfrwt beam="1">  1       -2 0.49823586E-02 0.17741525E+03</pdfrwt>
<totfact> 0.49969127E+03</totfact>
</mgrwt>
</event>
<event>
 8    1  0.1154424E-005  0.1159747E+03  0.7546771E-02  0.1261905E+00
          2   -1    0    0  501    0  0.00000000000E+00  0.00000000000E+00  0.18787523615E+03  0.18787523615E+03  0.00000000000E+00 0. -1.
         -2   -1    0    0    0  501 -0.00000000000E+00 -0.00000000000E+00 -0.77877641768E+02  0.77877641768E+02  0.00000000000E+00 0.  1.
         23    2    1    2    0    0 -0.68840926074E-01  0.24086083949E+02 -0.82623178411E+01  0.11626859358E+03  0.11344591565E+03 0.  0.
         23    2    1    2    0    0  0.68840926074E-01 -0.24086083949E+02  0.11825991222E+03  0.14948428433E+03  0.88204309672E+02 0.  0.
          5    1    3    3  502    0 -0.40800245059E+02  0.61512504165E+01  0.34785870989E+02  0.54172361025E+02  0.47000000000E+01 0. -1.
         -5    1    3    3    0  502  0.40731404133E+02  0.17934833533E+02 -0.43048188830E+02  0.62096232559E+02  0.47000000000E+01 0.  1.
        -11    1    4    4    0    0  0.16763579490E+02  0.24824294804E+02  0.13886815497E+02  0.33016766263E+02  0.00000000000E+00 0.  1.
         11    1    4    4    0    0 -0.16694738564E+02 -0.48910378753E+02  0.10437309672E+03  0.11646751807E+03  0.00000000000E+00 0. -1.
<mgrwt>
<rscale>  0 0.10928210E+03</rscale>
<asrwt>0</asrwt>
<pdfrwt beam="1">  1        2 0.28903882E-01 0.11597465E+03</pdfrwt>
<pdfrwt beam="2">  1       -2 0.11981176E-01 0.11597465E+03</pdfrwt>
<totfact> 0.84634498E+03</totfact>
</mgrwt>
</event>
<event>
 8    1  0.1154424E-005  0.1310403E+03  0.7546771E-02  0.1239598E+00
          2   -1    0    0  501    0  0.00000000000E+00  0.00000000000E+00  0.55636330897E+02  0.55636330897E+02  0.00000000000E+00 0. -1.
         -2   -1    0    0    0  501 -0.00000000000E+00 -0.00000000000E+00 -0.24765003409E+03  0.24765003409E+03  0.00000000000E+00 0.  1.
         23    2    1    2    0    0  0.38970135112E+02  0.52744900610E+01 -0.78660256113E+02  0.15283646244E+03  0.12500022673E+03 0.  0.
         23    2    1    2    0    0 -0.38970135112E+02 -0.52744900610E+01 -0.11335344708E+03  0.15044990255E+03  0.90772669547E+02 0.  0.
          5    1    3    3  502    0  0.49917994058E+02  0.49832907786E+02 -0.79917078386E+02  0.10669561494E+03  0.47000000000E+01 0. -1.
         -5    1    3    3    0  502 -0.10947858946E+02 -0.44558417726E+02  0.12568222730E+01  0.46140847499E+02  0.47000000000E+01 0. -1.
        -11    1    4    4    0    0 -0.47568930015E+02  0.21939346450E+02 -0.10984302023E+03  0.12169481138E+03  0.00000000000E+00 0.  1.
         11    1    4    4    0    0  0.85987949035E+01 -0.27213836511E+02 -0.35104268565E+01  0.28755091169E+02  0.00000000000E+00 0. -1.
<mgrwt>
<rscale>  0 0.12214625E+03</rscale>
<asrwt>0</asrwt>
<pdfrwt beam="1">  1        2 0.85594355E-02 0.13104025E+03</pdfrwt>
<pdfrwt beam="2">  1       -2 0.38100005E-01 0.13104025E+03</pdfrwt>
<totfact> 0.48390063E+03</totfact>
</mgrwt>
</event>
<event>
 8    1  0.1154424E-005  0.1208100E+03  0.7546771E-02  0.1251668E+00
          1   -1    0    0  501    0  0.00000000000E+00  0.00000000000E+00  0.32209000494E+03  0.32209000494E+03  0.00000000000E+00 0. -1.
         -1   -1    0    0    0  501 -0.00000000000E+00 -0.00000000000E+00 -0.59801240114E+02  0.59801240114E+02  0.00000000000E+00 0.  1.
         23    2    1    2    0    0 -0.75955183504E+01 -0.27430883109E+02  0.23077361170E+02  0.12299434987E+03  0.11740911486E+03 0.  0.
         23    2    1    2    0    0  0.75955183504E+01  0.27430883109E+02  0.23921140365E+03  0.25889689518E+03  0.94843879361E+02 0.  0.
          5    1    3    3  502    0 -0.49961145651E+02  0.22540417222E+02  0.78276507110E+01  0.55565714239E+02  0.47000000000E+01 0. -1.
         -5    1    3    3    0  502  0.42365627300E+02 -0.49971300331E+02  0.15249710459E+02  0.67428635626E+02  0.47000000000E+01 0.  1.
        -11    1    4    4    0    0 -0.29213386490E+02  0.22455587482E+02  0.20536793631E+03  0.20864722530E+03  0.00000000000E+00 0. -1.
         11    1    4    4    0    0  0.36808904841E+02  0.49752956272E+01  0.33843467338E+02  0.50249669885E+02  0.00000000000E+00 0.  1.
<mgrwt>
<rscale>  0 0.11495048E+03</rscale>
<asrwt>0</asrwt>
<pdfrwt beam="1">  1        1 0.49552308E-01 0.12080996E+03</pdfrwt>
<pdfrwt beam="2">  1       -1 0.92001909E-02 0.12080996E+03</pdfrwt>
<totfact> 0.52847807E+03</totfact>
</mgrwt>
</event>
<event>
 8    1  0.1154424E-005  0.1586053E+03  0.7546771E-02  0.1198057E+00
          1   -1    0    0  501    0  0.00000000000E+00  0.00000000000E+00  0.68440785077E+03  0.68440785077E+03  0.00000000000E+00 0. -1.
         -1   -1    0    0    0  501 -0.00000000000E+00 -0.00000000000E+00 -0.32038863158E+02  0.32038863158E+02  0.00000000000E+00 0.  1.
         23    2    1    2    0    0  0.21094938868E+02 -0.95313422168E+02  0.29605586660E+03  0.33586414178E+03  0.12500400270E+03 0.  0.
         23    2    1    2    0    0 -0.21094938868E+02  0.95313422168E+02  0.35631312100E+03  0.38058257215E+03  0.91402456914E+02 0.  0.
          5    1    3    3  502    0  0.50984544063E+02 -0.34917443476E+02  0.24063645536E+03  0.24848872256E+03  0.47000000000E+01 0. -1.
         -5    1    3    3    0  502 -0.29889605195E+02 -0.60395978691E+02  0.55419411246E+02  0.87375419219E+02  0.47000000000E+01 0. -1.
        -11    1    4    4    0    0 -0.21707485468E+02  0.43085435656E+01  0.13563538033E+02  0.25956656892E+02  0.00000000000E+00 0.  1.
         11    1    4    4    0    0  0.61254660048E+00  0.91004878602E+02  0.34274958297E+03  0.35462591525E+03  0.00000000000E+00 0. -1.
<mgrwt>
<rscale>  0 0.15198354E+03</rscale>
<asrwt>0</asrwt>
<pdfrwt beam="1">  1        1 0.10529351E+00 0.15860531E+03</pdfrwt>
<pdfrwt beam="2">  1       -1 0.49290564E-02 0.15860531E+03</pdfrwt>
<totfact> 0.51125165E+03</totfact>
</mgrwt>
</event>
<event>
 7    1  0.1154424E-005  0.6712560E+03  0.7546771E-02  0.1041256E+00
          2   -1    0    0  501    0  0.00000000000E+00  0.00000000000E+00  0.81971018084E+03  0.81971018084E+03  0.00000000000E+00 0. -1.
         -2   -1    0    0    0  501 -0.00000000000E+00 -0.00000000000E+00 -0.17896092916E+03  0.17896092916E+03  0.00000000000E+00 0.  1.
         23    2    1    2    0    0 -0.50624342168E+01 -0.75142353289E+01  0.11092497707E+03  0.14351124031E+03  0.90603717287E+02 0.  0.
          5    1    1    2  502    0 -0.18537352811E+03 -0.22302567372E+03  0.46673891550E+03  0.54951897265E+03  0.47000000000E+01 0. -1.
         -5    1    1    2    0  502  0.19043596233E+03  0.23053990904E+03  0.63085359116E+02  0.30564089704E+03  0.47000000000E+01 0.  1.
        -11    1    3    3    0    0 -0.18473332162E+02  0.34177799348E+02  0.22655295009E+02  0.44973863091E+02  0.00000000000E+00 0. -1.
         11    1    3    3    0    0  0.13410897945E+02 -0.41692034677E+02  0.88269682058E+02  0.98537377222E+02  0.00000000000E+00 0.  1.
<mgrwt>
<rscale>  0 0.40737355E+03</rscale>
<asrwt>0</asrwt>
<pdfrwt beam="1">  1        2 0.12610926E+00 0.67125602E+03</pdfrwt>
<pdfrwt beam="2">  1       -2 0.27532451E-01 0.67125602E+03</pdfrwt>
<totfact> 0.40429233E+02</totfact>
</mgrwt>
</event>
<event>
 8    1  0.1154424E-005  0.1593067E+03  0.7546771E-02  0.1196727E+00
          2   -1    0    0  501    0  0.00000000000E+00  0.00000000000E+00  0.34654966950E+03  0.34654966950E+03  0.00000000000E+00 0. -1.
         -2   -1    0    0    0  501 -0.00000000000E+00 -0.00000000000E+00 -0.76866167887E+02  0.76866167887E+02  0.00000000000E+00 0.  1.
         23    2    1    2    0    0 -0.35689443650E+02 -0.92081290301E+02  0.53428934932E+02  0.16802761919E+03  0.12500371719E+03 0.  0.
         23    2    1    2    0    0  0.35689443650E+02  0.92081290301E+02  0.21625456668E+03  0.25538821820E+03  0.93297395312E+02 0.  0.
          5    1    3    3  502    0 -0.39907770584E+02 -0.88803322096E+02  0.88855176388E+02  0.13189386847E+03  0.47000000000E+01 0. -1.
         -5    1    3    3    0  502  0.42183269346E+01 -0.32779682048E+01 -0.35426241456E+02  0.36133750724E+02  0.47000000000E+01 0. -1.
        -11    1    4    4    0    0  0.36841848566E+02  0.10905761875E+03  0.16350274254E+03  0.19996007810E+03  0.00000000000E+00 0.  1.
         11    1    4    4    0    0 -0.11524049165E+01 -0.16976328453E+02  0.52751824143E+02  0.55428140103E+02  0.00000000000E+00 0. -1.
<mgrwt>
<rscale>  0 0.15308971E+03</rscale>
<asrwt>0</asrwt>
<pdfrwt beam="1">  1        2 0.53315333E-01 0.15930672E+03</pdfrwt>
<pdfrwt beam="2">  1       -2 0.11825564E-01 0.15930672E+03</pdfrwt>
<totfact> 0.45882953E+03</totfact>
</mgrwt>
</event>
<event>
 8    1  0.1154424E-005  0.1320813E+03  0.7546771E-02  0.1237376E+00
          2   -1    0    0  501    0  0.00000000000E+00  0.00000000000E+00  0.91651837484E+02  0.91651837484E+02  0.00000000000E+00 0. -1.
         -2   -1    0    0    0  501 -0.00000000000E+00 -0.00000000000E+00 -0.26871412854E+03  0.26871412854E+03  0.00000000000E+00 0.  1.
         23    2    1    2    0    0  0.26424612724E+02  0.33504634229E+02 -0.21506377965E+03  0.25238445232E+03  0.12499864714E+03 0.  0.
         23    2    1    2    0    0 -0.26424612724E+02 -0.33504634229E+02  0.38001488585E+02  0.10798151371E+03  0.91624633670E+02 0.  0.
          5    1    3    3  502    0  0.56833095099E+02 -0.19178261507E+02 -0.15711047805E+03  0.16823673418E+03  0.47000000000E+01 0.  1.
         -5    1    3    3    0  502 -0.30408482375E+02  0.52682895735E+02 -0.57953301593E+02  0.84147718145E+02  0.47000000000E+01 0.  1.
        -11    1    4    4    0    0  0.91131380738E+01  0.28086365176E+02  0.66435539850E+01  0.30265987575E+02  0.00000000000E+00 0. -1.
         11    1    4    4    0    0 -0.35537750798E+02 -0.61590999405E+02  0.31357934600E+02  0.77715526131E+02  0.00000000000E+00 0.  1.
<mgrwt>
<rscale>  0 0.12353518E+03</rscale>
<asrwt>0</asrwt>
<pdfrwt beam="1">  1        2 0.14100283E-01 0.13208135E+03</pdfrwt>
<pdfrwt beam="2">  1       -2 0.41340635E-01 0.13208135E+03</pdfrwt>
<totfact> 0.22653325E+03</totfact>
</mgrwt>
</event>
<event>
 8    1  0.1154424E-005  0.1399798E+03  0.7546771E-02  0.1224595E+00
         -2   -1    0    0    0  501 -0.00000000000E+00  0.00000000000E+00  0.16518480187E+03  0.16518480187E+03  0.00000000000E+00 0.  1.
          2   -1    0    0  501    0  0.00000000000E+00 -0.00000000000E+00 -0.95070900207E+02  0.95070900207E+02  0.00000000000E+00 0. -1.
         23    2    1    2    0    0  0.82008129992E+01 -0.62462429892E+02  0.34809757498E+02  0.14424308171E+03  0.12500215567E+03 0.  0.
         23    2    1    2    0    0 -0.82008129992E+01  0.62462429892E+02  0.35304144164E+02  0.11601262037E+03  0.90795027442E+02 0.  0.
          5    1    3    3  502    0 -0.54414183702E+02 -0.52679761228E+02  0.25287165592E+02  0.79984944675E+02  0.47000000000E+01 0. -1.
         -5    1    3    3    0  502  0.62614996701E+02 -0.97826686644E+01  0.95225919052E+01  0.64258137031E+02  0.47000000000E+01 0. -1.
        -11    1    4    4    0    0  0.26118646660E+02  0.55331590158E+02 -0.64160351868E+01  0.61521817920E+02  0.00000000000E+00 0. -1.
         11    1    4    4    0    0 -0.34319459659E+02  0.71308397346E+01  0.41720179351E+02  0.54490802450E+02  0.00000000000E+00 0.  1.
<mgrwt>
<rscale>  0 0.13194709E+03</rscale>
<asrwt>0</asrwt>
<pdfrwt beam="2">  1        2 0.14626292E-01 0.13997981E+03</pdfrwt>
<pdfrwt beam="1">  1       -2 0.25413046E-01 0.13997981E+03</pdfrwt>
<totfact> 0.52876893E+03</totfact>
</mgrwt>
</event>
<event>
 8    1  0.1154424E-005  0.1378894E+03  0.7546771E-02  0.1227288E+00
          2   -1    0    0  501    0  0.00000000000E+00  0.00000000000E+00  0.31664194113E+03  0.31664194113E+03  0.00000000000E+00 0. -1.
         -2   -1    0    0    0  501 -0.00000000000E+00 -0.00000000000E+00 -0.62391649825E+02  0.62391649825E+02  0.00000000000E+00 0.  1.
         23    2    1    2    0    0  0.35405694604E+02 -0.46203062903E+02  0.48726380630E+02  0.14624549430E+03  0.12500079281E+03 0.  0.
         23    2    1    2    0    0 -0.35405694604E+02  0.46203062903E+02  0.20552391067E+03  0.23278809665E+03  0.92530718419E+02 0.  0.
          5    1    3    3  502    0  0.70886830061E+02 -0.63321368118E+02  0.47950042557E+02  0.10656375987E+03  0.47000000000E+01 0.  1.
         -5    1    3    3    0  502 -0.35481135457E+02  0.17118305215E+02  0.77633807291E+00  0.39681734433E+02  0.47000000000E+01 0.  1.
        -11    1    4    4    0    0 -0.35839683939E+02  0.62439320396E+02  0.20416799384E+03  0.21648954105E+03  0.00000000000E+00 0. -1.
         11    1    4    4    0    0  0.43398933488E+00 -0.16236257493E+02  0.13559168340E+01  0.16298555598E+02  0.00000000000E+00 0.  1.
<mgrwt>
<rscale>  0 0.13011283E+03</rscale>
<asrwt>0</asrwt>
<pdfrwt beam="1">  1        2 0.48714144E-01 0.13788939E+03</pdfrwt>
<pdfrwt beam="2">  1       -2 0.95987155E-02 0.13788939E+03</pdfrwt>
<totfact> 0.69690627E+03</totfact>
</mgrwt>
</event>
<event>
 7    1  0.1154424E-005  0.3722852E+03  0.7546771E-02  0.1055017E+00
          3   -1    0    0  501    0  0.00000000000E+00  0.00000000000E+00  0.20200517262E+03  0.20200517262E+03  0.00000000000E+00 0. -1.
         -3   -1    0    0    0  501 -0.00000000000E+00 -0.00000000000E+00 -0.66899109657E+03  0.66899109657E+03  0.00000000000E+00 0.  1.
         23    2    1    2    0    0  0.11513848533E+03  0.31726060271E+03 -0.26905541544E+03  0.44936518806E+03  0.12500837904E+03 0.  0.
          5    1    3    3  502    0  0.78348900365E+02  0.18129952310E+03 -0.79023733084E+02  0.21277901132E+03  0.47000000000E+01 0. -1.
         -5    1    3    3    0  502  0.36789584968E+02  0.13596107960E+03 -0.19003168236E+03  0.23658617675E+03  0.47000000000E+01 0. -1.
        -11    1    1    2    0    0 -0.88878275881E+02 -0.20640436943E+03 -0.42161687776E+02  0.22864758813E+03  0.00000000000E+00 0. -1.
         11    1    1    2    0    0 -0.26260209452E+02 -0.11085623328E+03 -0.15576882074E+03  0.19298349300E+03  0.00000000000E+00 0.  1.
<mgrwt>
<rscale>  0 0.36915317E+03</rscale>
<asrwt>0</asrwt>
<pdfrwt beam="1">  1        3 0.31077719E-01 0.37228522E+03</pdfrwt>
<pdfrwt beam="2">  1       -3 0.10292171E+00 0.37228522E+03</pdfrwt>
<totfact> 0.21401749E+01</totfact>
</mgrwt>
</event>
<event>
 8    1  0.1154424E-005  0.1443102E+03  0.7546771E-02  0.1217756E+00
          2   -1    0    0  501    0  0.00000000000E+00  0.00000000000E+00  0.50579185982E+03  0.50579185982E+03  0.00000000000E+00 0. -1.
         -2   -1    0    0    0  501 -0.00000000000E+00 -0.00000000000E+00 -0.44136714006E+02  0.44136714006E+02  0.00000000000E+00 0.  1.
         23    2    1    2    0    0 -0.30322026230E+02 -0.65412454010E+02  0.11584827822E+03  0.18505742572E+03  0.12500885101E+03 0.  0.
         23    2    1    2    0    0  0.30322026230E+02  0.65412454010E+02  0.34580686759E+03  0.36487114811E+03  0.91380252975E+02 0.  0.
          5    1    3    3  502    0 -0.20729677966E+02 -0.13968339680E+02 -0.24427190200E+02  0.35264878889E+02  0.47000000000E+01 0.  1.
         -5    1    3    3    0  502 -0.95923482640E+01 -0.51444114330E+02  0.14027546842E+03  0.14979254683E+03  0.47000000000E+01 0.  1.
        -11    1    4    4    0    0 -0.15457753677E+02 -0.14903266917E+02  0.40033989752E+02  0.45428733737E+02  0.00000000000E+00 0. -1.
         11    1    4    4    0    0  0.45779779907E+02  0.80315720927E+02  0.30577287784E+03  0.31944241437E+03  0.00000000000E+00 0.  1.
<mgrwt>
<rscale>  0 0.13676009E+03</rscale>
<asrwt>0</asrwt>
<pdfrwt beam="1">  1        2 0.77814128E-01 0.14431018E+03</pdfrwt>
<pdfrwt beam="2">  1       -2 0.67902640E-02 0.14431018E+03</pdfrwt>
<totfact> 0.72184533E+03</totfact>
</mgrwt>
</event>
<event>
 8    1  0.1154424E-005  0.1958805E+03  0.7546771E-02  0.1157665E+00
         -3   -1    0    0    0  501 -0.00000000000E+00  0.00000000000E+00  0.51011019012E+03  0.51011019012E+03  0.00000000000E+00 0.  1.
          3   -1    0    0  501    0  0.00000000000E+00 -0.00000000000E+00 -0.74353442328E+02  0.74353442328E+02  0.00000000000E+00 0. -1.
         23    2    1    2    0    0  0.54436462395E+01 -0.15072032369E+03  0.31338597654E+03  0.36956720814E+03  0.12499160686E+03 0.  0.
         23    2    1    2    0    0 -0.54436462395E+01  0.15072032369E+03  0.12237077125E+03  0.21489642431E+03  0.91976183144E+02 0.  0.
          5    1    3    3  502    0 -0.48646278916E+02 -0.11959834059E+03  0.24423756113E+03  0.27630472271E+03  0.47000000000E+01 0.  1.
         -5    1    3    3    0  502  0.54089925155E+02 -0.31121983096E+02  0.69148415405E+02  0.93262485427E+02  0.47000000000E+01 0.  1.
        -11    1    4    4    0    0 -0.28049282777E+02  0.89219704764E+02  0.23750910300E+02  0.96493646022E+02  0.00000000000E+00 0. -1.
         11    1    4    4    0    0  0.22605636538E+02  0.61500618924E+02  0.98619860952E+02  0.11840277828E+03  0.00000000000E+00 0.  1.
<mgrwt>
<rscale>  0 0.19088546E+03</rscale>
<asrwt>0</asrwt>
<pdfrwt beam="2">  1        3 0.11438991E-01 0.19588045E+03</pdfrwt>
<pdfrwt beam="1">  1       -3 0.78478489E-01 0.19588045E+03</pdfrwt>
<totfact> 0.22315978E+02</totfact>
</mgrwt>
</event>
<event>
 7    1  0.1154424E-005  0.1388393E+03  0.7546771E-02  0.1249865E+00
         -2   -1    0    0    0  501 -0.00000000000E+00  0.00000000000E+00  0.17172770755E+03  0.17172770755E+03  0.00000000000E+00 0.  1.
          2   -1    0    0  501    0  0.00000000000E+00 -0.00000000000E+00 -0.63347734363E+02  0.63347734363E+02  0.00000000000E+00 0. -1.
         23    2    1    2    0    0  0.44610557366E+02  0.40753026267E+02  0.88257869324E+02  0.16451690839E+03  0.12500180267E+03 0.  0.
          5    1    3    3  502    0  0.45887901999E+02 -0.35556508084E+02  0.18759904267E+02  0.61188142847E+02  0.47000000000E+01 0.  1.
         -5    1    3    3    0  502 -0.12773446331E+01  0.76309534352E+02  0.69497965057E+02  0.10332876555E+03  0.47000000000E+01 0.  1.
        -11    1    1    2    0    0 -0.30075665024E+02 -0.35806326626E+02  0.26708898880E+02  0.53851684583E+02  0.00000000000E+00 0.  1.
         11    1    1    2    0    0 -0.14534892341E+02 -0.49466996415E+01 -0.65867950178E+01  0.16706848935E+02  0.00000000000E+00 0. -1.
<mgrwt>
<rscale>  0 0.11598899E+03</rscale>
<asrwt>0</asrwt>
<pdfrwt beam="2">  1        2 0.97458054E-02 0.13883934E+03</pdfrwt>
<pdfrwt beam="1">  1       -2 0.26419647E-01 0.13883934E+03</pdfrwt>
<totfact> 0.80457034E+03</totfact>
</mgrwt>
</event>
<event>
 8    1  0.1154424E-005  0.1513214E+03  0.7546771E-02  0.1207227E+00
         -1   -1    0    0    0  501 -0.00000000000E+00  0.00000000000E+00  0.37505503772E+02  0.37505503772E+02  0.00000000000E+00 0.  1.
          1   -1    0    0  501    0  0.00000000000E+00 -0.00000000000E+00 -0.58729325513E+03  0.58729325513E+03  0.00000000000E+00 0. -1.
         23    2    1    2    0    0  0.14107870257E+02  0.84098390605E+02 -0.18639175546E+03  0.24008339965E+03  0.12500632375E+03 0.  0.
         23    2    1    2    0    0 -0.14107870257E+02 -0.84098390605E+02 -0.36339599589E+03  0.38471535925E+03  0.93154100844E+02 0.  0.
          5    1    3    3  502    0  0.81792492460E+01  0.61064858415E+02 -0.20200695790E+03  0.21124563449E+03  0.47000000000E+01 0.  1.
         -5    1    3    3    0  502  0.59286210115E+01  0.23033532191E+02  0.15615202438E+02  0.28837765160E+02  0.47000000000E+01 0.  1.
        -11    1    4    4    0    0 -0.18241168672E+02  0.16851863403E+02 -0.59907964556E+02  0.64851289516E+02  0.00000000000E+00 0.  1.
         11    1    4    4    0    0  0.41332984148E+01 -0.10095025401E+03 -0.30348803134E+03  0.31986406973E+03  0.00000000000E+00 0. -1.
<mgrwt>
<rscale>  0 0.14463311E+03</rscale>
<asrwt>0</asrwt>
<pdfrwt beam="2">  1        1 0.90352808E-01 0.15132135E+03</pdfrwt>
<pdfrwt beam="1">  1       -1 0.57700776E-02 0.15132135E+03</pdfrwt>
<totfact> 0.49926739E+03</totfact>
</mgrwt>
</event>
<event>
 8    1  0.1154424E-005  0.1507189E+03  0.7546771E-02  0.1208560E+00
          1   -1    0    0  501    0  0.00000000000E+00  0.00000000000E+00  0.45664619453E+03  0.45664619453E+03  0.00000000000E+00 0. -1.
         -1   -1    0    0    0  501 -0.00000000000E+00 -0.00000000000E+00 -0.46717316393E+02  0.46717316393E+02  0.00000000000E+00 0.  1.
         23    2    1    2    0    0 -0.11745777883E+01 -0.84194502458E+02  0.13776525553E+03  0.20419464349E+03  0.12500437160E+03 0.  0.
         23    2    1    2    0    0  0.11745777883E+01  0.84194502458E+02  0.27216362260E+03  0.29916886743E+03  0.91317467637E+02 0.  0.
          5    1    3    3  502    0  0.23211855035E+01 -0.11692296805E+03  0.10066270303E+03  0.15437434418E+03  0.47000000000E+01 0.  1.
         -5    1    3    3    0  502 -0.34957632918E+01  0.32728465591E+02  0.37102552498E+02  0.49820299304E+02  0.47000000000E+01 0.  1.
        -11    1    4    4    0    0 -0.38272633812E+01  0.10250442815E+03  0.24846587327E+03  0.26880680035E+03  0.00000000000E+00 0.  1.
         11    1    4    4    0    0  0.50018411695E+01 -0.18309925693E+02  0.23697749333E+02  0.30362067081E+02  0.00000000000E+00 0. -1.
<mgrwt>
<rscale>  0 0.14360446E+03</rscale>
<asrwt>0</asrwt>
<pdfrwt beam="1">  1        1 0.70253258E-01 0.15071890E+03</pdfrwt>
<pdfrwt beam="2">  1       -1 0.71872798E-02 0.15071890E+03</pdfrwt>
<totfact> 0.50073341E+03</totfact>
</mgrwt>
</event>
<event>
 8    1  0.1154424E-005  0.1649958E+03  0.7546771E-02  0.1189992E+00
         -1   -1    0    0    0  501 -0.00000000000E+00  0.00000000000E+00  0.11099399664E+03  0.11099399664E+03  0.00000000000E+00 0.  1.
          1   -1    0    0  501    0  0.00000000000E+00 -0.00000000000E+00 -0.21813124459E+03  0.21813124459E+03  0.00000000000E+00 0. -1.
         23    2    1    2    0    0  0.10726690514E+03  0.92225894685E+01 -0.29942548575E+02  0.16769064926E+03  0.12502940670E+03 0.  0.
         23    2    1    2    0    0 -0.10726690514E+03 -0.92225894685E+01 -0.77194699375E+02  0.16143459197E+03  0.92254326608E+02 0.  0.
          5    1    3    3  502    0 -0.14199598861E+02  0.12800681587E+02  0.26995273754E+02  0.33411388207E+02  0.47000000000E+01 0.  1.
         -5    1    3    3    0  502  0.12146650400E+03 -0.35780921181E+01 -0.56937822329E+02  0.13427926105E+03  0.47000000000E+01 0.  1.
        -11    1    4    4    0    0 -0.95541859911E+02 -0.29572171296E+02 -0.23368253306E+02  0.10270752442E+03  0.00000000000E+00 0.  1.
         11    1    4    4    0    0 -0.11725045229E+02  0.20349581828E+02 -0.53826446070E+02  0.58727067547E+02  0.00000000000E+00 0. -1.
<mgrwt>
<rscale>  0 0.15885825E+03</rscale>
<asrwt>0</asrwt>
<pdfrwt beam="2">  1        1 0.33558652E-01 0.16499575E+03</pdfrwt>
<pdfrwt beam="1">  1       -1 0.17076000E-01 0.16499575E+03</pdfrwt>
<totfact> 0.33385565E+03</totfact>
</mgrwt>
</event>
<event>
 8    1  0.1154424E-005  0.1323657E+03  0.7546771E-02  0.1238293E+00
          4   -1    0    0  501    0  0.00000000000E+00  0.00000000000E+00  0.38177959217E+03  0.38177959217E+03  0.00000000000E+00 0. -1.
         -4   -1    0    0    0  501 -0.00000000000E+00 -0.00000000000E+00 -0.39055025994E+02  0.39055025994E+02  0.00000000000E+00 0.  1.
         23    2    1    2    0    0 -0.40871390365E+02 -0.15000627356E+02  0.12599072731E+03  0.18274117821E+03  0.12500074190E+03 0.  0.
         23    2    1    2    0    0  0.40871390365E+02  0.15000627356E+02  0.21673383887E+03  0.23809343996E+03  0.88427596750E+02 0.  0.
          5    1    3    3  502    0  0.20252789674E+02  0.40720966580E+02  0.66699119560E+02  0.80865537523E+02  0.47000000000E+01 0. -1.
         -5    1    3    3    0  502 -0.61124180039E+02 -0.55721593936E+02  0.59291607747E+02  0.10187564069E+03  0.47000000000E+01 0. -1.
        -11    1    4    4    0    0  0.37112587890E+02  0.43833544733E+02  0.81099033086E+02  0.99376943962E+02  0.00000000000E+00 0.  1.
         11    1    4    4    0    0  0.37588024751E+01 -0.28832917377E+02  0.13563480578E+03  0.13871649599E+03  0.00000000000E+00 0. -1.
<mgrwt>
<rscale>  0 0.12295934E+03</rscale>
<asrwt>0</asrwt>
<pdfrwt beam="1">  1        4 0.58735319E-01 0.13236569E+03</pdfrwt>
<pdfrwt beam="2">  1       -4 0.60084658E-02 0.13236569E+03</pdfrwt>
<totfact> 0.80944138E+02</totfact>
</mgrwt>
</event>
<event>
 8    1  0.1154424E-005  0.1355265E+03  0.7546771E-02  0.1231160E+00
          2   -1    0    0  501    0  0.00000000000E+00  0.00000000000E+00  0.51785434831E+03  0.51785434831E+03  0.00000000000E+00 0. -1.
         -2   -1    0    0    0  501 -0.00000000000E+00 -0.00000000000E+00 -0.30017495173E+02  0.30017495173E+02  0.00000000000E+00 0.  1.
         23    2    1    2    0    0  0.43705189481E+01 -0.52182955788E+02  0.20521947839E+03  0.24593181182E+03  0.12500103778E+03 0.  0.
         23    2    1    2    0    0 -0.43705189481E+01  0.52182955788E+02  0.28261737475E+03  0.30194003166E+03  0.92482646474E+02 0.  0.
          5    1    3    3  502    0  0.63427679578E+02 -0.39089678356E+02  0.10654728343E+03  0.13009799037E+03  0.47000000000E+01 0. -1.
         -5    1    3    3    0  502 -0.59057160630E+02 -0.13093277432E+02  0.98672194957E+02  0.11583382146E+03  0.47000000000E+01 0. -1.
        -11    1    4    4    0    0 -0.23064716172E+02  0.69003569078E+01  0.11954729931E+02  0.26879576359E+02  0.00000000000E+00 0.  1.
         11    1    4    4    0    0  0.18694197223E+02  0.45282598880E+02  0.27066264482E+03  0.27506045530E+03  0.00000000000E+00 0. -1.
<mgrwt>
<rscale>  0 0.12753513E+03</rscale>
<asrwt>0</asrwt>
<pdfrwt beam="1">  1        2 0.79669893E-01 0.13552646E+03</pdfrwt>
<pdfrwt beam="2">  1       -2 0.46180766E-02 0.13552646E+03</pdfrwt>
<totfact> 0.12545444E+04</totfact>
</mgrwt>
</event>
<event>
 8    1  0.1154424E-005  0.1397513E+03  0.7546771E-02  0.1224043E+00
         -2   -1    0    0    0  501 -0.00000000000E+00  0.00000000000E+00  0.55821552277E+02  0.55821552277E+02  0.00000000000E+00 0.  1.
          2   -1    0    0  501    0  0.00000000000E+00 -0.00000000000E+00 -0.31384787643E+03  0.31384787643E+03  0.00000000000E+00 0. -1.
         23    2    1    2    0    0  0.58942014697E+02  0.20766333511E+02 -0.85622607275E+02  0.16389529599E+03  0.12500014186E+03 0.  0.
         23    2    1    2    0    0 -0.58942014697E+02 -0.20766333511E+02 -0.17240371688E+03  0.20577413272E+03  0.93351756276E+02 0.  0.
          5    1    3    3  502    0  0.77474076226E+02  0.58009756221E+02 -0.50610082374E+02  0.10931987350E+03  0.47000000000E+01 0.  1.
         -5    1    3    3    0  502 -0.18532061530E+02 -0.37243422709E+02 -0.35012524901E+02  0.54575422487E+02  0.47000000000E+01 0.  1.
        -11    1    4    4    0    0  0.60585881797E+01 -0.25500854309E+02 -0.57553693636E+01  0.26835132527E+02  0.00000000000E+00 0.  1.
         11    1    4    4    0    0 -0.65000602876E+02  0.47345207974E+01 -0.16664834751E+03  0.17893900019E+03  0.00000000000E+00 0. -1.
<mgrwt>
<rscale>  0 0.13232722E+03</rscale>
<asrwt>0</asrwt>
<pdfrwt beam="2">  1        2 0.48284288E-01 0.13975134E+03</pdfrwt>
<pdfrwt beam="1">  1       -2 0.85879312E-02 0.13975134E+03</pdfrwt>
<totfact> 0.83757446E+03</totfact>
</mgrwt>
</event>
<event>
 8    1  0.1154424E-005  0.1306207E+03  0.7546771E-02  0.1240186E+00
          2   -1    0    0  501    0  0.00000000000E+00  0.00000000000E+00  0.59392971142E+02  0.59392971142E+02  0.00000000000E+00 0. -1.
         -2   -1    0    0    0  501 -0.00000000000E+00 -0.00000000000E+00 -0.44192671471E+03  0.44192671471E+03  0.00000000000E+00 0.  1.
         23    2    1    2    0    0 -0.68982031782E+01 -0.37269414023E+02 -0.38083099339E+03  0.40260899200E+03  0.12500064196E+03 0.  0.
         23    2    1    2    0    0  0.68982031782E+01  0.37269414023E+02 -0.17027501835E+01  0.98710693849E+02  0.91127972068E+02 0.  0.
          5    1    3    3  502    0 -0.33063644587E+02 -0.45500029849E+02 -0.67251264051E+02  0.87796809886E+02  0.47000000000E+01 0. -1.
         -5    1    3    3    0  502  0.26165441409E+02  0.82306158259E+01 -0.31357972933E+03  0.31481218212E+03  0.47000000000E+01 0. -1.
        -11    1    4    4    0    0  0.16378432496E+02  0.40579608288E+02 -0.39897531320E+02  0.59217992750E+02  0.00000000000E+00 0.  1.
         11    1    4    4    0    0 -0.94802293177E+01 -0.33101942649E+01  0.38194781137E+02  0.39492701099E+02  0.00000000000E+00 0. -1.
<mgrwt>
<rscale>  0 0.12178219E+03</rscale>
<asrwt>0</asrwt>
<pdfrwt beam="1">  1        2 0.91373799E-02 0.13062065E+03</pdfrwt>
<pdfrwt beam="2">  1       -2 0.67988727E-01 0.13062065E+03</pdfrwt>
<totfact> 0.14124380E+03</totfact>
</mgrwt>
</event>
<event>
 8    1  0.1154424E-005  0.1611049E+03  0.7546771E-02  0.1195905E+00
         -1   -1    0    0    0  501 -0.00000000000E+00  0.00000000000E+00  0.15333819616E+03  0.15333819616E+03  0.00000000000E+00 0.  1.
          1   -1    0    0  501    0  0.00000000000E+00 -0.00000000000E+00 -0.14479602269E+03  0.14479602269E+03  0.00000000000E+00 0. -1.
         23    2    1    2    0    0 -0.68285496243E+02 -0.75278141072E+02  0.26244522263E+02  0.16322859100E+03  0.12500036180E+03 0.  0.
         23    2    1    2    0    0  0.68285496243E+02  0.75278141072E+02 -0.17702348788E+02  0.13490562784E+03  0.86927830705E+02 0.  0.
          5    1    3    3  502    0 -0.42437150746E+02  0.85683718623E+01  0.55567543671E+02  0.70598659119E+02  0.47000000000E+01 0. -1.
         -5    1    3    3    0  502 -0.25848345497E+02 -0.83846512934E+02 -0.29323021407E+02  0.92629931883E+02  0.47000000000E+01 0. -1.
        -11    1    4    4    0    0  0.17713272180E+02  0.50807094423E+02  0.29645925673E+02  0.61432904571E+02  0.00000000000E+00 0.  1.
         11    1    4    4    0    0  0.50572224063E+02  0.24471046648E+02 -0.47348274461E+02  0.73472723273E+02  0.00000000000E+00 0. -1.
<mgrwt>
<rscale>  0 0.15377872E+03</rscale>
<asrwt>0</asrwt>
<pdfrwt beam="2">  1        1 0.22276311E-01 0.16110493E+03</pdfrwt>
<pdfrwt beam="1">  1       -1 0.23590492E-01 0.16110493E+03</pdfrwt>
<totfact> 0.33127368E+03</totfact>
</mgrwt>
</event>
<event>
 8    1  0.1154424E-005  0.1264478E+03  0.7546771E-02  0.1249434E+00
         -1   -1    0    0    0  501 -0.00000000000E+00  0.00000000000E+00  0.14918711665E+03  0.14918711665E+03  0.00000000000E+00 0.  1.
          1   -1    0    0  501    0  0.00000000000E+00 -0.00000000000E+00 -0.11315425664E+03  0.11315425664E+03  0.00000000000E+00 0. -1.
         23    2    1    2    0    0 -0.18590713602E+02 -0.36808185332E+01  0.91759592491E+02  0.15623338211E+03  0.12501953373E+03 0.  0.
         23    2    1    2    0    0  0.18590713602E+02  0.36808185332E+01 -0.55726732478E+02  0.10610799118E+03  0.88285185749E+02 0.  0.
          5    1    3    3  502    0 -0.68016000739E+02 -0.12772347145E+02  0.77021477047E+02  0.10365185543E+03  0.47000000000E+01 0.  1.
         -5    1    3    3    0  502  0.49425287137E+02  0.90915286120E+01  0.14738115444E+02  0.52581526679E+02  0.47000000000E+01 0.  1.
        -11    1    4    4    0    0  0.78529716012E+01  0.11583903134E+02 -0.78489852903E+02  0.79727742872E+02  0.00000000000E+00 0. -1.
         11    1    4    4    0    0  0.10737742001E+02 -0.79030846009E+01  0.22763120424E+02  0.26380248311E+02  0.00000000000E+00 0.  1.
<mgrwt>
<rscale>  0 0.11623878E+03</rscale>
<asrwt>0</asrwt>
<pdfrwt beam="2">  1        1 0.17408347E-01 0.12644780E+03</pdfrwt>
<pdfrwt beam="1">  1       -1 0.22951864E-01 0.12644780E+03</pdfrwt>
<totfact> 0.46800111E+03</totfact>
</mgrwt>
</event>
<event>
 8    1  0.1154424E-005  0.1669145E+03  0.7546771E-02  0.1187189E+00
          2   -1    0    0  501    0  0.00000000000E+00  0.00000000000E+00  0.62212277690E+03  0.62212277690E+03  0.00000000000E+00 0. -1.
         -2   -1    0    0    0  501 -0.00000000000E+00 -0.00000000000E+00 -0.43162784834E+02  0.43162784834E+02  0.00000000000E+00 0.  1.
         23    2    1    2    0    0  0.71457418189E+02 -0.84436160136E+02  0.20773468844E+03  0.26648481272E+03  0.12499930752E+03 0.  0.
         23    2    1    2    0    0 -0.71457418189E+02  0.84436160136E+02  0.37122530363E+03  0.39880074901E+03  0.94858756063E+02 0.  0.
          5    1    3    3  502    0 -0.78672540791E+01 -0.26873884433E+02  0.14994504626E+03  0.15260965320E+03  0.47000000000E+01 0.  1.
         -5    1    3    3    0  502  0.79324672268E+02 -0.57562275703E+02  0.57789642177E+02  0.11387515953E+03  0.47000000000E+01 0.  1.
        -11    1    4    4    0    0  0.20347056302E+01  0.11621510561E+02 -0.15829893113E+01  0.11904007304E+02  0.00000000000E+00 0.  1.
         11    1    4    4    0    0 -0.73492123819E+02  0.72814649575E+02  0.37280829294E+03  0.38689674170E+03  0.00000000000E+00 0. -1.
<mgrwt>
<rscale>  0 0.16134261E+03</rscale>
<asrwt>0</asrwt>
<pdfrwt beam="1">  1        2 0.95711190E-01 0.16691451E+03</pdfrwt>
<pdfrwt beam="2">  1       -2 0.66404289E-02 0.16691451E+03</pdfrwt>
<totfact> 0.59603371E+03</totfact>
</mgrwt>
</event>
<event>
 8    1  0.1154424E-005  0.2125146E+03  0.7546771E-02  0.1144353E+00
          1   -1    0    0  501    0  0.00000000000E+00  0.00000000000E+00  0.80678261473E+03  0.80678261473E+03  0.00000000000E+00 0. -1.
         -1   -1    0    0    0  501 -0.00000000000E+00 -0.00000000000E+00 -0.62716141697E+02  0.62716141697E+02  0.00000000000E+00 0.  1.
         23    2    1    2    0    0 -0.17147644009E+03  0.11517288129E+02  0.19418515798E+03  0.28787206426E+03  0.12500252944E+03 0.  0.
         23    2    1    2    0    0  0.17147644009E+03 -0.11517288129E+02  0.54988131505E+03  0.58162669217E+03  0.79895750642E+02 0.  0.
          5    1    3    3  502    0 -0.10016325434E+03 -0.48503074615E+02  0.14353573303E+03  0.18168605457E+03  0.47000000000E+01 0.  1.
         -5    1    3    3    0  502 -0.71313185754E+02  0.60020362744E+02  0.50649424949E+02  0.10618600969E+03  0.47000000000E+01 0.  1.
        -11    1    4    4    0    0  0.29150959717E+02  0.24690347271E+02  0.69611419775E+02  0.79404920905E+02  0.00000000000E+00 0.  1.
         11    1    4    4    0    0  0.14232548037E+03 -0.36207635400E+02  0.48026989527E+03  0.50222177126E+03  0.00000000000E+00 0. -1.
<mgrwt>
<rscale>  0 0.20651843E+03</rscale>
<asrwt>0</asrwt>
<pdfrwt beam="1">  1        1 0.12412039E+00 0.21251459E+03</pdfrwt>
<pdfrwt beam="2">  1       -1 0.96486378E-02 0.21251459E+03</pdfrwt>
<totfact> 0.14639490E+03</totfact>
</mgrwt>
</event>
<event>
 8    1  0.1154424E-005  0.1281495E+03  0.7546771E-02  0.1244752E+00
          1   -1    0    0  501    0  0.00000000000E+00  0.00000000000E+00  0.12848381905E+02  0.12848381905E+02  0.00000000000E+00 0. -1.
         -1   -1    0    0    0  501 -0.00000000000E+00 -0.00000000000E+00 -0.10745636657E+04  0.10745636657E+04  0.00000000000E+00 0.  1.
         23    2    1    2    0    0  0.26396618713E+02  0.10016513354E+02 -0.76817326167E+03  0.77878909533E+03  0.12500073216E+03 0.  0.
         23    2    1    2    0    0 -0.26396618713E+02 -0.10016513354E+02 -0.29354202209E+03  0.30862295224E+03  0.91017008835E+02 0.  0.
          5    1    3    3  502    0 -0.22988235883E+02  0.41008295392E+02 -0.57541180815E+03  0.57734822961E+03  0.47000000000E+01 0. -1.
         -5    1    3    3    0  502  0.49384854597E+02 -0.30991782038E+02 -0.19276145352E+03  0.20144086572E+03  0.47000000000E+01 0. -1.
        -11    1    4    4    0    0  0.15616595374E+02 -0.24009194898E+02 -0.30345743399E+02  0.41727492534E+02  0.00000000000E+00 0. -1.
         11    1    4    4    0    0 -0.42013214087E+02  0.13992681544E+02 -0.26319627869E+03  0.26689545971E+03  0.00000000000E+00 0.  1.
<mgrwt>
<rscale>  0 0.11900238E+03</rscale>
<asrwt>0</asrwt>
<pdfrwt beam="1">  1        1 0.19766744E-02 0.12814950E+03</pdfrwt>
<pdfrwt beam="2">  1       -1 0.16531747E+00 0.12814950E+03</pdfrwt>
<totfact> 0.17339045E+03</totfact>
</mgrwt>
</event>
<event>
 8    1  0.1154424E-005  0.1655646E+03  0.7546771E-02  0.1189464E+00
         -1   -1    0    0    0  501 -0.00000000000E+00  0.00000000000E+00  0.43137682608E+03  0.43137682608E+03  0.00000000000E+00 0.  1.
          1   -1    0    0  501    0  0.00000000000E+00 -0.00000000000E+00 -0.66145691852E+02  0.66145691852E+02  0.00000000000E+00 0. -1.
         23    2    1    2    0    0  0.71601343892E+02  0.81598575355E+02  0.29694315230E+03  0.33998068659E+03  0.12500620628E+03 0.  0.
         23    2    1    2    0    0 -0.71601343892E+02 -0.81598575355E+02  0.68287981930E+02  0.15754183134E+03  0.91493716722E+02 0.  0.
          5    1    3    3  502    0  0.51178097276E+01  0.13821277841E+02 -0.10156501656E+02  0.18505788918E+02  0.47000000000E+01 0. -1.
         -5    1    3    3    0  502  0.66483534165E+02  0.67777297514E+02  0.30709965396E+03  0.32147489767E+03  0.47000000000E+01 0. -1.
        -11    1    4    4    0    0 -0.82482374344E+02 -0.94268815524E+02  0.60900794114E+02  0.13927978454E+03  0.00000000000E+00 0. -1.
         11    1    4    4    0    0  0.10881030451E+02  0.12670240169E+02  0.73871878162E+01  0.18262046803E+02  0.00000000000E+00 0.  1.
<mgrwt>
<rscale>  0 0.15932232E+03</rscale>
<asrwt>0</asrwt>
<pdfrwt beam="2">  1        1 0.10176261E-01 0.16556458E+03</pdfrwt>
<pdfrwt beam="1">  1       -1 0.66365664E-01 0.16556458E+03</pdfrwt>
<totfact> 0.14717591E+03</totfact>
</mgrwt>
</event>
<event>
 8    1  0.1339708E-005  0.1406418E+03  0.7546771E-02  0.1222809E+00
         -1   -1    0    0    0  501 -0.00000000000E+00  0.00000000000E+00  0.24056050822E+03  0.24056050822E+03  0.00000000000E+00 0.  1.
          1   -1    0    0  501    0  0.00000000000E+00 -0.00000000000E+00 -0.66965662870E+02  0.66965662870E+02  0.00000000000E+00 0. -1.
         23    2    1    2    0    0  0.20600279542E+02  0.61084763988E+02  0.10070229239E+03  0.17297710577E+03  0.12499763006E+03 0.  0.
         23    2    1    2    0    0 -0.20600279542E+02 -0.61084763988E+02  0.72892552965E+02  0.13454906532E+03  0.92921508769E+02 0.  0.
          5    1    3    3  502    0  0.21618408222E+02  0.51773618456E+02 -0.13822157587E+02  0.57974176858E+02  0.47000000000E+01 0. -1.
         -5    1    3    3    0  502 -0.10181286792E+01  0.93111455319E+01  0.11452444998E+03  0.11500292892E+03  0.47000000000E+01 0. -1.
        -11    1    4    4    0    0 -0.19377685705E+02 -0.12427693430E+02  0.81879359756E+02  0.85053934779E+02  0.00000000000E+00 0.  1.
         11    1    4    4    0    0 -0.12225938370E+01 -0.48657070557E+02 -0.89868067911E+01  0.49495130541E+02  0.00000000000E+00 0. -1.
<mgrwt>
<rscale>  0 0.13318192E+03</rscale>
<asrwt>0</asrwt>
<pdfrwt beam="2">  1        1 0.10302410E-01 0.14064184E+03</pdfrwt>
<pdfrwt beam="1">  1       -1 0.37009309E-01 0.14064184E+03</pdfrwt>
<totfact> 0.41919191E+03</totfact>
</mgrwt>
</event>
<event>
 8    1  0.1154424E-005  0.1443396E+03  0.7546771E-02  0.1218099E+00
          1   -1    0    0  501    0  0.00000000000E+00  0.00000000000E+00  0.76187870327E+03  0.76187870327E+03  0.00000000000E+00 0. -1.
         -1   -1    0    0    0  501 -0.00000000000E+00 -0.00000000000E+00 -0.22171199310E+02  0.22171199310E+02  0.00000000000E+00 0.  1.
         23    2    1    2    0    0  0.57997654967E+02 -0.42948918849E+02  0.42207737403E+03  0.44607536727E+03  0.12500234399E+03 0.  0.
         23    2    1    2    0    0 -0.57997654967E+02  0.42948918849E+02  0.31763012993E+03  0.33797453531E+03  0.90164014262E+02 0.  0.
          5    1    3    3  502    0  0.56586517855E+02  0.17728031564E+02  0.86238881511E+02  0.10476426772E+03  0.47000000000E+01 0.  1.
         -5    1    3    3    0  502  0.14111371122E+01 -0.60676950413E+02  0.33583849252E+03  0.34131109955E+03  0.47000000000E+01 0.  1.
        -11    1    4    4    0    0 -0.78110722396E+02  0.23032106304E+02  0.27498756807E+03  0.28679247805E+03  0.00000000000E+00 0.  1.
         11    1    4    4    0    0  0.20113067429E+02  0.19916812546E+02  0.42642561858E+02  0.51182057258E+02  0.00000000000E+00 0. -1.
<mgrwt>
<rscale>  0 0.13651332E+03</rscale>
<asrwt>0</asrwt>
<pdfrwt beam="1">  1        1 0.11721209E+00 0.14433961E+03</pdfrwt>
<pdfrwt beam="2">  1       -1 0.34109543E-02 0.14433961E+03</pdfrwt>
<totfact> 0.74922491E+03</totfact>
</mgrwt>
</event>
<event>
 8    1  0.1154424E-005  0.1908110E+03  0.7546771E-02  0.1161689E+00
         -1   -1    0    0    0  501 -0.00000000000E+00  0.00000000000E+00  0.55137662173E+02  0.55137662173E+02  0.00000000000E+00 0.  1.
          1   -1    0    0  501    0  0.00000000000E+00 -0.00000000000E+00 -0.61494856804E+03  0.61494856804E+03  0.00000000000E+00 0. -1.
         23    2    1    2    0    0  0.13932763961E+02 -0.14348957676E+03 -0.33827033949E+03  0.38837566657E+03  0.12500182101E+03 0.  0.
         23    2    1    2    0    0 -0.13932763961E+02  0.14348957676E+03 -0.22154056638E+03  0.28171056364E+03  0.97453776570E+02 0.  0.
          5    1    3    3  502    0 -0.14409778194E+02  0.10166291786E+02 -0.30553531005E+01  0.18504604260E+02  0.47000000000E+01 0.  1.
         -5    1    3    3    0  502  0.28342542154E+02 -0.15365586854E+03 -0.33521498639E+03  0.36987106231E+03  0.47000000000E+01 0.  1.
        -11    1    4    4    0    0  0.98125461140E+01  0.11575013237E+03 -0.21533798764E+03  0.24467290026E+03  0.00000000000E+00 0. -1.
         11    1    4    4    0    0 -0.23745310075E+02  0.27739444390E+02 -0.62025787418E+01  0.37037663380E+02  0.00000000000E+00 0.  1.
<mgrwt>
<rscale>  0 0.18646535E+03</rscale>
<asrwt>0</asrwt>
<pdfrwt beam="2">  1        1 0.94607466E-01 0.19081099E+03</pdfrwt>
<pdfrwt beam="1">  1       -1 0.84827178E-02 0.19081099E+03</pdfrwt>
<totfact> 0.26439019E+03</totfact>
</mgrwt>
</event>
<event>
 8    1  0.1154424E-005  0.1551390E+03  0.7546771E-02  0.1202739E+00
         -4   -1    0    0    0  501 -0.00000000000E+00  0.00000000000E+00  0.90132087596E+03  0.90132087596E+03  0.00000000000E+00 0.  1.
          4   -1    0    0  501    0  0.00000000000E+00 -0.00000000000E+00 -0.23972286606E+02  0.23972286606E+02  0.00000000000E+00 0. -1.
         23    2    1    2    0    0  0.81448154904E+02  0.42417302726E+02  0.59400172056E+03  0.61392682986E+03  0.12504030901E+03 0.  0.
         23    2    1    2    0    0 -0.81448154904E+02 -0.42417302726E+02  0.28334686879E+03  0.31136633271E+03  0.90722189036E+02 0.  0.
          5    1    3    3  502    0 -0.24038190682E+02  0.10678805738E+02  0.27723547236E+03  0.27852014045E+03  0.47000000000E+01 0. -1.
         -5    1    3    3    0  502  0.10548634559E+03  0.31738496988E+02  0.31676624821E+03  0.33540668941E+03  0.47000000000E+01 0. -1.
        -11    1    4    4    0    0 -0.75045033950E+02 -0.15072797456E+02  0.26929663131E+03  0.27996360831E+03  0.00000000000E+00 0.  1.
         11    1    4    4    0    0 -0.64031209544E+01 -0.27344505270E+02  0.14050237482E+02  0.31402724400E+02  0.00000000000E+00 0. -1.
<mgrwt>
<rscale>  0 0.14817047E+03</rscale>
<asrwt>0</asrwt>
<pdfrwt beam="2">  1        4 0.36880448E-02 0.15513900E+03</pdfrwt>
<pdfrwt beam="1">  1       -4 0.13866472E+00 0.15513900E+03</pdfrwt>
<totfact> 0.25849865E+02</totfact>
</mgrwt>
</event>
<event>
 8    1  0.1154424E-005  0.1667334E+03  0.7546771E-02  0.1188015E+00
         -1   -1    0    0    0  501 -0.00000000000E+00  0.00000000000E+00  0.71482641048E+03  0.71482641048E+03  0.00000000000E+00 0.  1.
          1   -1    0    0  501    0  0.00000000000E+00 -0.00000000000E+00 -0.33679054323E+02  0.33679054323E+02  0.00000000000E+00 0. -1.
         23    2    1    2    0    0 -0.18636402381E+02 -0.10875973535E+03  0.35961401577E+03  0.39638652084E+03  0.12499615209E+03 0.  0.
         23    2    1    2    0    0  0.18636402381E+02  0.10875973535E+03  0.32153334039E+03  0.35211894396E+03  0.91804499832E+02 0.  0.
          5    1    3    3  502    0 -0.20464854300E+02  0.76742596920E+01  0.47231112157E+01  0.22849558046E+02  0.47000000000E+01 0. -1.
         -5    1    3    3    0  502  0.18284519196E+01 -0.11643399504E+03  0.35489090456E+03  0.37353696280E+03  0.47000000000E+01 0. -1.
        -11    1    4    4    0    0 -0.32241973172E+02  0.33510487156E+02  0.64565136375E+02  0.79568551693E+02  0.00000000000E+00 0. -1.
         11    1    4    4    0    0  0.50878375553E+02  0.75249248197E+02  0.25696820401E+03  0.27255039227E+03  0.00000000000E+00 0.  1.
<mgrwt>
<rscale>  0 0.16060575E+03</rscale>
<asrwt>0</asrwt>
<pdfrwt beam="2">  1        1 0.51813935E-02 0.16673342E+03</pdfrwt>
<pdfrwt beam="1">  1       -1 0.10997328E+00 0.16673342E+03</pdfrwt>
<totfact> 0.12677139E+03</totfact>
</mgrwt>
</event>
<event>
 8    1  0.1154424E-005  0.1391591E+03  0.7546771E-02  0.1225942E+00
         -1   -1    0    0    0  501 -0.00000000000E+00  0.00000000000E+00  0.68613668422E+02  0.68613668422E+02  0.00000000000E+00 0.  1.
          1   -1    0    0  501    0  0.00000000000E+00 -0.00000000000E+00 -0.22984563550E+03  0.22984563550E+03  0.00000000000E+00 0. -1.
         23    2    1    2    0    0  0.30142758298E+01  0.61083265762E+02 -0.68668633011E+02  0.15517939091E+03  0.12500004395E+03 0.  0.
         23    2    1    2    0    0 -0.30142758298E+01 -0.61083265762E+02 -0.92563334067E+02  0.14327991301E+03  0.90669241995E+02 0.  0.
          5    1    3    3  502    0 -0.25711521228E+02  0.72546691264E+02  0.28014473242E+01  0.77162444520E+02  0.47000000000E+01 0.  1.
         -5    1    3    3    0  502  0.28725797058E+02 -0.11463425502E+02 -0.71470080336E+02  0.78016946390E+02  0.47000000000E+01 0.  1.
        -11    1    4    4    0    0  0.25678435806E+02  0.90675224616E+01 -0.48466877833E+02  0.55593527285E+02  0.00000000000E+00 0. -1.
         11    1    4    4    0    0 -0.28692711636E+02 -0.70150788224E+02 -0.44096456234E+02  0.87686385727E+02  0.00000000000E+00 0.  1.
<mgrwt>
<rscale>  0 0.13102538E+03</rscale>
<asrwt>0</asrwt>
<pdfrwt beam="2">  1        1 0.35360866E-01 0.13915913E+03</pdfrwt>
<pdfrwt beam="1">  1       -1 0.10555949E-01 0.13915913E+03</pdfrwt>
<totfact> 0.65616312E+03</totfact>
</mgrwt>
</event>
<event>
 7    1  0.1154424E-005  0.3349290E+03  0.7546771E-02  0.1107625E+00
         -3   -1    0    0    0  501 -0.00000000000E+00  0.00000000000E+00  0.29440720975E+03  0.29440720975E+03  0.00000000000E+00 0.  1.
          3   -1    0    0  501    0  0.00000000000E+00 -0.00000000000E+00 -0.25596368403E+03  0.25596368403E+03  0.00000000000E+00 0. -1.
         23    2    1    2    0    0  0.58014560609E+02  0.52992963592E+02 -0.12869447498E+03  0.17605475805E+03  0.90879406391E+02 0.  0.
          5    1    1    2  502    0 -0.26449257713E+02  0.11887769881E+03 -0.13889055403E+02  0.12266403861E+03  0.47000000000E+01 0. -1.
         -5    1    1    2    0  502 -0.31565302896E+02 -0.17187066240E+03  0.18102705611E+03  0.25165209712E+03  0.47000000000E+01 0.  1.
        -11    1    3    3    0    0  0.56144460325E+02  0.72604125364E+02 -0.12642133517E+03  0.15622392080E+03  0.00000000000E+00 0. -1.
         11    1    3    3    0    0  0.18701002842E+01 -0.19611161772E+02 -0.22731398153E+01  0.19830837243E+02  0.00000000000E+00 0.  1.
<mgrwt>
<rscale>  0 0.25919953E+03</rscale>
<asrwt>0</asrwt>
<pdfrwt beam="2">  1        3 0.39379028E-01 0.33492903E+03</pdfrwt>
<pdfrwt beam="1">  1       -3 0.45293417E-01 0.33492903E+03</pdfrwt>
<totfact> 0.79080983E+01</totfact>
</mgrwt>
</event>
<event>
 8    1  0.1154424E-005  0.2816849E+03  0.7546771E-02  0.1096619E+00
         -1   -1    0    0    0  501 -0.00000000000E+00  0.00000000000E+00  0.27654861093E+03  0.27654861093E+03  0.00000000000E+00 0.  1.
          1   -1    0    0  501    0  0.00000000000E+00 -0.00000000000E+00 -0.28361033890E+03  0.28361033890E+03  0.00000000000E+00 0. -1.
         23    2    1    2    0    0  0.17318173599E+03 -0.18366123406E+03 -0.56352636366E+02  0.28726644284E+03  0.12499210767E+03 0.  0.
         23    2    1    2    0    0 -0.17318173599E+03  0.18366123406E+03  0.49290908400E+02  0.27289250698E+03  0.91199584100E+02 0.  0.
          5    1    3    3  502    0  0.21640786270E+02  0.16172682274E+02  0.74970358682E+01  0.28428415874E+02  0.47000000000E+01 0. -1.
         -5    1    3    3    0  502  0.15154094972E+03 -0.19983391634E+03 -0.63849672235E+02  0.25883802697E+03  0.47000000000E+01 0. -1.
        -11    1    4    4    0    0 -0.12234042605E+03  0.13791797706E+03 -0.67357352834E+01  0.18448284032E+03  0.00000000000E+00 0. -1.
         11    1    4    4    0    0 -0.50841309936E+02  0.45743257004E+02  0.56026643683E+02  0.88409666665E+02  0.00000000000E+00 0.  1.
<mgrwt>
<rscale>  0 0.27830432E+03</rscale>
<asrwt>0</asrwt>
<pdfrwt beam="2">  1        1 0.43632360E-01 0.28168491E+03</pdfrwt>
<pdfrwt beam="1">  1       -1 0.42545940E-01 0.28168491E+03</pdfrwt>
<totfact> 0.52209032E+02</totfact>
</mgrwt>
</event>
<event>
 8    1  0.1154424E-005  0.2120558E+03  0.7546771E-02  0.1143799E+00
         -4   -1    0    0    0  501 -0.00000000000E+00  0.00000000000E+00  0.58860612929E+02  0.58860612929E+02  0.00000000000E+00 0.  1.
          4   -1    0    0  501    0  0.00000000000E+00 -0.00000000000E+00 -0.75157239004E+03  0.75157239004E+03  0.00000000000E+00 0. -1.
         23    2    1    2    0    0 -0.51132786649E+02 -0.16348613723E+03 -0.25306876139E+03  0.33016886080E+03  0.12500159885E+03 0.  0.
         23    2    1    2    0    0  0.51132786649E+02  0.16348613723E+03 -0.43964301572E+03  0.48026414217E+03  0.89584518964E+02 0.  0.
          5    1    3    3  502    0 -0.53133580646E+02 -0.17852780617E+03 -0.19393702808E+03  0.26894054329E+03  0.47000000000E+01 0.  1.
         -5    1    3    3    0  502  0.20007939972E+01  0.15041668934E+02 -0.59131733309E+02  0.61228317510E+02  0.47000000000E+01 0.  1.
        -11    1    4    4    0    0  0.78575888763E+01  0.77802541766E+02 -0.30526788545E+03  0.31512451364E+03  0.00000000000E+00 0. -1.
         11    1    4    4    0    0  0.43275197773E+02  0.85683595467E+02 -0.13437513027E+03  0.16513962853E+03  0.00000000000E+00 0.  1.
<mgrwt>
<rscale>  0 0.20720473E+03</rscale>
<asrwt>0</asrwt>
<pdfrwt beam="2">  1        4 0.11562652E+00 0.21205584E+03</pdfrwt>
<pdfrwt beam="1">  1       -4 0.90554788E-02 0.21205584E+03</pdfrwt>
<totfact> 0.97448374E+01</totfact>
</mgrwt>
</event>
<event>
 8    1  0.1154424E-005  0.1442932E+03  0.7546771E-02  0.1217518E+00
         -2   -1    0    0    0  501 -0.00000000000E+00  0.00000000000E+00  0.45720246117E+02  0.45720246117E+02  0.00000000000E+00 0.  1.
          2   -1    0    0  501    0  0.00000000000E+00 -0.00000000000E+00 -0.43442102760E+03  0.43442102760E+03  0.00000000000E+00 0. -1.
         23    2    1    2    0    0 -0.71165034322E+02  0.11464926440E+02 -0.12222642807E+03  0.18910270678E+03  0.12499850936E+03 0.  0.
         23    2    1    2    0    0  0.71165034322E+02 -0.11464926440E+02 -0.26647435342E+03  0.29103856694E+03  0.92189802969E+02 0.  0.
          5    1    3    3  502    0  0.25693389069E+01  0.43861598139E+02 -0.93589055255E+02  0.10349609924E+03  0.47000000000E+01 0. -1.
         -5    1    3    3    0  502 -0.73734373229E+02 -0.32396671699E+02 -0.28637372813E+02  0.85606607539E+02  0.47000000000E+01 0. -1.
        -11    1    4    4    0    0  0.50120272708E+02 -0.50978002769E+02 -0.17965883897E+03  0.19336001893E+03  0.00000000000E+00 0.  1.
         11    1    4    4    0    0  0.21044761614E+02  0.39513076329E+02 -0.86815514452E+02  0.97678548013E+02  0.00000000000E+00 0. -1.
<mgrwt>
<rscale>  0 0.13693175E+03</rscale>
<asrwt>0</asrwt>
<pdfrwt beam="2">  1        2 0.66834004E-01 0.14429322E+03</pdfrwt>
<pdfrwt beam="1">  1       -2 0.70338841E-02 0.14429322E+03</pdfrwt>
<totfact> 0.80728234E+03</totfact>
</mgrwt>
</event>
<event>
 8    1  0.1154424E-005  0.3875128E+03  0.7546771E-02  0.1049058E+00
          1   -1    0    0  501    0  0.00000000000E+00  0.00000000000E+00  0.39003617198E+03  0.39003617198E+03  0.00000000000E+00 0. -1.
         -1   -1    0    0    0  501 -0.00000000000E+00 -0.00000000000E+00 -0.58835005948E+03  0.58835005948E+03  0.00000000000E+00 0.  1.
         23    2    1    2    0    0  0.27590987257E+03  0.24169273278E+03 -0.39407255581E+03  0.55268374555E+03  0.12499803394E+03 0.  0.
         23    2    1    2    0    0 -0.27590987257E+03 -0.24169273278E+03  0.19575866831E+03  0.42570248591E+03  0.91430385674E+02 0.  0.
          5    1    3    3  502    0  0.89821910179E+02  0.10481120867E+02 -0.98166589173E+02  0.13355372953E+03  0.47000000000E+01 0.  1.
         -5    1    3    3    0  502  0.18608796240E+03  0.23121161192E+03 -0.29590596663E+03  0.41913001601E+03  0.47000000000E+01 0.  1.
        -11    1    4    4    0    0 -0.11464692062E+03 -0.12363743673E+03  0.13738099240E+03  0.21749406714E+03  0.00000000000E+00 0. -1.
         11    1    4    4    0    0 -0.16126295196E+03 -0.11805529606E+03  0.58377675903E+02  0.20820841877E+03  0.00000000000E+00 0.  1.
<mgrwt>
<rscale>  0 0.38511814E+03</rscale>
<asrwt>0</asrwt>
<pdfrwt beam="1">  1        1 0.60005565E-01 0.38751277E+03</pdfrwt>
<pdfrwt beam="2">  1       -1 0.90515394E-01 0.38751277E+03</pdfrwt>
<totfact> 0.78049976E+01</totfact>
</mgrwt>
</event>
<event>
 8    1  0.1154424E-005  0.1566532E+03  0.7546771E-02  0.1201024E+00
         -2   -1    0    0    0  501 -0.00000000000E+00  0.00000000000E+00  0.58417010790E+02  0.58417010790E+02  0.00000000000E+00 0.  1.
          2   -1    0    0  501    0  0.00000000000E+00 -0.00000000000E+00 -0.45386711280E+03  0.45386711280E+03  0.00000000000E+00 0. -1.
         23    2    1    2    0    0 -0.48042529225E+02 -0.81292980297E+02 -0.90938283786E+02  0.18113528943E+03  0.12499435331E+03 0.  0.
         23    2    1    2    0    0  0.48042529225E+02  0.81292980297E+02 -0.30451181822E+03  0.33114883416E+03  0.89529155407E+02 0.  0.
          5    1    3    3  502    0  0.33655712324E+02 -0.16590099816E+01 -0.48659536589E+02  0.59374235045E+02  0.47000000000E+01 0. -1.
         -5    1    3    3    0  502 -0.81698241549E+02 -0.79633970316E+02 -0.42278747197E+02  0.12176105439E+03  0.47000000000E+01 0. -1.
        -11    1    4    4    0    0  0.45665259071E+02  0.77412887254E+01 -0.59966620450E+02  0.75770964131E+02  0.00000000000E+00 0.  1.
         11    1    4    4    0    0  0.23772701536E+01  0.73551691572E+02 -0.24454519777E+03  0.25537787003E+03  0.00000000000E+00 0. -1.
<mgrwt>
<rscale>  0 0.14955237E+03</rscale>
<asrwt>0</asrwt>
<pdfrwt beam="2">  1        2 0.69825712E-01 0.15665319E+03</pdfrwt>
<pdfrwt beam="1">  1       -2 0.89872321E-02 0.15665319E+03</pdfrwt>
<totfact> 0.52936308E+03</totfact>
</mgrwt>
</event>
<event>
 8    1  0.1154424E-005  0.1335009E+03  0.7546771E-02  0.1235386E+00
          2   -1    0    0  501    0  0.00000000000E+00  0.00000000000E+00  0.67482817291E+03  0.67482817291E+03  0.00000000000E+00 0.  1.
         -2   -1    0    0    0  501 -0.00000000000E+00 -0.00000000000E+00 -0.20537219993E+02  0.20537219993E+02  0.00000000000E+00 0. -1.
         23    2    1    2    0    0  0.21685869052E+02  0.41547026632E+02  0.36992087165E+03  0.39327335408E+03  0.12500418955E+03 0.  0.
         23    2    1    2    0    0 -0.21685869052E+02 -0.41547026632E+02  0.28437008126E+03  0.30209203882E+03  0.90536315724E+02 0.  0.
          5    1    3    3  502    0 -0.22345270094E+02  0.20122973888E+02  0.13196996435E+02  0.33173722863E+02  0.47000000000E+01 0.  1.
         -5    1    3    3    0  502  0.44031139146E+02  0.21424052744E+02  0.35672387522E+03  0.36009963121E+03  0.47000000000E+01 0.  1.
        -11    1    4    4    0    0  0.15643509077E+02 -0.54612359921E+02  0.21354876031E+03  0.22097579565E+03  0.00000000000E+00 0.  1.
         11    1    4    4    0    0 -0.37329378128E+02  0.13065333289E+02  0.70821320950E+02  0.81116243173E+02  0.00000000000E+00 0. -1.
<mgrwt>
<rscale>  0 0.12479782E+03</rscale>
<asrwt>0</asrwt>
<pdfrwt beam="1">  1        2 0.10381970E+00 0.13350086E+03</pdfrwt>
<pdfrwt beam="2">  1       -2 0.31595728E-02 0.13350086E+03</pdfrwt>
<totfact> 0.16290188E+04</totfact>
</mgrwt>
</event>
<event>
 8    1  0.1154424E-005  0.1422665E+03  0.7546771E-02  0.1221538E+00
          1   -1    0    0  501    0  0.00000000000E+00  0.00000000000E+00  0.15457124450E+03  0.15457124450E+03  0.00000000000E+00 0. -1.
         -1   -1    0    0    0  501 -0.00000000000E+00 -0.00000000000E+00 -0.13535532189E+03  0.13535532189E+03  0.00000000000E+00 0.  1.
         23    2    1    2    0    0 -0.46639229282E+02  0.49391194277E+02 -0.58086187949E+02  0.15366774400E+03  0.12500025015E+03 0.  0.
         23    2    1    2    0    0  0.46639229282E+02 -0.49391194277E+02  0.77302110556E+02  0.13625882239E+03  0.89309252611E+02 0.  0.
          5    1    3    3  502    0 -0.48882987144E+02  0.60038035628E+02 -0.90478862055E+02  0.11917477348E+03  0.47000000000E+01 0.  1.
         -5    1    3    3    0  502  0.22437578622E+01 -0.10646841351E+02  0.32392674105E+02  0.34492970527E+02  0.47000000000E+01 0.  1.
        -11    1    4    4    0    0 -0.24367554544E+02 -0.16172536781E+02  0.51102863344E+01  0.29689117313E+02  0.00000000000E+00 0.  1.
         11    1    4    4    0    0  0.71006783826E+02 -0.33218657496E+02  0.72191824222E+02  0.10656970507E+03  0.00000000000E+00 0. -1.
<mgrwt>
<rscale>  0 0.13407073E+03</rscale>
<asrwt>0</asrwt>
<pdfrwt beam="1">  1        1 0.23780191E-01 0.14226655E+03</pdfrwt>
<pdfrwt beam="2">  1       -1 0.20823896E-01 0.14226655E+03</pdfrwt>
<totfact> 0.37124585E+03</totfact>
</mgrwt>
</event>
<event>
 8    1  0.1154424E-005  0.1609973E+03  0.7546771E-02  0.1195846E+00
         -1   -1    0    0    0  501 -0.00000000000E+00  0.00000000000E+00  0.30451216012E+03  0.30451216012E+03  0.00000000000E+00 0.  1.
          1   -1    0    0  501    0  0.00000000000E+00 -0.00000000000E+00 -0.77788347873E+02  0.77788347873E+02  0.00000000000E+00 0. -1.
         23    2    1    2    0    0  0.10146618094E+03  0.54478147630E+00  0.17683462062E+03  0.23914556085E+03  0.12499773424E+03 0.  0.
         23    2    1    2    0    0 -0.10146618094E+03 -0.54478147630E+00  0.49889191634E+02  0.14315494715E+03  0.87799343903E+02 0.  0.
          5    1    3    3  502    0  0.11152562231E+03 -0.78893373832E+01  0.18965283224E+03  0.22020556954E+03  0.47000000000E+01 0. -1.
         -5    1    3    3    0  502 -0.10059441376E+02  0.84341188595E+01 -0.12818211626E+02  0.18939991315E+02  0.47000000000E+01 0. -1.
        -11    1    4    4    0    0 -0.71487366270E+02  0.34678854537E+02  0.64750727637E+01  0.79718210313E+02  0.00000000000E+00 0. -1.
         11    1    4    4    0    0 -0.29978814666E+02 -0.35223636013E+02  0.43414118870E+02  0.63436736833E+02  0.00000000000E+00 0.  1.
<mgrwt>
<rscale>  0 0.15382829E+03</rscale>
<asrwt>0</asrwt>
<pdfrwt beam="2">  1        1 0.11967438E-01 0.16099726E+03</pdfrwt>
<pdfrwt beam="1">  1       -1 0.46848024E-01 0.16099726E+03</pdfrwt>
<totfact> 0.22814187E+03</totfact>
</mgrwt>
</event>
<event>
 8    1  0.1154424E-005  0.1640123E+03  0.7546771E-02  0.1191436E+00
         -1   -1    0    0    0  501 -0.00000000000E+00  0.00000000000E+00  0.33681318444E+02  0.33681318444E+02  0.00000000000E+00 0.  1.
          1   -1    0    0  501    0  0.00000000000E+00 -0.00000000000E+00 -0.70913066273E+03  0.70913066273E+03  0.00000000000E+00 0. -1.
         23    2    1    2    0    0  0.76762620854E+02  0.73361391628E+02 -0.29570084945E+03  0.33814052653E+03  0.12500251829E+03 0.  0.
         23    2    1    2    0    0 -0.76762620854E+02 -0.73361391628E+02 -0.37974849484E+03  0.40467145464E+03  0.90970726759E+02 0.  0.
          5    1    3    3  502    0  0.88382541356E+02  0.88345807651E+02 -0.29280442769E+03  0.31839123452E+03  0.47000000000E+01 0.  1.
         -5    1    3    3    0  502 -0.11619920503E+02 -0.14984416022E+02 -0.28964217603E+01  0.19749292013E+02  0.47000000000E+01 0.  1.
        -11    1    4    4    0    0 -0.36397027565E+02 -0.49724489631E+02 -0.33258283966E+03  0.33824342376E+03  0.00000000000E+00 0. -1.
         11    1    4    4    0    0 -0.40365593289E+02 -0.23636901998E+02 -0.47165655182E+02  0.66428030878E+02  0.00000000000E+00 0.  1.
<mgrwt>
<rscale>  0 0.15759803E+03</rscale>
<asrwt>0</asrwt>
<pdfrwt beam="2">  1        1 0.10909701E+00 0.16401227E+03</pdfrwt>
<pdfrwt beam="1">  1       -1 0.51817419E-02 0.16401227E+03</pdfrwt>
<totfact> 0.45168767E+03</totfact>
</mgrwt>
</event>
<event>
 8    1  0.1154424E-005  0.1257632E+03  0.7546771E-02  0.1247275E+00
          2   -1    0    0  501    0  0.00000000000E+00  0.00000000000E+00  0.52399959675E+03  0.52399959675E+03  0.00000000000E+00 0. -1.
         -2   -1    0    0    0  501 -0.00000000000E+00 -0.00000000000E+00 -0.24154929800E+02  0.24154929800E+02  0.00000000000E+00 0.  1.
         23    2    1    2    0    0 -0.43137484137E+01 -0.13318394197E+02  0.23555227871E+03  0.26702294678E+03  0.12498155885E+03 0.  0.
         23    2    1    2    0    0  0.43137484137E+01  0.13318394197E+02  0.26429238823E+03  0.28113157976E+03  0.94807756083E+02 0.  0.
          5    1    3    3  502    0 -0.62763365313E+02  0.77733116202E+01  0.11590640627E+03  0.13212134352E+03  0.47000000000E+01 0. -1.
         -5    1    3    3    0  502  0.58449616900E+02 -0.21091705817E+02  0.11964587244E+03  0.13490160326E+03  0.47000000000E+01 0. -1.
        -11    1    4    4    0    0 -0.29178625611E+02 -0.27175139484E+02  0.78438025436E+02  0.87990932674E+02  0.00000000000E+00 0.  1.
         11    1    4    4    0    0  0.33492374025E+02  0.40493533681E+02  0.18585436280E+03  0.19314064709E+03  0.00000000000E+00 0. -1.
<mgrwt>
<rscale>  0 0.11750249E+03</rscale>
<asrwt>0</asrwt>
<pdfrwt beam="1">  1        2 0.80615314E-01 0.12576318E+03</pdfrwt>
<pdfrwt beam="2">  1       -2 0.37161434E-02 0.12576318E+03</pdfrwt>
<totfact> 0.17004734E+04</totfact>
</mgrwt>
</event>
<event>
 8    1  0.1154424E-005  0.1894387E+03  0.7546771E-02  0.1163201E+00
         -2   -1    0    0    0  501 -0.00000000000E+00  0.00000000000E+00  0.94724197917E+02  0.94724197917E+02  0.00000000000E+00 0.  1.
          2   -1    0    0  501    0  0.00000000000E+00 -0.00000000000E+00 -0.36969917033E+03  0.36969917033E+03  0.00000000000E+00 0. -1.
         23    2    1    2    0    0  0.28229064536E+02 -0.13951769973E+03 -0.82865567664E+02  0.20676973881E+03  0.12499981585E+03 0.  0.
         23    2    1    2    0    0 -0.28229064536E+02  0.13951769973E+03 -0.19210940475E+03  0.25765362944E+03  0.96006774490E+02 0.  0.
          5    1    3    3  502    0  0.91572839874E+01 -0.65236398077E+02 -0.10742761588E+03  0.12610482202E+03  0.47000000000E+01 0.  1.
         -5    1    3    3    0  502  0.19071780549E+02 -0.74281301649E+02  0.24562048213E+02  0.80664916788E+02  0.47000000000E+01 0.  1.
        -11    1    4    4    0    0 -0.35357030453E+02  0.43345223334E+02 -0.13364593910E+03  0.14487982960E+03  0.00000000000E+00 0. -1.
         11    1    4    4    0    0  0.71279659172E+01  0.96172476392E+02 -0.58463465653E+02  0.11277379984E+03  0.00000000000E+00 0.  1.
<mgrwt>
<rscale>  0 0.18483802E+03</rscale>
<asrwt>0</asrwt>
<pdfrwt beam="2">  1        2 0.56876796E-01 0.18943870E+03</pdfrwt>
<pdfrwt beam="1">  1       -2 0.14572953E-01 0.18943870E+03</pdfrwt>
<totfact> 0.30747201E+03</totfact>
</mgrwt>
</event>
<event>
 7    1  0.1154424E-005  0.5181468E+03  0.7546771E-02  0.1009148E+00
          2   -1    0    0  501    0  0.00000000000E+00  0.00000000000E+00  0.12189323710E+04  0.12189323710E+04  0.00000000000E+00 0. -1.
         -2   -1    0    0    0  501 -0.00000000000E+00 -0.00000000000E+00 -0.55063778707E+02  0.55063778707E+02  0.00000000000E+00 0.  1.
         23    2    1    2    0    0  0.38019856652E+02  0.13962313950E+01  0.41842064051E+03  0.42934174692E+03  0.88380112489E+02 0.  0.
          5    1    1    2  502    0  0.85227453011E+02  0.78115437014E+02  0.66949211623E+03  0.67941704714E+03  0.47000000000E+01 0. -1.
         -5    1    1    2    0  502 -0.12324730966E+03 -0.79511668409E+02  0.75955835584E+02  0.16523735568E+03  0.47000000000E+01 0.  1.
        -11    1    3    3    0    0  0.20761086230E+02 -0.40884060264E+02  0.14331880530E+03  0.15047527716E+03  0.00000000000E+00 0.  1.
         11    1    3    3    0    0  0.17258770423E+02  0.42280291659E+02  0.27510183521E+03  0.27886646976E+03  0.00000000000E+00 0. -1.
<mgrwt>
<rscale>  0 0.51814678E+03</rscale>
<asrwt>0</asrwt>
<pdfrwt beam="1">  1        2 0.18752804E+00 0.51814678E+03</pdfrwt>
<pdfrwt beam="2">  1       -2 0.84713514E-02 0.51814678E+03</pdfrwt>
<totfact> 0.16763098E+03</totfact>
</mgrwt>
</event>
<event>
 8    1  0.1154424E-005  0.2669703E+03  0.7546771E-02  0.1105632E+00
          2   -1    0    0  501    0  0.00000000000E+00  0.00000000000E+00  0.15345001143E+04  0.15345001143E+04  0.00000000000E+00 0. -1.
         -2   -1    0    0    0  501 -0.00000000000E+00 -0.00000000000E+00 -0.43628556068E+02  0.43628556068E+02  0.00000000000E+00 0.  1.
         23    2    1    2    0    0 -0.20980341160E+03 -0.10785118229E+03  0.72473549634E+03  0.77234363772E+03  0.12499522402E+03 0.  0.
         23    2    1    2    0    0  0.20980341160E+03  0.10785118229E+03  0.76613606190E+03  0.80578503266E+03  0.81704984383E+02 0.  0.
          5    1    3    3  502    0 -0.21850898723E+03 -0.10213252713E+03  0.59415324238E+03  0.64126234571E+03  0.47000000000E+01 0. -1.
         -5    1    3    3    0  502  0.87055756368E+01 -0.57186551675E+01  0.13058225397E+03  0.13108129201E+03  0.47000000000E+01 0. -1.
        -11    1    4    4    0    0  0.11382620014E+03  0.50392386769E+02  0.53100931924E+03  0.54540507295E+03  0.00000000000E+00 0. -1.
         11    1    4    4    0    0  0.95977211461E+02  0.57458795526E+02  0.23512674266E+03  0.26037995971E+03  0.00000000000E+00 0.  1.
<mgrwt>
<rscale>  0 0.26253069E+03</rscale>
<asrwt>0</asrwt>
<pdfrwt beam="1">  1        2 0.23607690E+00 0.26697033E+03</pdfrwt>
<pdfrwt beam="2">  1       -2 0.67120867E-02 0.26697033E+03</pdfrwt>
<totfact> 0.16277980E+03</totfact>
</mgrwt>
</event>
<event>
 8    1  0.1154424E-005  0.2523934E+03  0.7546771E-02  0.1114550E+00
          1   -1    0    0  501    0  0.00000000000E+00  0.00000000000E+00  0.56298119434E+03  0.56298119434E+03  0.00000000000E+00 0. -1.
         -1   -1    0    0    0  501 -0.00000000000E+00 -0.00000000000E+00 -0.10739341826E+03  0.10739341826E+03  0.00000000000E+00 0.  1.
         23    2    1    2    0    0 -0.17705730102E+03 -0.12933724743E+03  0.19318352099E+03  0.31784004337E+03  0.12500003587E+03 0.  0.
         23    2    1    2    0    0  0.17705730102E+03  0.12933724743E+03  0.26240425508E+03  0.35253456923E+03  0.85715914510E+02 0.  0.
          5    1    3    3  502    0 -0.18237672241E+03 -0.10898609572E+03  0.12548910190E+03  0.24679716901E+03  0.47000000000E+01 0.  1.
         -5    1    3    3    0  502  0.53194213942E+01 -0.20351151716E+02  0.67694419093E+02  0.71042874354E+02  0.47000000000E+01 0.  1.
        -11    1    4    4    0    0  0.17948621118E+03  0.10494045305E+03  0.21453820909E+03  0.29875481895E+03  0.00000000000E+00 0.  1.
         11    1    4    4    0    0 -0.24289101606E+01  0.24396794385E+02  0.47866045994E+02  0.53779750278E+02  0.00000000000E+00 0. -1.
<mgrwt>
<rscale>  0 0.24803977E+03</rscale>
<asrwt>0</asrwt>
<pdfrwt beam="1">  1        1 0.86612490E-01 0.25239338E+03</pdfrwt>
<pdfrwt beam="2">  1       -1 0.16522065E-01 0.25239338E+03</pdfrwt>
<totfact> 0.10587221E+03</totfact>
</mgrwt>
</event>
<event>
 8    1  0.1154424E-005  0.1278596E+03  0.7546771E-02  0.1244973E+00
          1   -1    0    0  501    0  0.00000000000E+00  0.00000000000E+00  0.47568365962E+03  0.47568365962E+03  0.00000000000E+00 0. -1.
         -1   -1    0    0    0  501 -0.00000000000E+00 -0.00000000000E+00 -0.48128192823E+02  0.48128192823E+02  0.00000000000E+00 0.  1.
         23    2    1    2    0    0  0.16493924325E+02 -0.21163795841E+02  0.54966322394E+02  0.13917387296E+03  0.12501245747E+03 0.  0.
         23    2    1    2    0    0 -0.16493924325E+02  0.21163795841E+02  0.37258914441E+03  0.38463797949E+03  0.91671963772E+02 0.  0.
          5    1    3    3  502    0 -0.33429245601E+02  0.33340496782E+02  0.43231220753E+02  0.64188251534E+02  0.47000000000E+01 0. -1.
         -5    1    3    3    0  502  0.49923169926E+02 -0.54504292624E+02  0.11735101641E+02  0.74985621425E+02  0.47000000000E+01 0. -1.
        -11    1    4    4    0    0  0.58135437154E+01 -0.34654565627E+02  0.12381994525E+03  0.12870942099E+03  0.00000000000E+00 0.  1.
         11    1    4    4    0    0 -0.22307468040E+02  0.55818361469E+02  0.24876919915E+03  0.25592855850E+03  0.00000000000E+00 0. -1.
<mgrwt>
<rscale>  0 0.11886975E+03</rscale>
<asrwt>0</asrwt>
<pdfrwt beam="1">  1        1 0.73182098E-01 0.12785957E+03</pdfrwt>
<pdfrwt beam="2">  1       -1 0.74043377E-02 0.12785957E+03</pdfrwt>
<totfact> 0.45049030E+03</totfact>
</mgrwt>
</event>
<event>
 8    1  0.1154424E-005  0.1355043E+03  0.7546771E-02  0.1230272E+00
         -3   -1    0    0    0  501 -0.00000000000E+00  0.00000000000E+00  0.81657867467E+03  0.81657867467E+03  0.00000000000E+00 0.  1.
          3   -1    0    0  501    0  0.00000000000E+00 -0.00000000000E+00 -0.18414395613E+02  0.18414395613E+02  0.00000000000E+00 0. -1.
         23    2    1    2    0    0 -0.52315635202E+02 -0.75459793078E+00  0.48813240264E+03  0.50659120737E+03  0.12499565502E+03 0.  0.
         23    2    1    2    0    0  0.52315635202E+02  0.75459793078E+00  0.31003187641E+03  0.32840186291E+03  0.94818374088E+02 0.  0.
          5    1    3    3  502    0  0.44688150792E+01 -0.57810289897E+01  0.40824439839E+03  0.40833683329E+03  0.47000000000E+01 0. -1.
         -5    1    3    3    0  502 -0.56784450281E+02  0.50264310589E+01  0.79888004247E+02  0.98254374078E+02  0.47000000000E+01 0. -1.
        -11    1    4    4    0    0  0.47714660738E+02  0.42294621707E+02  0.22160707779E+03  0.23059752991E+03  0.00000000000E+00 0.  1.
         11    1    4    4    0    0  0.46009744638E+01 -0.41540023776E+02  0.88424798620E+02  0.97804332994E+02  0.00000000000E+00 0. -1.
<mgrwt>
<rscale>  0 0.12812027E+03</rscale>
<asrwt>0</asrwt>
<pdfrwt beam="2">  1        3 0.28329846E-02 0.13550428E+03</pdfrwt>
<pdfrwt beam="1">  1       -3 0.12562746E+00 0.13550428E+03</pdfrwt>
<totfact> 0.68372427E+02</totfact>
</mgrwt>
</event>
<event>
 8    1  0.1154424E-005  0.1465007E+03  0.7546771E-02  0.1214650E+00
          2   -1    0    0  501    0  0.00000000000E+00  0.00000000000E+00  0.28156982107E+02  0.28156982107E+02  0.00000000000E+00 0. -1.
         -2   -1    0    0    0  501 -0.00000000000E+00 -0.00000000000E+00 -0.64392520485E+03  0.64392520485E+03  0.00000000000E+00 0.  1.
         23    2    1    2    0    0 -0.73130002846E+02 -0.22122684720E+02 -0.39648198750E+03  0.42268242330E+03  0.12500021622E+03 0.  0.
         23    2    1    2    0    0  0.73130002846E+02  0.22122684720E+02 -0.21928623524E+03  0.24939976366E+03  0.90974604431E+02 0.  0.
          5    1    3    3  502    0 -0.63045529055E+02 -0.66648161561E+02 -0.32501793516E+03  0.33775059489E+03  0.47000000000E+01 0.  1.
         -5    1    3    3    0  502 -0.10084473791E+02  0.44525476841E+02 -0.71464052344E+02  0.84931828409E+02  0.47000000000E+01 0.  1.
        -11    1    4    4    0    0 -0.12111973205E+02  0.27756445926E+02 -0.85099271593E+02  0.90327217443E+02  0.00000000000E+00 0.  1.
         11    1    4    4    0    0  0.85241976052E+02 -0.56337612058E+01 -0.13418696365E+03  0.15907254621E+03  0.00000000000E+00 0. -1.
<mgrwt>
<rscale>  0 0.13902257E+03</rscale>
<asrwt>0</asrwt>
<pdfrwt beam="1">  1        2 0.43318436E-02 0.14650073E+03</pdfrwt>
<pdfrwt beam="2">  1       -2 0.99065411E-01 0.14650073E+03</pdfrwt>
<totfact> 0.16151956E+03</totfact>
</mgrwt>
</event>
<event>
 7    1  0.1154424E-005  0.1758685E+03  0.7546771E-02  0.1186584E+00
         -3   -1    0    0    0  501 -0.00000000000E+00  0.00000000000E+00  0.25552378663E+03  0.25552378663E+03  0.00000000000E+00 0.  1.
          3   -1    0    0  501    0  0.00000000000E+00 -0.00000000000E+00 -0.10414830463E+03  0.10414830463E+03  0.00000000000E+00 0. -1.
         23    2    1    2    0    0  0.43286190096E+02 -0.77171154902E+02 -0.20618510263E+01  0.12627812027E+03  0.90071255284E+02 0.  0.
          5    1    1    2  502    0  0.49404728195E+02  0.39169995008E+02  0.19681230802E+02  0.66215983892E+02  0.47000000000E+01 0. -1.
         -5    1    1    2    0  502 -0.92690918292E+02  0.38001159895E+02  0.13375610223E+03  0.16717798710E+03  0.47000000000E+01 0.  1.
        -11    1    3    3    0    0  0.27434847028E+01  0.19898407967E+02  0.54539647623E+01  0.20813915527E+02  0.00000000000E+00 0.  1.
         11    1    3    3    0    0  0.40542705394E+02 -0.97069562869E+02 -0.75158157886E+01  0.10546420475E+03  0.00000000000E+00 0. -1.
<mgrwt>
<rscale>  0 0.16188574E+03</rscale>
<asrwt>0</asrwt>
<pdfrwt beam="2">  1        3 0.16022816E-01 0.17586850E+03</pdfrwt>
<pdfrwt beam="1">  1       -3 0.39311351E-01 0.17586850E+03</pdfrwt>
<totfact> 0.51100378E+02</totfact>
</mgrwt>
</event>
<event>
 7    1  0.1154424E-005  0.2941714E+03  0.7546771E-02  0.1088191E+00
          1   -1    0    0  501    0  0.00000000000E+00  0.00000000000E+00  0.26123440219E+03  0.26123440219E+03  0.00000000000E+00 0. -1.
         -1   -1    0    0    0  501 -0.00000000000E+00 -0.00000000000E+00 -0.82815291640E+02  0.82815291640E+02  0.00000000000E+00 0.  1.
         23    2    1    2    0    0  0.27097788755E+01 -0.32864419228E+02  0.13759431290E+03  0.16863795502E+03  0.91755937018E+02 0.  0.
          5    1    1    2  502    0 -0.15032692877E+02 -0.10051485675E+01  0.10256230165E+03  0.10376949406E+03  0.47000000000E+01 0. -1.
         -5    1    1    2    0  502  0.12322914001E+02  0.33869567796E+02 -0.61737503999E+02  0.71642244746E+02  0.47000000000E+01 0.  1.
        -11    1    3    3    0    0 -0.14923550308E+02 -0.17194492806E+01 -0.91517566837E+01  0.17590438028E+02  0.00000000000E+00 0. -1.
         11    1    3    3    0    0  0.17633329183E+02 -0.31144969948E+02  0.14674606959E+03  0.15104751699E+03  0.00000000000E+00 0.  1.
<mgrwt>
<rscale>  0 0.29417140E+03</rscale>
<asrwt>0</asrwt>
<pdfrwt beam="1">  1        1 0.40189908E-01 0.29417140E+03</pdfrwt>
<pdfrwt beam="2">  1       -1 0.12740814E-01 0.29417140E+03</pdfrwt>
<totfact> 0.43386450E+03</totfact>
</mgrwt>
</event>
<event>
 7    1  0.1154424E-005  0.2118936E+03  0.7546771E-02  0.1161318E+00
          3   -1    0    0  501    0  0.00000000000E+00  0.00000000000E+00  0.99451371547E+03  0.99451371547E+03  0.00000000000E+00 0. -1.
         -3   -1    0    0    0  501 -0.00000000000E+00 -0.00000000000E+00 -0.36388040817E+02  0.36388040817E+02  0.00000000000E+00 0.  1.
         23    2    1    2    0    0  0.76503428790E+02  0.55200496456E+02  0.61032642548E+03  0.62363869854E+03  0.86758349742E+02 0.  0.
          5    1    1    2  502    0 -0.56705466832E+02 -0.25557740735E+02  0.36293223292E+03  0.36825345045E+03  0.47000000000E+01 0. -1.
         -5    1    1    2    0  502 -0.19797961958E+02 -0.29642755721E+02 -0.15132983744E+02  0.39009607296E+02  0.47000000000E+01 0.  1.
        -11    1    3    3    0    0  0.95838261103E+02  0.42799465537E+02  0.51457671454E+03  0.52517231619E+03  0.00000000000E+00 0.  1.
         11    1    3    3    0    0 -0.19334832313E+02  0.12401030919E+02  0.95749710936E+02  0.98466382349E+02  0.00000000000E+00 0. -1.
<mgrwt>
<rscale>  0 0.18686704E+03</rscale>
<asrwt>0</asrwt>
<pdfrwt beam="1">  1        3 0.15300209E+00 0.21189356E+03</pdfrwt>
<pdfrwt beam="2">  1       -3 0.55981609E-02 0.21189356E+03</pdfrwt>
<totfact> 0.15292383E+02</totfact>
</mgrwt>
</event>
<event>
 8    1  0.1154424E-005  0.1379871E+03  0.7546771E-02  0.1227961E+00
          1   -1    0    0  501    0  0.00000000000E+00  0.00000000000E+00  0.22550490737E+02  0.22550490737E+02  0.00000000000E+00 0. -1.
         -1   -1    0    0    0  501 -0.00000000000E+00 -0.00000000000E+00 -0.88126687076E+03  0.88126687076E+03  0.00000000000E+00 0.  1.
         23    2    1    2    0    0  0.53790979266E+02 -0.22884904129E+02 -0.69045009689E+03  0.70410352204E+03  0.12499298044E+03 0.  0.
         23    2    1    2    0    0 -0.53790979266E+02  0.22884904129E+02 -0.16826628313E+03  0.19971383946E+03  0.90304414877E+02 0.  0.
          5    1    3    3  502    0  0.94172416789E+02 -0.18485423248E+02 -0.44330963288E+03  0.45360299334E+03  0.47000000000E+01 0. -1.
         -5    1    3    3    0  502 -0.40381437524E+02 -0.43994808807E+01 -0.24714046401E+03  0.25050052870E+03  0.47000000000E+01 0. -1.
        -11    1    4    4    0    0 -0.76482058843E+02  0.38687612422E+01 -0.10601309076E+03  0.13077938695E+03  0.00000000000E+00 0. -1.
         11    1    4    4    0    0  0.22691079578E+02  0.19016142887E+02 -0.62253192373E+02  0.68934452514E+02  0.00000000000E+00 0.  1.
<mgrwt>
<rscale>  0 0.12965976E+03</rscale>
<asrwt>0</asrwt>
<pdfrwt beam="1">  1        1 0.34693061E-02 0.13798708E+03</pdfrwt>
<pdfrwt beam="2">  1       -1 0.13557953E+00 0.13798708E+03</pdfrwt>
<totfact> 0.13315378E+03</totfact>
</mgrwt>
</event>
<event>
 8    1  0.1154424E-005  0.1285611E+03  0.7546771E-02  0.1251866E+00
         -2   -1    0    0    0  501 -0.00000000000E+00  0.00000000000E+00  0.70923573502E+02  0.70923573502E+02  0.00000000000E+00 0.  1.
          2   -1    0    0  501    0  0.00000000000E+00 -0.00000000000E+00 -0.16261469528E+03  0.16261469528E+03  0.00000000000E+00 0. -1.
         23    2    1    2    0    0 -0.26759222238E+02  0.13640540935E+02 -0.32717152983E+02  0.13265887658E+03  0.12500338037E+03 0.  0.
         23    2    1    2    0    0  0.26759222238E+02 -0.13640540935E+02 -0.58973968797E+02  0.10087939221E+03  0.76135421746E+02 0.  0.
          5    1    3    3  502    0 -0.53946498507E+02  0.25633352669E+02 -0.65090110354E+02  0.88465280965E+02  0.47000000000E+01 0.  1.
         -5    1    3    3    0  502  0.27187276270E+02 -0.11992811734E+02  0.32372957371E+02  0.44193595613E+02  0.47000000000E+01 0.  1.
        -11    1    4    4    0    0  0.94305332235E+01  0.90604614500E+01  0.15991585406E+02  0.20658115170E+02  0.00000000000E+00 0.  1.
         11    1    4    4    0    0  0.17328689014E+02 -0.22701002385E+02 -0.74965554203E+02  0.80221277036E+02  0.00000000000E+00 0. -1.
<mgrwt>
<rscale>  0 0.11483685E+03</rscale>
<asrwt>0</asrwt>
<pdfrwt beam="2">  1        2 0.25017645E-01 0.12856114E+03</pdfrwt>
<pdfrwt beam="1">  1       -2 0.10911319E-01 0.12856114E+03</pdfrwt>
<totfact> 0.11588400E+04</totfact>
</mgrwt>
</event>
<event>
 8    1  0.1154424E-005  0.1964787E+03  0.7546771E-02  0.1157016E+00
          1   -1    0    0  501    0  0.00000000000E+00  0.00000000000E+00  0.51772490418E+02  0.51772490418E+02  0.00000000000E+00 0. -1.
         -1   -1    0    0    0  501 -0.00000000000E+00 -0.00000000000E+00 -0.70372089757E+03  0.70372089757E+03  0.00000000000E+00 0.  1.
         23    2    1    2    0    0  0.10427245572E+03 -0.11002371534E+03 -0.41633498799E+03  0.46036801874E+03  0.12500370990E+03 0.  0.
         23    2    1    2    0    0 -0.10427245572E+03  0.11002371534E+03 -0.23561341916E+03  0.29512536925E+03  0.92775736748E+02 0.  0.
          5    1    3    3  502    0  0.47859252067E+02  0.21754608600E+02 -0.10147071012E+03  0.11437729677E+03  0.47000000000E+01 0. -1.
         -5    1    3    3    0  502  0.56413203648E+02 -0.13177832394E+03 -0.31486427787E+03  0.34599072197E+03  0.47000000000E+01 0. -1.
        -11    1    4    4    0    0 -0.37532375983E+02  0.65065676194E+02 -0.18598814736E+03  0.20058367936E+03  0.00000000000E+00 0.  1.
         11    1    4    4    0    0 -0.66740079732E+02  0.44958039151E+02 -0.49625271794E+02  0.94541689892E+02  0.00000000000E+00 0. -1.
<mgrwt>
<rscale>  0 0.19161181E+03</rscale>
<asrwt>0</asrwt>
<pdfrwt beam="1">  1        1 0.79649987E-02 0.19647873E+03</pdfrwt>
<pdfrwt beam="2">  1       -1 0.10826475E+00 0.19647873E+03</pdfrwt>
<totfact> 0.73333595E+02</totfact>
</mgrwt>
</event>
<event>
 8    1  0.1154424E-005  0.1329816E+03  0.7546771E-02  0.1236337E+00
          1   -1    0    0  501    0  0.00000000000E+00  0.00000000000E+00  0.57357874893E+02  0.57357874893E+02  0.00000000000E+00 0. -1.
         -1   -1    0    0    0  501 -0.00000000000E+00 -0.00000000000E+00 -0.23897934111E+03  0.23897934111E+03  0.00000000000E+00 0.  1.
         23    2    1    2    0    0  0.45951951829E+00  0.45380952997E+02 -0.10490288224E+03  0.16937744420E+03  0.12499784738E+03 0.  0.
         23    2    1    2    0    0 -0.45951951829E+00 -0.45380952997E+02 -0.76718583986E+02  0.12695977180E+03  0.90406860770E+02 0.  0.
          5    1    3    3  502    0 -0.16384432181E+02 -0.38985563112E+02 -0.15685248220E+02  0.45347996216E+02  0.47000000000E+01 0.  1.
         -5    1    3    3    0  502  0.16843951699E+02  0.84366516108E+02 -0.89217634015E+02  0.12402944799E+03  0.47000000000E+01 0.  1.
        -11    1    4    4    0    0 -0.27026539515E+02 -0.55430721127E+02 -0.76877139979E+02  0.98555026935E+02  0.00000000000E+00 0.  1.
         11    1    4    4    0    0  0.26567019996E+02  0.10049768131E+02  0.15855599303E+00  0.28404744867E+02  0.00000000000E+00 0. -1.
<mgrwt>
<rscale>  0 0.12419218E+03</rscale>
<asrwt>0</asrwt>
<pdfrwt beam="1">  1        1 0.88242886E-02 0.13298159E+03</pdfrwt>
<pdfrwt beam="2">  1       -1 0.36766052E-01 0.13298159E+03</pdfrwt>
<totfact> 0.51910439E+03</totfact>
</mgrwt>
</event>
<event>
 8    1  0.1154424E-005  0.1736005E+03  0.7546771E-02  0.1180237E+00
         -1   -1    0    0    0  501 -0.00000000000E+00  0.00000000000E+00  0.30845417074E+02  0.30845417074E+02  0.00000000000E+00 0.  1.
          1   -1    0    0  501    0  0.00000000000E+00 -0.00000000000E+00 -0.85958543679E+03  0.85958543679E+03  0.00000000000E+00 0. -1.
         23    2    1    2    0    0 -0.70164629316E+02  0.97919653923E+02 -0.41187628479E+03  0.44696666520E+03  0.12500316793E+03 0.  0.
         23    2    1    2    0    0  0.70164629316E+02 -0.97919653923E+02 -0.41686373493E+03  0.44346418867E+03  0.91508356464E+02 0.  0.
          5    1    3    3  502    0  0.18904462097E+02  0.13963789995E+02 -0.20612670738E+03  0.20751548283E+03  0.47000000000E+01 0. -1.
         -5    1    3    3    0  502 -0.89069091413E+02  0.83955863929E+02 -0.20574957741E+03  0.23945118236E+03  0.47000000000E+01 0. -1.
        -11    1    4    4    0    0  0.89461484009E+02 -0.59977781896E+02 -0.32061135854E+03  0.33821935880E+03  0.00000000000E+00 0.  1.
         11    1    4    4    0    0 -0.19296854693E+02 -0.37941872027E+02 -0.96252376390E+02  0.10524482987E+03  0.00000000000E+00 0. -1.
<mgrwt>
<rscale>  0 0.16772868E+03</rscale>
<asrwt>0</asrwt>
<pdfrwt beam="2">  1        1 0.13224389E+00 0.17360048E+03</pdfrwt>
<pdfrwt beam="1">  1       -1 0.47454496E-02 0.17360048E+03</pdfrwt>
<totfact> 0.38614572E+03</totfact>
</mgrwt>
</event>
<event>
 8    1  0.1154424E-005  0.1307239E+03  0.7546771E-02  0.1240778E+00
         -2   -1    0    0    0  501 -0.00000000000E+00  0.00000000000E+00  0.36396254314E+02  0.36396254314E+02  0.00000000000E+00 0.  1.
          2   -1    0    0  501    0  0.00000000000E+00 -0.00000000000E+00 -0.41217405770E+03  0.41217405770E+03  0.00000000000E+00 0. -1.
         23    2    1    2    0    0  0.16812840115E+02  0.34366859168E+02 -0.13054420436E+03  0.18474447756E+03  0.12499992038E+03 0.  0.
         23    2    1    2    0    0 -0.16812840115E+02 -0.34366859168E+02 -0.24523359902E+03  0.26382583445E+03  0.89447192433E+02 0.  0.
          5    1    3    3  502    0 -0.55027885185E+01 -0.28183279759E+02 -0.11187735264E+03  0.11559935109E+03  0.47000000000E+01 0.  1.
         -5    1    3    3    0  502  0.22315628633E+02  0.62550138927E+02 -0.18666851727E+02  0.69145126470E+02  0.47000000000E+01 0.  1.
        -11    1    4    4    0    0 -0.46039333247E+02 -0.41227171901E+02 -0.20161832924E+03  0.21087733542E+03  0.00000000000E+00 0. -1.
         11    1    4    4    0    0  0.29226493133E+02  0.68603127326E+01 -0.43615269781E+02  0.52948499032E+02  0.00000000000E+00 0.  1.
<mgrwt>
<rscale>  0 0.12141678E+03</rscale>
<asrwt>0</asrwt>
<pdfrwt beam="2">  1        2 0.63411399E-01 0.13072388E+03</pdfrwt>
<pdfrwt beam="1">  1       -2 0.55994233E-02 0.13072388E+03</pdfrwt>
<totfact> 0.12000821E+04</totfact>
</mgrwt>
</event>
<event>
 8    1  0.1154424E-005  0.1522388E+03  0.7546771E-02  0.1206261E+00
         -2   -1    0    0    0  501 -0.00000000000E+00  0.00000000000E+00  0.28463752649E+02  0.28463752649E+02  0.00000000000E+00 0.  1.
          2   -1    0    0  501    0  0.00000000000E+00 -0.00000000000E+00 -0.71519388599E+03  0.71519388599E+03  0.00000000000E+00 0. -1.
         23    2    1    2    0    0 -0.40544987067E+02  0.76858717502E+02 -0.29491059159E+03  0.33188691371E+03  0.12500203210E+03 0.  0.
         23    2    1    2    0    0  0.40544987067E+02 -0.76858717502E+02 -0.39181954175E+03  0.41177072493E+03  0.92094615351E+02 0.  0.
          5    1    3    3  502    0  0.10353133913E+02  0.28936476577E+02 -0.24904391603E+01  0.31189731414E+02  0.47000000000E+01 0. -1.
         -5    1    3    3    0  502 -0.50898120980E+02  0.47922240926E+02 -0.29242015243E+03  0.30069718229E+03  0.47000000000E+01 0. -1.
        -11    1    4    4    0    0  0.35750411562E+02 -0.97814675494E+02 -0.34215365677E+03  0.35765196422E+03  0.00000000000E+00 0.  1.
         11    1    4    4    0    0  0.47945755049E+01  0.20955957991E+02 -0.49665884982E+02  0.54118760709E+02  0.00000000000E+00 0. -1.
<mgrwt>
<rscale>  0 0.14538498E+03</rscale>
<asrwt>0</asrwt>
<pdfrwt beam="2">  1        2 0.11002982E+00 0.15223885E+03</pdfrwt>
<pdfrwt beam="1">  1       -2 0.43790393E-02 0.15223885E+03</pdfrwt>
<totfact> 0.94519355E+03</totfact>
</mgrwt>
</event>
<event>
 8    1  0.1154424E-005  0.2366450E+03  0.7546771E-02  0.1124748E+00
          2   -1    0    0  501    0  0.00000000000E+00  0.00000000000E+00  0.19883711418E+04  0.19883711418E+04  0.00000000000E+00 0. -1.
         -2   -1    0    0    0  501 -0.00000000000E+00 -0.00000000000E+00 -0.27109434449E+02  0.27109434449E+02  0.00000000000E+00 0.  1.
         23    2    1    2    0    0  0.14541037904E+03  0.13867604180E+03  0.11793794873E+04  0.12028868824E+04  0.12500261536E+03 0.  0.
         23    2    1    2    0    0 -0.14541037904E+03 -0.13867604180E+03  0.78188221997E+03  0.81259369378E+03  0.92701037576E+02 0.  0.
          5    1    3    3  502    0  0.43774991068E+02 -0.81704037733E+01  0.11130313195E+03  0.11997284077E+03  0.47000000000E+01 0.  1.
         -5    1    3    3    0  502  0.10163538798E+03  0.14684644557E+03  0.10680763554E+04  0.10829140417E+04  0.47000000000E+01 0.  1.
        -11    1    4    4    0    0 -0.92228394981E+02 -0.27344158862E+02  0.39331824998E+03  0.40491113301E+03  0.00000000000E+00 0. -1.
         11    1    4    4    0    0 -0.53181984064E+02 -0.11133188294E+03  0.38856396999E+03  0.40768256077E+03  0.00000000000E+00 0.  1.
<mgrwt>
<rscale>  0 0.23270884E+03</rscale>
<asrwt>0</asrwt>
<pdfrwt beam="1">  1        2 0.30590314E+00 0.23664504E+03</pdfrwt>
<pdfrwt beam="2">  1       -2 0.41706838E-02 0.23664504E+03</pdfrwt>
<totfact> 0.19476791E+03</totfact>
</mgrwt>
</event>
<event>
 8    1  0.1154424E-005  0.1162787E+03  0.7546771E-02  0.1260990E+00
          3   -1    0    0  501    0  0.00000000000E+00  0.00000000000E+00  0.83795222669E+03  0.83795222669E+03  0.00000000000E+00 0. -1.
         -3   -1    0    0    0  501 -0.00000000000E+00 -0.00000000000E+00 -0.14175343720E+02  0.14175343720E+02  0.00000000000E+00 0.  1.
         23    2    1    2    0    0  0.26024515131E+02 -0.10276023423E+02  0.33254270121E+03  0.35228593330E+03  0.11286212222E+03 0.  0.
         23    2    1    2    0    0 -0.26024515131E+02  0.10276023423E+02  0.49123418176E+03  0.49984163710E+03  0.88021411088E+02 0.  0.
          5    1    3    3  502    0  0.52425164473E+02  0.30288987970E+02  0.24209170927E+03  0.24959228025E+03  0.47000000000E+01 0. -1.
         -5    1    3    3    0  502 -0.26400649342E+02 -0.40565011393E+02  0.90450991939E+02  0.10269365306E+03  0.47000000000E+01 0.  1.
        -11    1    4    4    0    0 -0.58851989639E+02  0.87320015540E+01  0.31510056443E+03  0.32066831811E+03  0.00000000000E+00 0. -1.
         11    1    4    4    0    0  0.32827474508E+02  0.15440218690E+01  0.17613361733E+03  0.17917331900E+03  0.00000000000E+00 0.  1.
<mgrwt>
<rscale>  0 0.10977356E+03</rscale>
<asrwt>0</asrwt>
<pdfrwt beam="1">  1        3 0.12891569E+00 0.11627868E+03</pdfrwt>
<pdfrwt beam="2">  1       -3 0.21808228E-02 0.11627868E+03</pdfrwt>
<totfact> 0.93983175E+02</totfact>
</mgrwt>
</event>
<event>
 8    1  0.1154424E-005  0.1616779E+03  0.7546771E-02  0.1194501E+00
         -2   -1    0    0    0  501 -0.00000000000E+00  0.00000000000E+00  0.28407955735E+02  0.28407955735E+02  0.00000000000E+00 0.  1.
          2   -1    0    0  501    0  0.00000000000E+00 -0.00000000000E+00 -0.84383348373E+03  0.84383348373E+03  0.00000000000E+00 0. -1.
         23    2    1    2    0    0  0.73310909530E+02  0.71671354471E+02 -0.55715824011E+03  0.58014225210E+03  0.12501382181E+03 0.  0.
         23    2    1    2    0    0 -0.73310909530E+02 -0.71671354471E+02 -0.25826728789E+03  0.29209918737E+03  0.90048158001E+02 0.  0.
          5    1    3    3  502    0  0.67303848885E+02  0.10639914013E+03 -0.42442226774E+03  0.44272670627E+03  0.47000000000E+01 0. -1.
         -5    1    3    3    0  502  0.60070606453E+01 -0.34727785655E+02 -0.13273597237E+03  0.13741554583E+03  0.47000000000E+01 0. -1.
        -11    1    4    4    0    0  0.87355106338E+01 -0.29396349191E+02 -0.20083782387E+02  0.36658052414E+02  0.00000000000E+00 0.  1.
         11    1    4    4    0    0 -0.82046420164E+02 -0.42275005279E+02 -0.23818350550E+03  0.25544113495E+03  0.00000000000E+00 0. -1.
<mgrwt>
<rscale>  0 0.15496556E+03</rscale>
<asrwt>0</asrwt>
<pdfrwt beam="2">  1        2 0.12982054E+00 0.16167785E+03</pdfrwt>
<pdfrwt beam="1">  1       -2 0.43704545E-02 0.16167785E+03</pdfrwt>
<totfact> 0.77490910E+03</totfact>
</mgrwt>
</event>
<event>
 8    1  0.1154424E-005  0.1412871E+03  0.7546771E-02  0.1222473E+00
         -1   -1    0    0    0  501 -0.00000000000E+00  0.00000000000E+00  0.72391038216E+02  0.72391038216E+02  0.00000000000E+00 0.  1.
          1   -1    0    0  501    0  0.00000000000E+00 -0.00000000000E+00 -0.33178887475E+03  0.33178887475E+03  0.00000000000E+00 0. -1.
         23    2    1    2    0    0  0.65638262423E+02  0.53989711404E+01 -0.23946010983E+02  0.14330197819E+03  0.12499806050E+03 0.  0.
         23    2    1    2    0    0 -0.65638262423E+02 -0.53989711404E+01 -0.23545182555E+03  0.26087793478E+03  0.91006616869E+02 0.  0.
          5    1    3    3  502    0 -0.47326668863E+00 -0.59272284887E+01 -0.64391330001E+02  0.64835865061E+02  0.47000000000E+01 0. -1.
         -5    1    3    3    0  502  0.66111529111E+02  0.11326199629E+02  0.40445319017E+02  0.78466113131E+02  0.47000000000E+01 0. -1.
        -11    1    4    4    0    0 -0.21340078923E+02 -0.46199857686E+02 -0.88926572010E+02  0.10245858201E+03  0.00000000000E+00 0.  1.
         11    1    4    4    0    0 -0.44298183500E+02  0.40800886546E+02 -0.14652525354E+03  0.15841935276E+03  0.00000000000E+00 0. -1.
<mgrwt>
<rscale>  0 0.13341608E+03</rscale>
<asrwt>0</asrwt>
<pdfrwt beam="2">  1        1 0.51044443E-01 0.14128710E+03</pdfrwt>
<pdfrwt beam="1">  1       -1 0.11137083E-01 0.14128710E+03</pdfrwt>
<totfact> 0.38386057E+03</totfact>
</mgrwt>
</event>
<event>
 8    1  0.1154424E-005  0.2236691E+03  0.7546771E-02  0.1134458E+00
         -1   -1    0    0    0  501 -0.00000000000E+00  0.00000000000E+00  0.17478537387E+03  0.17478537387E+03  0.00000000000E+00 0.  1.
          1   -1    0    0  501    0  0.00000000000E+00 -0.00000000000E+00 -0.29714426680E+03  0.29714426680E+03  0.00000000000E+00 0. -1.
         23    2    1    2    0    0 -0.11484107562E+03  0.14564941562E+03  0.14675499027E+02  0.22415008019E+03  0.12500265300E+03 0.  0.
         23    2    1    2    0    0  0.11484107562E+03 -0.14564941562E+03 -0.13703439196E+03  0.24777956049E+03  0.90631457536E+02 0.  0.
          5    1    3    3  502    0 -0.11353759229E+03  0.12621414153E+03 -0.32483483926E+02  0.17291055813E+03  0.47000000000E+01 0.  1.
         -5    1    3    3    0  502 -0.13034833277E+01  0.19435274091E+02  0.47158982952E+02  0.51239522060E+02  0.47000000000E+01 0.  1.
        -11    1    4    4    0    0  0.86191628122E+02 -0.71531717333E+02 -0.32801863409E+02  0.11671223409E+03  0.00000000000E+00 0. -1.
         11    1    4    4    0    0  0.28649447500E+02 -0.74117698287E+02 -0.10423252855E+03  0.13106732640E+03  0.00000000000E+00 0.  1.
<mgrwt>
<rscale>  0 0.21923077E+03</rscale>
<asrwt>0</asrwt>
<pdfrwt beam="2">  1        1 0.45714503E-01 0.22366915E+03</pdfrwt>
<pdfrwt beam="1">  1       -1 0.26890058E-01 0.22366915E+03</pdfrwt>
<totfact> 0.10908547E+03</totfact>
</mgrwt>
</event>
<event>
 8    1  0.1154424E-005  0.1325081E+03  0.7546771E-02  0.1236813E+00
         -3   -1    0    0    0  501 -0.00000000000E+00  0.00000000000E+00  0.14500502602E+03  0.14500502602E+03  0.00000000000E+00 0.  1.
          3   -1    0    0  501    0  0.00000000000E+00 -0.00000000000E+00 -0.10156762498E+03  0.10156762498E+03  0.00000000000E+00 0. -1.
         23    2    1    2    0    0 -0.42385896884E+02 -0.11757352842E+02  0.57308252689E+02  0.14436980537E+03  0.12499442098E+03 0.  0.
         23    2    1    2    0    0  0.42385896884E+02  0.11757352842E+02 -0.13870851648E+02  0.10220284562E+03  0.91204284589E+02 0.  0.
          5    1    3    3  502    0 -0.72380382550E+02 -0.45018156397E+01  0.78241753128E+02  0.10678505539E+03  0.47000000000E+01 0. -1.
         -5    1    3    3    0  502  0.29994485666E+02 -0.72555372028E+01 -0.20933500439E+02  0.37584749981E+02  0.47000000000E+01 0. -1.
        -11    1    4    4    0    0  0.58956863756E+02 -0.96915095686E+01 -0.33720873185E+02  0.68607101892E+02  0.00000000000E+00 0. -1.
         11    1    4    4    0    0 -0.16570966872E+02  0.21448862411E+02  0.19850021537E+02  0.33595743731E+02  0.00000000000E+00 0.  1.
<mgrwt>
<rscale>  0 0.12389061E+03</rscale>
<asrwt>0</asrwt>
<pdfrwt beam="2">  1        3 0.15625788E-01 0.13250813E+03</pdfrwt>
<pdfrwt beam="1">  1       -3 0.22308465E-01 0.13250813E+03</pdfrwt>
<totfact> 0.14619998E+03</totfact>
</mgrwt>
</event>
<event>
 8    1  0.1154424E-005  0.1350516E+03  0.7546771E-02  0.1231053E+00
         -2   -1    0    0    0  501 -0.00000000000E+00  0.00000000000E+00  0.74673750267E+02  0.74673750267E+02  0.00000000000E+00 0. -1.
          2   -1    0    0  501    0  0.00000000000E+00 -0.00000000000E+00 -0.28287001764E+03  0.28287001764E+03  0.00000000000E+00 0.  1.
         23    2    1    2    0    0 -0.47366304583E+02  0.19254006133E+02 -0.14343956325E+02  0.13581123819E+03  0.12499863909E+03 0.  0.
         23    2    1    2    0    0  0.47366304583E+02 -0.19254006133E+02 -0.19385231105E+03  0.22173252972E+03  0.94722292382E+02 0.  0.
          5    1    3    3  502    0  0.90583015920E+01 -0.30272319378E+02  0.33793545351E+02  0.46503331662E+02  0.47000000000E+01 0.  1.
         -5    1    3    3    0  502 -0.56424606175E+02  0.49526325512E+02 -0.48137501675E+02  0.89307906527E+02  0.47000000000E+01 0.  1.
        -11    1    4    4    0    0 -0.22228167268E+02 -0.10056086022E+02 -0.10855375405E+03  0.11126155583E+03  0.00000000000E+00 0.  1.
         11    1    4    4    0    0  0.69594471851E+02 -0.91979201118E+01 -0.85298556992E+02  0.11047097389E+03  0.00000000000E+00 0. -1.
<mgrwt>
<rscale>  0 0.12760549E+03</rscale>
<asrwt>0</asrwt>
<pdfrwt beam="2">  1        2 0.43518465E-01 0.13505163E+03</pdfrwt>
<pdfrwt beam="1">  1       -2 0.11488269E-01 0.13505163E+03</pdfrwt>
<totfact> 0.59069486E+03</totfact>
</mgrwt>
</event>
<event>
 8    1  0.1154424E-005  0.2224528E+03  0.7546771E-02  0.1134971E+00
         -2   -1    0    0    0  501 -0.00000000000E+00  0.00000000000E+00  0.60357083914E+02  0.60357083914E+02  0.00000000000E+00 0.  1.
          2   -1    0    0  501    0  0.00000000000E+00 -0.00000000000E+00 -0.89742062470E+03  0.89742062470E+03  0.00000000000E+00 0. -1.
         23    2    1    2    0    0 -0.12273424281E+02  0.18351101346E+03 -0.24713505220E+03  0.33250714484E+03  0.12513328233E+03 0.  0.
         23    2    1    2    0    0  0.12273424281E+02 -0.18351101346E+03 -0.58992848859E+03  0.62527056377E+03  0.95502498726E+02 0.  0.
          5    1    3    3  502    0 -0.30832938667E+02  0.16390054077E+03 -0.12806975749E+03  0.21032833893E+03  0.47000000000E+01 0. -1.
         -5    1    3    3    0  502  0.18559514387E+02  0.19610472689E+02 -0.11906529470E+03  0.12217880592E+03  0.47000000000E+01 0. -1.
        -11    1    4    4    0    0 -0.15804704960E+02 -0.76687421816E+02 -0.12577070268E+03  0.14815201320E+03  0.00000000000E+00 0.  1.
         11    1    4    4    0    0  0.28078129240E+02 -0.10682359164E+03 -0.46415778591E+03  0.47711855056E+03  0.00000000000E+00 0. -1.
<mgrwt>
<rscale>  0 0.21854753E+03</rscale>
<asrwt>0</asrwt>
<pdfrwt beam="2">  1        2 0.13806471E+00 0.22245284E+03</pdfrwt>
<pdfrwt beam="1">  1       -2 0.92857055E-02 0.22245284E+03</pdfrwt>
<totfact> 0.22697504E+03</totfact>
</mgrwt>
</event>
<event>
 8    1  0.1154424E-005  0.2010107E+03  0.7546771E-02  0.1153167E+00
         -1   -1    0    0    0  501 -0.00000000000E+00  0.00000000000E+00  0.37457469833E+03  0.37457469833E+03  0.00000000000E+00 0. -1.
          1   -1    0    0  501    0  0.00000000000E+00 -0.00000000000E+00 -0.10455095984E+03  0.10455095984E+03  0.00000000000E+00 0.  1.
         23    2    1    2    0    0 -0.14941553391E+03 -0.49541046989E+02  0.20246001561E+03  0.28529871120E+03  0.12500391827E+03 0.  0.
         23    2    1    2    0    0  0.14941553391E+03  0.49541046989E+02  0.67563722882E+02  0.19382694697E+03  0.90690195776E+02 0.  0.
          5    1    3    3  502    0  0.73564288363E+01 -0.39874186453E+02  0.63735602835E+02  0.75686094226E+02  0.47000000000E+01 0. -1.
         -5    1    3    3    0  502 -0.15677196275E+03 -0.96668605362E+01  0.13872441277E+03  0.20961261698E+03  0.47000000000E+01 0. -1.
        -11    1    4    4    0    0  0.16190529441E+01  0.32828978193E+02  0.14207143356E+02  0.35807905048E+02  0.00000000000E+00 0. -1.
         11    1    4    4    0    0  0.14779648097E+03  0.16712068796E+02  0.53356579527E+02  0.15801904192E+03  0.00000000000E+00 0.  1.
<mgrwt>
<rscale>  0 0.19599060E+03</rscale>
<asrwt>0</asrwt>
<pdfrwt beam="2">  1        1 0.16084763E-01 0.20101069E+03</pdfrwt>
<pdfrwt beam="1">  1       -1 0.57626876E-01 0.20101069E+03</pdfrwt>
<totfact> 0.10618783E+03</totfact>
</mgrwt>
</event>
<event>
 8    1  0.2411555E-005  0.2006553E+03  0.7546771E-02  0.1153472E+00
          1   -1    0    0  501    0  0.00000000000E+00  0.00000000000E+00  0.47123254748E+03  0.47123254748E+03  0.00000000000E+00 0. -1.
         -1   -1    0    0    0  501 -0.00000000000E+00 -0.00000000000E+00 -0.94607691881E+02  0.94607691881E+02  0.00000000000E+00 0.  1.
         23    2    1    2    0    0 -0.78418905676E+02  0.13596864549E+03  0.75605904431E+02  0.21442665689E+03  0.12500216428E+03 0.  0.
         23    2    1    2    0    0  0.78418905676E+02 -0.13596864549E+03  0.30101895117E+03  0.35141358248E+03  0.90786010266E+02 0.  0.
          5    1    3    3  502    0  0.30222736240E+02  0.14582562766E+02  0.29841312842E+02  0.45151510216E+02  0.47000000000E+01 0.  1.
         -5    1    3    3    0  502 -0.10864164192E+03  0.12138608273E+03  0.45764591589E+02  0.16927514667E+03  0.47000000000E+01 0.  1.
        -11    1    4    4    0    0  0.19667859032E+02 -0.34995975635E+02  0.15699508558E+02  0.43104727797E+02  0.00000000000E+00 0.  1.
         11    1    4    4    0    0  0.58751046644E+02 -0.10097266986E+03  0.28531944261E+03  0.30830885468E+03  0.00000000000E+00 0. -1.
<mgrwt>
<rscale>  0 0.19563787E+03</rscale>
<asrwt>0</asrwt>
<pdfrwt beam="1">  1        1 0.72497314E-01 0.20065527E+03</pdfrwt>
<pdfrwt beam="2">  1       -1 0.14555030E-01 0.20065527E+03</pdfrwt>
<totfact> 0.16387961E+03</totfact>
</mgrwt>
</event>
<event>
 8    1  0.1154424E-005  0.1910929E+03  0.7546771E-02  0.1162155E+00
          2   -1    0    0  501    0  0.00000000000E+00  0.00000000000E+00  0.55853375766E+02  0.55853375766E+02  0.00000000000E+00 0. -1.
         -2   -1    0    0    0  501 -0.00000000000E+00 -0.00000000000E+00 -0.59078609203E+03  0.59078609203E+03  0.00000000000E+00 0.  1.
         23    2    1    2    0    0 -0.13374810990E+03  0.54801693724E+02 -0.26009582953E+03  0.32274808728E+03  0.12499881907E+03 0.  0.
         23    2    1    2    0    0  0.13374810990E+03 -0.54801693724E+02 -0.27483688673E+03  0.32389138051E+03  0.92078930953E+02 0.  0.
          5    1    3    3  502    0 -0.19184918777E+02 -0.23725157842E+02 -0.12564630767E+03  0.12938326343E+03  0.47000000000E+01 0.  1.
         -5    1    3    3    0  502 -0.11456319112E+03  0.78526851566E+02 -0.13444952186E+03  0.19336482385E+03  0.47000000000E+01 0.  1.
        -11    1    4    4    0    0  0.49804636979E+02 -0.70160046877E+02 -0.13759578820E+03  0.16228226943E+03  0.00000000000E+00 0.  1.
         11    1    4    4    0    0  0.83943472919E+02  0.15358353152E+02 -0.13724109853E+03  0.16160911108E+03  0.00000000000E+00 0. -1.
<mgrwt>
<rscale>  0 0.18596103E+03</rscale>
<asrwt>0</asrwt>
<pdfrwt beam="1">  1        2 0.85928270E-02 0.19109288E+03</pdfrwt>
<pdfrwt beam="2">  1       -2 0.90890169E-01 0.19109288E+03</pdfrwt>
<totfact> 0.82087265E+02</totfact>
</mgrwt>
</event>
<event>
 8    1  0.1154424E-005  0.1870819E+03  0.7546771E-02  0.1166239E+00
          1   -1    0    0  501    0  0.00000000000E+00  0.00000000000E+00  0.94252670776E+03  0.94252670776E+03  0.00000000000E+00 0. -1.
         -1   -1    0    0    0  501 -0.00000000000E+00 -0.00000000000E+00 -0.33301040612E+02  0.33301040612E+02  0.00000000000E+00 0.  1.
         23    2    1    2    0    0 -0.90361206489E+02 -0.10587351094E+03  0.44379763772E+03  0.48161809440E+03  0.12500119062E+03 0.  0.
         23    2    1    2    0    0  0.90361206489E+02  0.10587351094E+03  0.46542802943E+03  0.49420965397E+03  0.90805195552E+02 0.  0.
          5    1    3    3  502    0 -0.81843283565E+02 -0.72044756229E+01  0.14406529981E+03  0.16591301378E+03  0.47000000000E+01 0.  1.
         -5    1    3    3    0  502 -0.85179229238E+01 -0.98669035315E+02  0.29973233791E+03  0.31570508062E+03  0.47000000000E+01 0.  1.
        -11    1    4    4    0    0  0.63126510292E+02  0.35812103867E+02  0.11635333950E+03  0.13713337558E+03  0.00000000000E+00 0. -1.
         11    1    4    4    0    0  0.27234696197E+02  0.70061407071E+02  0.34907468993E+03  0.35707627839E+03  0.00000000000E+00 0.  1.
<mgrwt>
<rscale>  0 0.18162545E+03</rscale>
<asrwt>0</asrwt>
<pdfrwt beam="1">  1        1 0.14500409E+00 0.18708192E+03</pdfrwt>
<pdfrwt beam="2">  1       -1 0.51232377E-02 0.18708192E+03</pdfrwt>
<totfact> 0.29762697E+03</totfact>
</mgrwt>
</event>
<event>
 8    1  0.1154424E-005  0.1400057E+03  0.7546771E-02  0.1225147E+00
         -3   -1    0    0    0  501 -0.00000000000E+00  0.00000000000E+00  0.13523952120E+03  0.13523952120E+03  0.00000000000E+00 0.  1.
          3   -1    0    0  501    0  0.00000000000E+00 -0.00000000000E+00 -0.11579820100E+03  0.11579820100E+03  0.00000000000E+00 0. -1.
         23    2    1    2    0    0 -0.12805437408E+01 -0.79456506417E+02 -0.70845437072E+00  0.14000745741E+03  0.11526755840E+03 0.  0.
         23    2    1    2    0    0  0.12805437408E+01  0.79456506417E+02  0.20149774575E+02  0.11103026479E+03  0.74878101467E+02 0.  0.
          5    1    3    3  502    0  0.43371667221E+02 -0.31791582977E+02 -0.36711145113E+02  0.65280965382E+02  0.47000000000E+01 0. -1.
         -5    1    3    3    0  502 -0.44652210962E+02 -0.47664923440E+02  0.36002690742E+02  0.74726492029E+02  0.47000000000E+01 0.  1.
        -11    1    4    4    0    0  0.17691836752E+02  0.72542448893E+02 -0.10678193054E+02  0.75428322174E+02  0.00000000000E+00 0. -1.
         11    1    4    4    0    0 -0.16411293012E+02  0.69140575234E+01  0.30827967629E+02  0.35601942614E+02  0.00000000000E+00 0.  1.
<mgrwt>
<rscale>  0 0.13156837E+03</rscale>
<asrwt>0</asrwt>
<pdfrwt beam="2">  1        3 0.17815108E-01 0.14000566E+03</pdfrwt>
<pdfrwt beam="1">  1       -3 0.20806080E-01 0.14000566E+03</pdfrwt>
<totfact> 0.13310377E+03</totfact>
</mgrwt>
</event>
<event>
 8    1  0.1154424E-005  0.1619446E+03  0.7546771E-02  0.1193648E+00
          1   -1    0    0  501    0  0.00000000000E+00  0.00000000000E+00  0.22618388422E+03  0.22618388422E+03  0.00000000000E+00 0. -1.
         -1   -1    0    0    0  501 -0.00000000000E+00 -0.00000000000E+00 -0.12666469234E+03  0.12666469234E+03  0.00000000000E+00 0.  1.
         23    2    1    2    0    0 -0.17379374702E+02  0.10148058963E+03 -0.28411538008E+02  0.16441795705E+03  0.12500278545E+03 0.  0.
         23    2    1    2    0    0  0.17379374702E+02 -0.10148058963E+03  0.12793072989E+03  0.18843061951E+03  0.92409274333E+02 0.  0.
          5    1    3    3  502    0  0.37415096122E+02 -0.79427260724E+01  0.68499077074E+00  0.38542645571E+02  0.47000000000E+01 0.  1.
         -5    1    3    3    0  502 -0.54794470824E+02  0.10942331570E+03 -0.29096528779E+02  0.12587531148E+03  0.47000000000E+01 0.  1.
        -11    1    4    4    0    0 -0.30093950834E+02 -0.69977972553E+02  0.47174985763E+02  0.89599340406E+02  0.00000000000E+00 0.  1.
         11    1    4    4    0    0  0.47473325536E+02 -0.31502617077E+02  0.80755744128E+02  0.98831279106E+02  0.00000000000E+00 0. -1.
<mgrwt>
<rscale>  0 0.15569228E+03</rscale>
<asrwt>0</asrwt>
<pdfrwt beam="1">  1        1 0.34797521E-01 0.16194459E+03</pdfrwt>
<pdfrwt beam="2">  1       -1 0.19486876E-01 0.16194459E+03</pdfrwt>
<totfact> 0.25814491E+03</totfact>
</mgrwt>
</event>
<event>
 7    1  0.1154424E-005  0.1440807E+03  0.7546771E-02  0.1222882E+00
          1   -1    0    0  501    0  0.00000000000E+00  0.00000000000E+00  0.58522857918E+02  0.58522857918E+02  0.00000000000E+00 0. -1.
         -1   -1    0    0    0  501 -0.00000000000E+00 -0.00000000000E+00 -0.29935777868E+03  0.29935777868E+03  0.00000000000E+00 0.  1.
         23    2    1    2    0    0 -0.85753431064E+01  0.50370557721E+02 -0.43820812552E+02  0.11380316925E+03  0.91761474073E+02 0.  0.
          5    1    1    2  502    0 -0.66357354253E+01  0.45019180704E+02 -0.46968058223E+02  0.65565601570E+02  0.47000000000E+01 0. -1.
         -5    1    1    2    0  502  0.15211078532E+02 -0.95389738426E+02 -0.15004604999E+03  0.17851186578E+03  0.47000000000E+01 0.  1.
        -11    1    3    3    0    0 -0.47553754170E+02  0.12585462542E+02 -0.11133215152E+02  0.50435125485E+02  0.00000000000E+00 0.  1.
         11    1    3    3    0    0  0.38978411064E+02  0.37785095180E+02 -0.32687597400E+02  0.63368043765E+02  0.00000000000E+00 0. -1.
<mgrwt>
<rscale>  0 0.13313147E+03</rscale>
<asrwt>0</asrwt>
<pdfrwt beam="1">  1        1 0.90035166E-02 0.14408071E+03</pdfrwt>
<pdfrwt beam="2">  1       -1 0.46055043E-01 0.14408071E+03</pdfrwt>
<totfact> 0.34140435E+03</totfact>
</mgrwt>
</event>
<event>
 8    1  0.1154424E-005  0.1495281E+03  0.7546771E-02  0.1210105E+00
         -1   -1    0    0    0  501 -0.00000000000E+00  0.00000000000E+00  0.96037669366E+02  0.96037669366E+02  0.00000000000E+00 0.  1.
          1   -1    0    0  501    0  0.00000000000E+00 -0.00000000000E+00 -0.19545927385E+03  0.19545927385E+03  0.00000000000E+00 0. -1.
         23    2    1    2    0    0 -0.71245272535E+02  0.40716023923E+02 -0.39741430586E+02  0.15471916863E+03  0.12499982549E+03 0.  0.
         23    2    1    2    0    0  0.71245272535E+02 -0.40716023923E+02 -0.59680173901E+02  0.13677777459E+03  0.91721060845E+02 0.  0.
          5    1    3    3  502    0 -0.73697663828E+02  0.72473978356E+02  0.13161878748E+00  0.10346946659E+03  0.47000000000E+01 0. -1.
         -5    1    3    3    0  502  0.24523912926E+01 -0.31757954433E+02 -0.39873049373E+02  0.51249702040E+02  0.47000000000E+01 0. -1.
        -11    1    4    4    0    0 -0.98365645437E+01 -0.12171687525E+02 -0.47435721400E+02  0.49950531968E+02  0.00000000000E+00 0.  1.
         11    1    4    4    0    0  0.81081837079E+02 -0.28544336398E+02 -0.12244452502E+02  0.86827242623E+02  0.00000000000E+00 0. -1.
<mgrwt>
<rscale>  0 0.14242323E+03</rscale>
<asrwt>0</asrwt>
<pdfrwt beam="2">  1        1 0.30070657E-01 0.14952806E+03</pdfrwt>
<pdfrwt beam="1">  1       -1 0.14775026E-01 0.14952806E+03</pdfrwt>
<totfact> 0.47872901E+03</totfact>
</mgrwt>
</event>
<event>
 6    1  0.1154424E-005  0.6122192E+03  0.7546771E-02  0.9880374E-01
         -2   -1    0    0    0  501 -0.00000000000E+00  0.00000000000E+00  0.13449392338E+03  0.13449392338E+03  0.00000000000E+00 0.  1.
          2   -1    0    0  501    0  0.00000000000E+00 -0.00000000000E+00 -0.69670878975E+03  0.69670878975E+03  0.00000000000E+00 0. -1.
          5    1    1    2  502    0 -0.65600241326E+02 -0.48967041375E+02 -0.27330108117E+02  0.86430247094E+02  0.47000000000E+01 0. -1.
         -5    1    1    2    0  502  0.12142298943E+03 -0.36312076607E+01  0.25443537120E+02  0.12420222065E+03  0.47000000000E+01 0.  1.
        -11    1    1    2    0    0  0.55510170253E+02 -0.96859819334E+01 -0.12019504975E+02  0.57616540571E+02  0.00000000000E+00 0.  1.
         11    1    1    2    0    0 -0.11133291836E+03  0.62284230970E+02 -0.54830879040E+03  0.56295370482E+03  0.00000000000E+00 0. -1.
<mgrwt>
<rscale>  0 0.61221924E+03</rscale>
<asrwt>0</asrwt>
<pdfrwt beam="2">  1        2 0.10718597E+00 0.61221924E+03</pdfrwt>
<pdfrwt beam="1">  1       -2 0.20691373E-01 0.61221924E+03</pdfrwt>
<totfact> 0.83270918E+02</totfact>
</mgrwt>
</event>
<event>
 8    1  0.1154424E-005  0.1391242E+03  0.7546771E-02  0.1225929E+00
         -1   -1    0    0    0  501 -0.00000000000E+00  0.00000000000E+00  0.19426074823E+03  0.19426074823E+03  0.00000000000E+00 0.  1.
          1   -1    0    0  501    0  0.00000000000E+00 -0.00000000000E+00 -0.80216528361E+02  0.80216528361E+02  0.00000000000E+00 0. -1.
         23    2    1    2    0    0 -0.55912410923E+02  0.24637270690E+02  0.76308088037E+02  0.15867720194E+03  0.12498934880E+03 0.  0.
         23    2    1    2    0    0  0.55912410923E+02 -0.24637270690E+02  0.37736131834E+02  0.11580007466E+03  0.90842990056E+02 0.  0.
          5    1    3    3  502    0 -0.73574944492E+02  0.18323417581E+02  0.10158700911E+03  0.12685042573E+03  0.47000000000E+01 0. -1.
         -5    1    3    3    0  502  0.17662533569E+02  0.63138531083E+01 -0.25278921070E+02  0.31826776205E+02  0.47000000000E+01 0. -1.
        -11    1    4    4    0    0 -0.18942159725E+02 -0.27408771286E+02  0.19871621779E+02  0.38793395193E+02  0.00000000000E+00 0.  1.
         11    1    4    4    0    0  0.74854570648E+02  0.27715005964E+01  0.17864510055E+02  0.77006679463E+02  0.00000000000E+00 0. -1.
<mgrwt>
<rscale>  0 0.13103417E+03</rscale>
<asrwt>0</asrwt>
<pdfrwt beam="2">  1        1 0.12341004E-01 0.13912415E+03</pdfrwt>
<pdfrwt beam="1">  1       -1 0.29886269E-01 0.13912415E+03</pdfrwt>
<totfact> 0.47542391E+03</totfact>
</mgrwt>
</event>
<event>
 8    1  0.1154424E-005  0.1455150E+03  0.7546771E-02  0.1216714E+00
         -1   -1    0    0    0  501 -0.00000000000E+00  0.00000000000E+00  0.36508953470E+02  0.36508953470E+02  0.00000000000E+00 0.  1.
          1   -1    0    0  501    0  0.00000000000E+00 -0.00000000000E+00 -0.51720540559E+03  0.51720540559E+03  0.00000000000E+00 0. -1.
         23    2    1    2    0    0  0.56360353118E+02 -0.48871491812E+02 -0.18040514933E+03  0.23177710983E+03  0.12493877949E+03 0.  0.
         23    2    1    2    0    0 -0.56360353118E+02  0.48871491812E+02 -0.30029130279E+03  0.32193724923E+03  0.88903395852E+02 0.  0.
          5    1    3    3  502    0  0.17330714913E+02 -0.77717382021E+02 -0.54083099434E+02  0.96371244633E+02  0.47000000000E+01 0.  1.
         -5    1    3    3    0  502  0.39029638204E+02  0.28845890209E+02 -0.12632204990E+03  0.13540586520E+03  0.47000000000E+01 0.  1.
        -11    1    4    4    0    0 -0.58241544819E+02  0.10607126884E+02 -0.86990244950E+02  0.10522305546E+03  0.00000000000E+00 0. -1.
         11    1    4    4    0    0  0.18811917018E+01  0.38264364928E+02 -0.21330105784E+03  0.21671419377E+03  0.00000000000E+00 0.  1.
<mgrwt>
<rscale>  0 0.13751390E+03</rscale>
<asrwt>0</asrwt>
<pdfrwt beam="2">  1        1 0.79570054E-01 0.14551498E+03</pdfrwt>
<pdfrwt beam="1">  1       -1 0.56167627E-02 0.14551498E+03</pdfrwt>
<totfact> 0.61468452E+03</totfact>
</mgrwt>
</event>
<event>
 8    1  0.1154424E-005  0.1444607E+03  0.7546771E-02  0.1216880E+00
         -2   -1    0    0    0  501 -0.00000000000E+00  0.00000000000E+00  0.15337743096E+03  0.15337743096E+03  0.00000000000E+00 0.  1.
          2   -1    0    0  501    0  0.00000000000E+00 -0.00000000000E+00 -0.11251859999E+03  0.11251859999E+03  0.00000000000E+00 0. -1.
         23    2    1    2    0    0  0.66531979077E+01  0.72111757887E+02  0.25718416892E+02  0.14673215052E+03  0.12499806542E+03 0.  0.
         23    2    1    2    0    0 -0.66531979077E+01 -0.72111757887E+02  0.15140414082E+02  0.11916388044E+03  0.93415349888E+02 0.  0.
          5    1    3    3  502    0 -0.29668758377E+02  0.92196208536E+02 -0.13183525242E+01  0.96975275949E+02  0.47000000000E+01 0.  1.
         -5    1    3    3    0  502  0.36321956284E+02 -0.20084450649E+02  0.27036769416E+02  0.49756874567E+02  0.47000000000E+01 0.  1.
        -11    1    4    4    0    0 -0.48350224775E+02 -0.33347141147E+02 -0.45784666719E+01  0.58912973236E+02  0.00000000000E+00 0.  1.
         11    1    4    4    0    0  0.41697026867E+02 -0.38764616740E+02  0.19718880754E+02  0.60250907202E+02  0.00000000000E+00 0. -1.
<mgrwt>
<rscale>  0 0.13739309E+03</rscale>
<asrwt>0</asrwt>
<pdfrwt beam="2">  1        2 0.17310554E-01 0.14446068E+03</pdfrwt>
<pdfrwt beam="1">  1       -2 0.23596528E-01 0.14446068E+03</pdfrwt>
<totfact> 0.49557117E+03</totfact>
</mgrwt>
</event>
<event>
 8    1  0.1154424E-005  0.1298934E+03  0.7546771E-02  0.1241631E+00
         -4   -1    0    0    0  501 -0.00000000000E+00  0.00000000000E+00  0.79185864321E+02  0.79185864321E+02  0.00000000000E+00 0.  1.
          4   -1    0    0  501    0  0.00000000000E+00 -0.00000000000E+00 -0.19492217557E+03  0.19492217557E+03  0.00000000000E+00 0. -1.
         23    2    1    2    0    0 -0.17483984638E+02  0.30677320583E+02 -0.99601257430E+01  0.13027469378E+03  0.12500201605E+03 0.  0.
         23    2    1    2    0    0  0.17483984638E+02 -0.30677320583E+02 -0.10577618550E+03  0.14383334611E+03  0.90844054934E+02 0.  0.
          5    1    3    3  502    0  0.22311765718E+01 -0.39101940156E+02  0.27922936571E+02  0.48329289873E+02  0.47000000000E+01 0.  1.
         -5    1    3    3    0  502 -0.19715161209E+02  0.69779260739E+02 -0.37883062314E+02  0.81945403905E+02  0.47000000000E+01 0.  1.
        -11    1    4    4    0    0 -0.21359018558E+02  0.22687703905E+02 -0.39308721443E+02  0.50160892772E+02  0.00000000000E+00 0.  1.
         11    1    4    4    0    0  0.38843003195E+02 -0.53365024488E+02 -0.66467464060E+02  0.93672453339E+02  0.00000000000E+00 0. -1.
<mgrwt>
<rscale>  0 0.12089337E+03</rscale>
<asrwt>0</asrwt>
<pdfrwt beam="2">  1        4 0.29988027E-01 0.12989339E+03</pdfrwt>
<pdfrwt beam="1">  1       -4 0.12182441E-01 0.12989339E+03</pdfrwt>
<totfact> 0.94277327E+02</totfact>
</mgrwt>
</event>
<event>
 7    1  0.1154424E-005  0.1779696E+03  0.7546771E-02  0.1192564E+00
          2   -1    0    0  501    0  0.00000000000E+00  0.00000000000E+00  0.44227275335E+02  0.44227275335E+02  0.00000000000E+00 0. -1.
         -2   -1    0    0    0  501 -0.00000000000E+00 -0.00000000000E+00 -0.11290963299E+04  0.11290963299E+04  0.00000000000E+00 0.  1.
         23    2    1    2    0    0  0.24345445936E+01  0.47704034035E+02 -0.40939005652E+02  0.11433204188E+03  0.95468380874E+02 0.  0.
          5    1    1    2  502    0  0.11119894234E+02  0.45217523716E+02 -0.10021968934E+03  0.11060900791E+03  0.47000000000E+01 0. -1.
         -5    1    1    2    0  502 -0.13554438827E+02 -0.92921557751E+02 -0.94371035960E+03  0.94838255547E+03  0.47000000000E+01 0.  1.
        -11    1    3    3    0    0 -0.62223153607E+01  0.95340136897E+01 -0.66576847492E+02  0.67543254641E+02  0.00000000000E+00 0.  1.
         11    1    3    3    0    0  0.86568599544E+01  0.38170020346E+02  0.25637841839E+02  0.46788787243E+02  0.00000000000E+00 0. -1.
<mgrwt>
<rscale>  0 0.15662193E+03</rscale>
<asrwt>0</asrwt>
<pdfrwt beam="1">  1        2 0.68041977E-02 0.17796962E+03</pdfrwt>
<pdfrwt beam="2">  1       -2 0.17370709E+00 0.17796962E+03</pdfrwt>
<totfact> 0.22429494E+02</totfact>
</mgrwt>
</event>
<event>
 7    1  0.1154424E-005  0.9014014E+03  0.7546771E-02  0.1003657E+00
          2   -1    0    0  501    0  0.00000000000E+00  0.00000000000E+00  0.80719947833E+03  0.80719947833E+03  0.00000000000E+00 0. -1.
         -2   -1    0    0    0  501 -0.00000000000E+00 -0.00000000000E+00 -0.34495893371E+03  0.34495893371E+03  0.00000000000E+00 0.  1.
         23    2    1    2    0    0 -0.10151584957E+02 -0.35348519473E+02  0.16675515368E+03  0.20356152284E+03  0.11080360913E+03 0.  0.
          5    1    1    2  502    0 -0.26031836710E+03 -0.35794913184E+02  0.52478369884E+03  0.58691306735E+03  0.47000000000E+01 0. -1.
         -5    1    1    2    0  502  0.27046995206E+03  0.71143432657E+02 -0.22929830790E+03  0.36168382184E+03  0.47000000000E+01 0.  1.
        -11    1    3    3    0    0 -0.53791518223E+02 -0.19457650386E+01  0.45678438121E+02  0.70596268622E+02  0.00000000000E+00 0.  1.
         11    1    3    3    0    0  0.43639933265E+02 -0.33402754435E+02  0.12107671556E+03  0.13296525422E+03  0.00000000000E+00 0. -1.
<mgrwt>
<rscale>  0 0.54075519E+03</rscale>
<asrwt>0</asrwt>
<pdfrwt beam="1">  1        2 0.12418453E+00 0.90140138E+03</pdfrwt>
<pdfrwt beam="2">  1       -2 0.53070606E-01 0.90140138E+03</pdfrwt>
<totfact> 0.11430686E+02</totfact>
</mgrwt>
</event>
<event>
 8    1  0.1154424E-005  0.1448516E+03  0.7546771E-02  0.1217200E+00
         -1   -1    0    0    0  501 -0.00000000000E+00  0.00000000000E+00  0.52325290200E+03  0.52325290200E+03  0.00000000000E+00 0.  1.
          1   -1    0    0  501    0  0.00000000000E+00 -0.00000000000E+00 -0.47530171997E+02  0.47530171997E+02  0.00000000000E+00 0. -1.
         23    2    1    2    0    0  0.57300966259E+02  0.45517566512E+02  0.41478097323E+03  0.43934636876E+03  0.12500690538E+03 0.  0.
         23    2    1    2    0    0 -0.57300966259E+02 -0.45517566512E+02  0.60941756774E+02  0.13143670524E+03  0.90589514681E+02 0.  0.
          5    1    3    3  502    0  0.80496781141E+02  0.21324682253E+02  0.38603296492E+03  0.39494051939E+03  0.47000000000E+01 0.  1.
         -5    1    3    3    0  502 -0.23195814883E+02  0.24192884259E+02  0.28748008310E+02  0.44405849374E+02  0.47000000000E+01 0.  1.
        -11    1    4    4    0    0 -0.25312391670E+02 -0.19982158571E+02  0.80022985294E+02  0.86276775604E+02  0.00000000000E+00 0.  1.
         11    1    4    4    0    0 -0.31988574589E+02 -0.25535407941E+02 -0.19081228519E+02  0.45159929636E+02  0.00000000000E+00 0. -1.
<mgrwt>
<rscale>  0 0.13716133E+03</rscale>
<asrwt>0</asrwt>
<pdfrwt beam="2">  1        1 0.73123345E-02 0.14485157E+03</pdfrwt>
<pdfrwt beam="1">  1       -1 0.80500442E-01 0.14485157E+03</pdfrwt>
<totfact> 0.15501196E+03</totfact>
</mgrwt>
</event>
<event>
 8    1  0.1154424E-005  0.1267782E+03  0.7546771E-02  0.1247141E+00
         -1   -1    0    0    0  501 -0.00000000000E+00  0.00000000000E+00  0.33312279759E+03  0.33312279759E+03  0.00000000000E+00 0.  1.
          1   -1    0    0  501    0  0.00000000000E+00 -0.00000000000E+00 -0.43227625850E+02  0.43227625850E+02  0.00000000000E+00 0. -1.
         23    2    1    2    0    0  0.15999240127E+02 -0.13898533828E+02  0.23669588826E+03  0.26851008866E+03  0.12499431693E+03 0.  0.
         23    2    1    2    0    0 -0.15999240127E+02  0.13898533828E+02  0.53199283486E+02  0.10784033479E+03  0.91379588072E+02 0.  0.
          5    1    3    3  502    0  0.27536911861E+02  0.52365458362E+02  0.10996385288E+03  0.12495823976E+03  0.47000000000E+01 0. -1.
         -5    1    3    3    0  502 -0.11537671734E+02 -0.66263992190E+02  0.12673203538E+03  0.14355184889E+03  0.47000000000E+01 0. -1.
        -11    1    4    4    0    0 -0.51447754440E+02 -0.31576393852E+00  0.45919258231E+02  0.68960491735E+02  0.00000000000E+00 0.  1.
         11    1    4    4    0    0  0.35448514313E+02  0.14214297767E+02  0.72800252550E+01  0.38879843052E+02  0.00000000000E+00 0. -1.
<mgrwt>
<rscale>  0 0.11758178E+03</rscale>
<asrwt>0</asrwt>
<pdfrwt beam="2">  1        1 0.66504042E-02 0.12677825E+03</pdfrwt>
<pdfrwt beam="1">  1       -1 0.51249660E-01 0.12677825E+03</pdfrwt>
<totfact> 0.41914040E+03</totfact>
</mgrwt>
</event>
<event>
 8    1  0.1154424E-005  0.1683443E+03  0.7546771E-02  0.1186382E+00
         -1   -1    0    0    0  501 -0.00000000000E+00  0.00000000000E+00  0.85013418208E+02  0.85013418208E+02  0.00000000000E+00 0.  1.
          1   -1    0    0  501    0  0.00000000000E+00 -0.00000000000E+00 -0.43660951556E+03  0.43660951556E+03  0.00000000000E+00 0. -1.
         23    2    1    2    0    0 -0.10803792360E+03 -0.32296717546E+02 -0.32726685061E+02  0.17149584074E+03  0.12499806629E+03 0.  0.
         23    2    1    2    0    0  0.10803792360E+03  0.32296717546E+02 -0.31886941229E+03  0.35012709302E+03  0.90531808081E+02 0.  0.
          5    1    3    3  502    0 -0.10602878295E+03  0.24942890058E+00  0.21268727382E+02  0.10824330831E+03  0.47000000000E+01 0. -1.
         -5    1    3    3    0  502 -0.20091406518E+01 -0.32546146447E+02 -0.53995412443E+02  0.63252532436E+02  0.47000000000E+01 0. -1.
        -11    1    4    4    0    0  0.20270046085E+02 -0.93642339237E+01 -0.68855879704E+01  0.23366107228E+02  0.00000000000E+00 0. -1.
         11    1    4    4    0    0  0.87767877518E+02  0.41660951470E+02 -0.31198382432E+03  0.32676098579E+03  0.00000000000E+00 0.  1.
<mgrwt>
<rscale>  0 0.16206764E+03</rscale>
<asrwt>0</asrwt>
<pdfrwt beam="2">  1        1 0.67170695E-01 0.16834425E+03</pdfrwt>
<pdfrwt beam="1">  1       -1 0.13078987E-01 0.16834425E+03</pdfrwt>
<totfact> 0.21309771E+03</totfact>
</mgrwt>
</event>
<event>
 8    1  0.1154424E-005  0.7556768E+03  0.7546771E-02  0.9628355E-01
         -2   -1    0    0    0  501 -0.00000000000E+00  0.00000000000E+00  0.27761464189E+03  0.27761464189E+03  0.00000000000E+00 0.  1.
          2   -1    0    0  501    0  0.00000000000E+00 -0.00000000000E+00 -0.21764446325E+04  0.21764446325E+04  0.00000000000E+00 0. -1.
         23    2    1    2    0    0 -0.52486152784E+03 -0.52912664167E+03 -0.64950789547E+03  0.99644766042E+03  0.12487116299E+03 0.  0.
         23    2    1    2    0    0  0.52486152784E+03  0.52912664167E+03 -0.12493220951E+04  0.14576116140E+04  0.91494772778E+02 0.  0.
          5    1    3    3  502    0 -0.72553467518E+02 -0.63044542559E+02 -0.35219969659E+02  0.10247514947E+03  0.47000000000E+01 0. -1.
         -5    1    3    3    0  502 -0.45230806032E+03 -0.46608209911E+03 -0.61428792581E+03  0.89397251095E+03  0.47000000000E+01 0. -1.
        -11    1    4    4    0    0  0.50065928954E+03  0.48860049710E+03 -0.12021223541E+04  0.13908588441E+04  0.00000000000E+00 0. -1.
         11    1    4    4    0    0  0.24202238301E+02  0.40526144571E+02 -0.47199741068E+02  0.66752769901E+02  0.00000000000E+00 0.  1.
<mgrwt>
<rscale>  0 0.75447560E+03</rscale>
<asrwt>0</asrwt>
<pdfrwt beam="2">  1        2 0.33483764E+00 0.75567681E+03</pdfrwt>
<pdfrwt beam="1">  1       -2 0.42709945E-01 0.75567681E+03</pdfrwt>
<totfact> 0.28653421E+01</totfact>
</mgrwt>
</event>
<event>
 8    1  0.1154424E-005  0.1641772E+03  0.7546771E-02  0.1191139E+00
          1   -1    0    0  501    0  0.00000000000E+00  0.00000000000E+00  0.36566287867E+03  0.36566287867E+03  0.00000000000E+00 0. -1.
         -1   -1    0    0    0  501 -0.00000000000E+00 -0.00000000000E+00 -0.63413188951E+02  0.63413188951E+02  0.00000000000E+00 0.  1.
         23    2    1    2    0    0 -0.10641917803E+03  0.20135915428E+01  0.16722070224E+03  0.23434360341E+03  0.12500026080E+03 0.  0.
         23    2    1    2    0    0  0.10641917803E+03 -0.20135915428E+01  0.13502898748E+03  0.19473246421E+03  0.91426523248E+02 0.  0.
          5    1    3    3  502    0  0.23001852865E+02 -0.14298312155E+02  0.83519777541E+01  0.28729296860E+02  0.47000000000E+01 0. -1.
         -5    1    3    3    0  502 -0.12942103089E+03  0.16311903698E+02  0.15886872448E+03  0.20561430655E+03  0.47000000000E+01 0. -1.
        -11    1    4    4    0    0  0.18035277265E+02 -0.82991768653E+01  0.95789966486E+02  0.97825688048E+02  0.00000000000E+00 0. -1.
         11    1    4    4    0    0  0.88383900762E+02  0.62855853225E+01  0.39239020993E+02  0.96906776158E+02  0.00000000000E+00 0.  1.
<mgrwt>
<rscale>  0 0.15785546E+03</rscale>
<asrwt>0</asrwt>
<pdfrwt beam="1">  1        1 0.56255826E-01 0.16417722E+03</pdfrwt>
<pdfrwt beam="2">  1       -1 0.97558754E-02 0.16417722E+03</pdfrwt>
<totfact> 0.41946511E+03</totfact>
</mgrwt>
</event>
<event>
 8    1  0.1154424E-005  0.1252596E+03  0.7546771E-02  0.1249625E+00
         -3   -1    0    0    0  501 -0.00000000000E+00  0.00000000000E+00  0.67322601468E+03  0.67322601468E+03  0.00000000000E+00 0.  1.
          3   -1    0    0  501    0  0.00000000000E+00 -0.00000000000E+00 -0.17962700757E+02  0.17962700757E+02  0.00000000000E+00 0. -1.
         23    2    1    2    0    0  0.12140563027E+01  0.78495272198E+01  0.42346502836E+03  0.44160232057E+03  0.12500756086E+03 0.  0.
         23    2    1    2    0    0 -0.12140563027E+01 -0.78495272198E+01  0.23179828556E+03  0.24958639487E+03  0.92194545963E+02 0.  0.
          5    1    3    3  502    0  0.26106914463E+02 -0.35458298859E+02  0.34908317384E+03  0.35188068176E+03  0.47000000000E+01 0.  1.
         -5    1    3    3    0  502 -0.24892858160E+02  0.43307826079E+02  0.74381854525E+02  0.89721638804E+02  0.47000000000E+01 0.  1.
        -11    1    4    4    0    0 -0.27051432154E+02  0.31962967769E+02  0.14162070241E+03  0.14768153114E+03  0.00000000000E+00 0.  1.
         11    1    4    4    0    0  0.25837375851E+02 -0.39812494988E+02  0.90177583150E+02  0.10190486373E+03  0.00000000000E+00 0. -1.
<mgrwt>
<rscale>  0 0.11612779E+03</rscale>
<asrwt>0</asrwt>
<pdfrwt beam="2">  1        3 0.27634929E-02 0.12525965E+03</pdfrwt>
<pdfrwt beam="1">  1       -3 0.10357321E+00 0.12525965E+03</pdfrwt>
<totfact> 0.11003087E+03</totfact>
</mgrwt>
</event>
<event>
 8    1  0.1154424E-005  0.1550736E+03  0.7546771E-02  0.1202610E+00
          4   -1    0    0  501    0  0.00000000000E+00  0.00000000000E+00  0.25569864433E+03  0.25569864433E+03  0.00000000000E+00 0. -1.
         -4   -1    0    0    0  501 -0.00000000000E+00 -0.00000000000E+00 -0.79426027269E+02  0.79426027269E+02  0.00000000000E+00 0.  1.
         23    2    1    2    0    0 -0.76638940748E+02  0.50488027879E+02  0.87917329352E+02  0.17826180602E+03  0.12500098594E+03 0.  0.
         23    2    1    2    0    0  0.76638940748E+02 -0.50488027879E+02  0.88355287711E+02  0.15686286558E+03  0.91524496911E+02 0.  0.
          5    1    3    3  502    0 -0.21896672978E+02  0.55445453832E+02  0.10472213690E+03  0.12059219956E+03  0.47000000000E+01 0.  1.
         -5    1    3    3    0  502 -0.54742267770E+02 -0.49574259531E+01 -0.16804807543E+02  0.57669606460E+02  0.47000000000E+01 0.  1.
        -11    1    4    4    0    0  0.93427586733E+02 -0.54107926469E+02  0.59477068390E+02  0.12326355233E+03  0.00000000000E+00 0.  1.
         11    1    4    4    0    0 -0.16788645985E+02  0.36198985902E+01  0.28878219322E+02  0.33599313252E+02  0.00000000000E+00 0. -1.
<mgrwt>
<rscale>  0 0.14827392E+03</rscale>
<asrwt>0</asrwt>
<pdfrwt beam="1">  1        4 0.39338253E-01 0.15507358E+03</pdfrwt>
<pdfrwt beam="2">  1       -4 0.12219389E-01 0.15507358E+03</pdfrwt>
<totfact> 0.57588562E+02</totfact>
</mgrwt>
</event>
<event>
 8    1  0.1154424E-005  0.1292564E+03  0.7546771E-02  0.1243022E+00
          1   -1    0    0  501    0  0.00000000000E+00  0.00000000000E+00  0.36316774649E+03  0.36316774649E+03  0.00000000000E+00 0. -1.
         -1   -1    0    0    0  501 -0.00000000000E+00 -0.00000000000E+00 -0.35776087715E+02  0.35776087715E+02  0.00000000000E+00 0.  1.
         23    2    1    2    0    0 -0.20454658799E+02 -0.25769238972E+02  0.15776838974E+03  0.20395610538E+03  0.12499912551E+03 0.  0.
         23    2    1    2    0    0  0.20454658799E+02  0.25769238972E+02  0.16962326904E+03  0.19498772882E+03  0.90364341693E+02 0.  0.
          5    1    3    3  502    0 -0.26619843811E+02  0.46828750980E+02  0.49091638176E+02  0.73031684506E+02  0.47000000000E+01 0.  1.
         -5    1    3    3    0  502  0.61651850124E+01 -0.72597989952E+02  0.10867675156E+03  0.13092442087E+03  0.47000000000E+01 0.  1.
        -11    1    4    4    0    0  0.19508649123E+02 -0.30897090706E+02  0.91041914656E+02  0.98101212168E+02  0.00000000000E+00 0.  1.
         11    1    4    4    0    0  0.94600967544E+00  0.56666329677E+02  0.78581354380E+02  0.96886516655E+02  0.00000000000E+00 0. -1.
<mgrwt>
<rscale>  0 0.12004555E+03</rscale>
<asrwt>0</asrwt>
<pdfrwt beam="1">  1        1 0.55871958E-01 0.12925644E+03</pdfrwt>
<pdfrwt beam="2">  1       -1 0.55040138E-02 0.12925644E+03</pdfrwt>
<totfact> 0.98724613E+03</totfact>
</mgrwt>
</event>
<event>
 8    1  0.1194961E-005  0.1792762E+03  0.7546771E-02  0.1174615E+00
         -1   -1    0    0    0  501 -0.00000000000E+00  0.00000000000E+00  0.34261091387E+02  0.34261091387E+02  0.00000000000E+00 0.  1.
          1   -1    0    0  501    0  0.00000000000E+00 -0.00000000000E+00 -0.97244696747E+03  0.97244696747E+03  0.00000000000E+00 0. -1.
         23    2    1    2    0    0  0.12079752217E+03  0.43847173647E+02 -0.29773839050E+03  0.34754585308E+03  0.12500141927E+03 0.  0.
         23    2    1    2    0    0 -0.12079752217E+03 -0.43847173647E+02 -0.64044748559E+03  0.65916220578E+03  0.88358450249E+02 0.  0.
          5    1    3    3  502    0  0.13565807177E+03  0.62658049883E+02 -0.21946347500E+03  0.26554745435E+03  0.47000000000E+01 0. -1.
         -5    1    3    3    0  502 -0.14860549602E+02 -0.18810876236E+02 -0.78274915491E+02  0.81998398730E+02  0.47000000000E+01 0. -1.
        -11    1    4    4    0    0 -0.57737696212E+02  0.18847772771E+02 -0.17351089472E+03  0.18383392148E+03  0.00000000000E+00 0.  1.
         11    1    4    4    0    0 -0.63059825955E+02 -0.62694946418E+02 -0.46693659087E+03  0.47532828430E+03  0.00000000000E+00 0. -1.
<mgrwt>
<rscale>  0 0.17313768E+03</rscale>
<asrwt>0</asrwt>
<pdfrwt beam="2">  1        1 0.14960722E+00 0.17927624E+03</pdfrwt>
<pdfrwt beam="1">  1       -1 0.52709374E-02 0.17927624E+03</pdfrwt>
<totfact> 0.27056830E+03</totfact>
</mgrwt>
</event>
<event>
 7    1  0.1154424E-005  0.3317181E+03  0.7546771E-02  0.1070379E+00
         -2   -1    0    0    0  501 -0.00000000000E+00  0.00000000000E+00  0.26952588765E+02  0.26952588765E+02  0.00000000000E+00 0.  1.
          2   -1    0    0  501    0  0.00000000000E+00 -0.00000000000E+00 -0.10206525564E+04  0.10206525564E+04  0.00000000000E+00 0. -1.
         23    2    1    2    0    0 -0.21488718678E+02 -0.15204359561E+02 -0.22847485293E+03  0.26176438434E+03  0.12500758740E+03 0.  0.
          5    1    3    3  502    0 -0.68186070664E+02 -0.10598586436E+02 -0.18545029718E+03  0.19792820161E+03  0.47000000000E+01 0. -1.
         -5    1    3    3    0  502  0.46697351986E+02 -0.46057731248E+01 -0.43024555751E+02  0.63836182735E+02  0.47000000000E+01 0. -1.
        -11    1    1    2    0    0  0.77622735716E+02  0.64153904200E+02 -0.51557878009E+03  0.52532132167E+03  0.00000000000E+00 0.  1.
         11    1    1    2    0    0 -0.56134017038E+02 -0.48949544640E+02 -0.24964633461E+03  0.26051943914E+03  0.00000000000E+00 0. -1.
<mgrwt>
<rscale>  0 0.33171813E+03</rscale>
<asrwt>0</asrwt>
<pdfrwt beam="2">  1        2 0.15702345E+00 0.33171813E+03</pdfrwt>
<pdfrwt beam="1">  1       -2 0.41465526E-02 0.33171813E+03</pdfrwt>
<totfact> 0.66593600E+03</totfact>
</mgrwt>
</event>
<event>
 8    1  0.1154424E-005  0.1750503E+03  0.7546771E-02  0.1183460E+00
         -2   -1    0    0    0  501 -0.00000000000E+00  0.00000000000E+00  0.24843492696E+03  0.24843492696E+03  0.00000000000E+00 0.  1.
          2   -1    0    0  501    0  0.00000000000E+00 -0.00000000000E+00 -0.99949644003E+02  0.99949644003E+02  0.00000000000E+00 0. -1.
         23    2    1    2    0    0  0.34165521366E+02 -0.11767755143E+03  0.10621115678E+03  0.20475209312E+03  0.12500928306E+03 0.  0.
         23    2    1    2    0    0 -0.34165521366E+02  0.11767755143E+03  0.42274126169E+02  0.14363247784E+03  0.61870008780E+02 0.  0.
          5    1    3    3  502    0  0.32887786448E+02 -0.59730998746E+02 -0.15302998700E+02  0.70040491702E+02  0.47000000000E+01 0.  1.
         -5    1    3    3    0  502  0.12777349186E+01 -0.57946552680E+02  0.12151415548E+03  0.13471160142E+03  0.47000000000E+01 0.  1.
        -11    1    4    4    0    0 -0.38554597022E+02  0.55051902875E+02 -0.12839090729E+01  0.67222149506E+02  0.00000000000E+00 0. -1.
         11    1    4    4    0    0  0.43890756559E+01  0.62625648552E+02  0.43558035242E+02  0.76410328332E+02  0.00000000000E+00 0.  1.
<mgrwt>
<rscale>  0 0.16472763E+03</rscale>
<asrwt>0</asrwt>
<pdfrwt beam="2">  1        2 0.15376868E-01 0.17505031E+03</pdfrwt>
<pdfrwt beam="1">  1       -2 0.38220758E-01 0.17505031E+03</pdfrwt>
<totfact> 0.24057741E+03</totfact>
</mgrwt>
</event>
<event>
 8    1  0.1154424E-005  0.3533576E+03  0.7546771E-02  0.1062252E+00
         -3   -1    0    0    0  501 -0.00000000000E+00  0.00000000000E+00  0.58410854166E+03  0.58410854166E+03  0.00000000000E+00 0.  1.
          3   -1    0    0  501    0  0.00000000000E+00 -0.00000000000E+00 -0.24777204616E+03  0.24777204616E+03  0.00000000000E+00 0. -1.
         23    2    1    2    0    0  0.23279209172E+03  0.23461608388E+03  0.33701422589E+03  0.48830338474E+03  0.12499896925E+03 0.  0.
         23    2    1    2    0    0 -0.23279209172E+03 -0.23461608388E+03 -0.67773038815E+00  0.34357720308E+03  0.93850787820E+02 0.  0.
          5    1    3    3  502    0  0.22234984047E+02  0.12959331803E+02 -0.79460316253E+01  0.27341693710E+02  0.47000000000E+01 0.  1.
         -5    1    3    3    0  502  0.21055710767E+03  0.22165675208E+03  0.34496025751E+03  0.46096169103E+03  0.47000000000E+01 0.  1.
        -11    1    4    4    0    0 -0.13443933540E+02 -0.28949546798E+02 -0.26909782112E+02  0.41748676412E+02  0.00000000000E+00 0.  1.
         11    1    4    4    0    0 -0.21934815818E+03 -0.20566653708E+03  0.26232051724E+02  0.30182852667E+03  0.00000000000E+00 0. -1.
<mgrwt>
<rscale>  0 0.35088655E+03</rscale>
<asrwt>0</asrwt>
<pdfrwt beam="2">  1        3 0.38118776E-01 0.35335762E+03</pdfrwt>
<pdfrwt beam="1">  1       -3 0.89862852E-01 0.35335762E+03</pdfrwt>
<totfact> 0.19710273E+01</totfact>
</mgrwt>
</event>
<event>
 7    1  0.1154424E-005  0.3749336E+03  0.7546771E-02  0.1052822E+00
          3   -1    0    0  501    0  0.00000000000E+00  0.00000000000E+00  0.32198430350E+02  0.32198430350E+02  0.00000000000E+00 0. -1.
         -3   -1    0    0    0  501 -0.00000000000E+00 -0.00000000000E+00 -0.10914758726E+04  0.10914758726E+04  0.00000000000E+00 0.  1.
         23    2    1    2    0    0 -0.18151990326E+02 -0.16706931734E+02 -0.22345924396E+03  0.24308464152E+03  0.92452652267E+02 0.  0.
          5    1    1    2  502    0 -0.64919544437E+01 -0.12755844350E+03 -0.32599756854E+03  0.35015683154E+03  0.47000000000E+01 0. -1.
         -5    1    1    2    0  502  0.24643944770E+02  0.14426537523E+03 -0.50982062976E+03  0.53043282990E+03  0.47000000000E+01 0.  1.
        -11    1    3    3    0    0 -0.45092997849E+02  0.97750074108E+01 -0.17847142132E+03  0.18433929981E+03  0.00000000000E+00 0. -1.
         11    1    3    3    0    0  0.26941007523E+02 -0.26481939144E+02 -0.44987822634E+02  0.58745341709E+02  0.00000000000E+00 0.  1.
<mgrwt>
<rscale>  0 0.37493365E+03</rscale>
<asrwt>0</asrwt>
<pdfrwt beam="1">  1        3 0.49536046E-02 0.37493365E+03</pdfrwt>
<pdfrwt beam="2">  1       -3 0.16791937E+00 0.37493365E+03</pdfrwt>
<totfact> 0.15238962E+02</totfact>
</mgrwt>
</event>
<event>
 8    1  0.1154424E-005  0.1554300E+03  0.7546771E-02  0.1202146E+00
         -1   -1    0    0    0  501 -0.00000000000E+00  0.00000000000E+00  0.72653840620E+03  0.72653840620E+03  0.00000000000E+00 0.  1.
          1   -1    0    0  501    0  0.00000000000E+00 -0.00000000000E+00 -0.30182049666E+02  0.30182049666E+02  0.00000000000E+00 0. -1.
         23    2    1    2    0    0 -0.91337339562E+02  0.13833887449E+02  0.47744913651E+03  0.50211169315E+03  0.12499835360E+03 0.  0.
         23    2    1    2    0    0  0.91337339562E+02 -0.13833887449E+02  0.21890722003E+03  0.25460876272E+03  0.91495163989E+02 0.  0.
          5    1    3    3  502    0 -0.35934531552E+02  0.62871745868E+02  0.31937522403E+03  0.32751606176E+03  0.47000000000E+01 0.  1.
         -5    1    3    3    0  502 -0.55402808010E+02 -0.49037858419E+02  0.15807391247E+03  0.17459563138E+03  0.47000000000E+01 0.  1.
        -11    1    4    4    0    0  0.60627087406E+02  0.19568763203E+01  0.40608324427E+02  0.72996637629E+02  0.00000000000E+00 0. -1.
         11    1    4    4    0    0  0.30710252155E+02 -0.15790763770E+02  0.17829889560E+03  0.18161212509E+03  0.00000000000E+00 0.  1.
<mgrwt>
<rscale>  0 0.14864619E+03</rscale>
<asrwt>0</asrwt>
<pdfrwt beam="2">  1        1 0.46433928E-02 0.15542997E+03</pdfrwt>
<pdfrwt beam="1">  1       -1 0.11177513E+00 0.15542997E+03</pdfrwt>
<totfact> 0.14166931E+03</totfact>
</mgrwt>
</event>
<event>
 8    1  0.1154424E-005  0.1407651E+03  0.7546771E-02  0.1223332E+00
         -2   -1    0    0    0  501 -0.00000000000E+00  0.00000000000E+00  0.62443802465E+02  0.62443802465E+02  0.00000000000E+00 0.  1.
          2   -1    0    0  501    0  0.00000000000E+00 -0.00000000000E+00 -0.29195416317E+03  0.29195416317E+03  0.00000000000E+00 0. -1.
         23    2    1    2    0    0 -0.61580681675E+02 -0.19935192097E+02 -0.63609121933E+02  0.15446985279E+03  0.12500089115E+03 0.  0.
         23    2    1    2    0    0  0.61580681675E+02  0.19935192097E+02 -0.16590123877E+03  0.19992811284E+03  0.90875943135E+02 0.  0.
          5    1    3    3  502    0 -0.35589306276E+02  0.52202240698E+02 -0.21743381107E+02  0.66981618950E+02  0.47000000000E+01 0.  1.
         -5    1    3    3    0  502 -0.25991375399E+02 -0.72137432796E+02 -0.41865740825E+02  0.87488233839E+02  0.47000000000E+01 0.  1.
        -11    1    4    4    0    0  0.10234047848E+01 -0.12094270901E+02  0.69569261579E+01  0.13989909490E+02  0.00000000000E+00 0.  1.
         11    1    4    4    0    0  0.60557276890E+02  0.32029462998E+02 -0.17285816493E+03  0.18593820335E+03  0.00000000000E+00 0. -1.
<mgrwt>
<rscale>  0 0.13281858E+03</rscale>
<asrwt>0</asrwt>
<pdfrwt beam="2">  1        2 0.44916026E-01 0.14076511E+03</pdfrwt>
<pdfrwt beam="1">  1       -2 0.96067387E-02 0.14076511E+03</pdfrwt>
<totfact> 0.75957338E+03</totfact>
</mgrwt>
</event>
<event>
 8    1  0.1154424E-005  0.1434509E+03  0.7546771E-02  0.1219025E+00
         -2   -1    0    0    0  501 -0.00000000000E+00  0.00000000000E+00  0.16605386054E+03  0.16605386054E+03  0.00000000000E+00 0.  1.
          2   -1    0    0  501    0  0.00000000000E+00 -0.00000000000E+00 -0.10206675371E+03  0.10206675371E+03  0.00000000000E+00 0. -1.
         23    2    1    2    0    0  0.46142168201E+02  0.53142587727E+02  0.20933911607E+02  0.14497033554E+03  0.12499974086E+03 0.  0.
         23    2    1    2    0    0 -0.46142168201E+02 -0.53142587727E+02  0.43053195223E+02  0.12315027871E+03  0.91428547023E+02 0.  0.
          5    1    3    3  502    0 -0.82850917944E+00  0.61292846450E+02  0.57908392145E+02  0.84456919990E+02  0.47000000000E+01 0.  1.
         -5    1    3    3    0  502  0.46970677381E+02 -0.81502587233E+01 -0.36974480538E+02  0.60513415553E+02  0.47000000000E+01 0.  1.
        -11    1    4    4    0    0 -0.31318642445E+02 -0.59274711880E+02  0.66704513646E+02  0.94571882575E+02  0.00000000000E+00 0.  1.
         11    1    4    4    0    0 -0.14823525756E+02  0.61321241534E+01 -0.23651318423E+02  0.28578396135E+02  0.00000000000E+00 0. -1.
<mgrwt>
<rscale>  0 0.13585000E+03</rscale>
<asrwt>0</asrwt>
<pdfrwt beam="2">  1        2 0.15702577E-01 0.14345093E+03</pdfrwt>
<pdfrwt beam="1">  1       -2 0.25546748E-01 0.14345093E+03</pdfrwt>
<totfact> 0.48290830E+03</totfact>
</mgrwt>
</event>
<event>
 8    1  0.1154424E-005  0.1284520E+03  0.7546771E-02  0.1244661E+00
          1   -1    0    0  501    0  0.00000000000E+00  0.00000000000E+00  0.92280841698E+02  0.92280841698E+02  0.00000000000E+00 0. -1.
         -1   -1    0    0    0  501 -0.00000000000E+00 -0.00000000000E+00 -0.22393997531E+03  0.22393997531E+03  0.00000000000E+00 0.  1.
         23    2    1    2    0    0  0.35218164101E+01 -0.30807606019E+02 -0.17075647405E+03  0.21367657337E+03  0.12465308980E+03 0.  0.
         23    2    1    2    0    0 -0.35218164101E+01  0.30807606019E+02  0.39097340435E+02  0.10254424364E+03  0.89583525802E+02 0.  0.
          5    1    3    3  502    0  0.60463235659E+02  0.48844610529E+01 -0.87605959198E+02  0.10666093433E+03  0.47000000000E+01 0.  1.
         -5    1    3    3    0  502 -0.56941419249E+02 -0.35692067072E+02 -0.83150514847E+02  0.10701563903E+03  0.47000000000E+01 0.  1.
        -11    1    4    4    0    0  0.17231119286E+02  0.41539193815E+02  0.57361769031E+02  0.72888878719E+02  0.00000000000E+00 0. -1.
         11    1    4    4    0    0 -0.20752935696E+02 -0.10731587796E+02 -0.18264428596E+02  0.29655364920E+02  0.00000000000E+00 0.  1.
<mgrwt>
<rscale>  0 0.11905721E+03</rscale>
<asrwt>0</asrwt>
<pdfrwt beam="1">  1        1 0.14197053E-01 0.12845195E+03</pdfrwt>
<pdfrwt beam="2">  1       -1 0.34452303E-01 0.12845195E+03</pdfrwt>
<totfact> 0.30982556E+03</totfact>
</mgrwt>
</event>
<event>
 8    1  0.1154424E-005  0.1828250E+03  0.7546771E-02  0.1169402E+00
         -2   -1    0    0    0  501 -0.00000000000E+00  0.00000000000E+00  0.54246811241E+03  0.54246811241E+03  0.00000000000E+00 0.  1.
          2   -1    0    0  501    0  0.00000000000E+00 -0.00000000000E+00 -0.95417873723E+02  0.95417873723E+02  0.00000000000E+00 0. -1.
         23    2    1    2    0    0  0.25280644566E+02 -0.13099841665E+03  0.43498797399E+03  0.47184690885E+03  0.12500108684E+03 0.  0.
         23    2    1    2    0    0 -0.25280644566E+02  0.13099841665E+03  0.12062264693E+02  0.16603907729E+03  0.98100870546E+02 0.  0.
          5    1    3    3  502    0 -0.28258907915E+02 -0.50551599968E+02  0.30113692772E+03  0.30669132588E+03  0.47000000000E+01 0. -1.
         -5    1    3    3    0  502  0.53539552481E+02 -0.80446816686E+02  0.13385104628E+03  0.16515558296E+03  0.47000000000E+01 0. -1.
        -11    1    4    4    0    0  0.21098860881E+02  0.63317796505E+02  0.41821976988E+02  0.78761558161E+02  0.00000000000E+00 0.  1.
         11    1    4    4    0    0 -0.46379505446E+02  0.67680620148E+02 -0.29759712295E+02  0.87277519127E+02  0.00000000000E+00 0. -1.
<mgrwt>
<rscale>  0 0.17835773E+03</rscale>
<asrwt>0</asrwt>
<pdfrwt beam="2">  1        2 0.14679673E-01 0.18282497E+03</pdfrwt>
<pdfrwt beam="1">  1       -2 0.83456631E-01 0.18282497E+03</pdfrwt>
<totfact> 0.51601346E+02</totfact>
</mgrwt>
</event>
<event>
 8    1  0.1154424E-005  0.1292490E+03  0.7546771E-02  0.1243691E+00
          2   -1    0    0  501    0  0.00000000000E+00  0.00000000000E+00  0.27823302145E+03  0.27823302145E+03  0.00000000000E+00 0. -1.
         -2   -1    0    0    0  501 -0.00000000000E+00 -0.00000000000E+00 -0.63718634959E+02  0.63718634959E+02  0.00000000000E+00 0.  1.
         23    2    1    2    0    0 -0.15363054701E+02 -0.29031341446E+02  0.27356867642E+02  0.13211242350E+03  0.12500580786E+03 0.  0.
         23    2    1    2    0    0  0.15363054701E+02  0.29031341446E+02  0.18715751885E+03  0.20983923291E+03  0.89026538581E+02 0.  0.
          5    1    3    3  502    0 -0.56010535404E+02 -0.39195717090E+02  0.49458617263E+02  0.84508751831E+02  0.47000000000E+01 0. -1.
         -5    1    3    3    0  502  0.40647480703E+02  0.10164375644E+02 -0.22101749621E+02  0.47603671666E+02  0.47000000000E+01 0. -1.
        -11    1    4    4    0    0 -0.26796842820E+02  0.32803691091E+02  0.46268216097E+02  0.62728787292E+02  0.00000000000E+00 0.  1.
         11    1    4    4    0    0  0.42159897520E+02 -0.37723496455E+01  0.14088930275E+03  0.14711044562E+03  0.00000000000E+00 0. -1.
<mgrwt>
<rscale>  0 0.11964048E+03</rscale>
<asrwt>0</asrwt>
<pdfrwt beam="1">  1        2 0.42805079E-01 0.12924896E+03</pdfrwt>
<pdfrwt beam="2">  1       -2 0.98028671E-02 0.12924896E+03</pdfrwt>
<totfact> 0.76990970E+03</totfact>
</mgrwt>
</event>
<event>
 7    1  0.1154424E-005  0.1799593E+03  0.7546771E-02  0.1179236E+00
         -2   -1    0    0    0  501 -0.00000000000E+00  0.00000000000E+00  0.16315877499E+03  0.16315877499E+03  0.00000000000E+00 0.  1.
          2   -1    0    0  501    0  0.00000000000E+00 -0.00000000000E+00 -0.28570610715E+03  0.28570610715E+03  0.00000000000E+00 0. -1.
         23    2    1    2    0    0 -0.29457409392E+02 -0.10260018901E+03 -0.20763122525E+03  0.24980555339E+03  0.88868166700E+02 0.  0.
          5    1    1    2  502    0 -0.17837627009E+02  0.40114262071E+02 -0.34482849572E+02  0.56022244452E+02  0.47000000000E+01 0. -1.
         -5    1    1    2    0  502  0.47295036401E+02  0.62485926940E+02  0.11956674267E+03  0.14303708430E+03  0.47000000000E+01 0.  1.
        -11    1    3    3    0    0 -0.22602004674E+02 -0.26206390777E+01 -0.10076491026E+03  0.10330191433E+03  0.00000000000E+00 0.  1.
         11    1    3    3    0    0 -0.68554047178E+01 -0.99979549933E+02 -0.10686631499E+03  0.14650363906E+03  0.00000000000E+00 0. -1.
<mgrwt>
<rscale>  0 0.16867593E+03</rscale>
<asrwt>0</asrwt>
<pdfrwt beam="2">  1        2 0.43954786E-01 0.17995929E+03</pdfrwt>
<pdfrwt beam="1">  1       -2 0.25101350E-01 0.17995929E+03</pdfrwt>
<totfact> 0.16091238E+03</totfact>
</mgrwt>
</event>
<event>
 7    1  0.1154424E-005  0.2273062E+03  0.7546771E-02  0.1128550E+00
         -1   -1    0    0    0  501 -0.00000000000E+00  0.00000000000E+00  0.88471786674E+02  0.88471786674E+02  0.00000000000E+00 0.  1.
          1   -1    0    0  501    0  0.00000000000E+00 -0.00000000000E+00 -0.14600167103E+03  0.14600167103E+03  0.00000000000E+00 0. -1.
         23    2    1    2    0    0  0.15123204814E+02  0.12219072460E+02 -0.19708423432E+02  0.70961103515E+02  0.65337884892E+02 0.  0.
          5    1    1    2  502    0 -0.85248968633E+02 -0.59504689732E+01 -0.36214155762E+02  0.92931963347E+02  0.47000000000E+01 0. -1.
         -5    1    1    2    0  502  0.70125763819E+02 -0.62686034872E+01 -0.16073051578E+01  0.70580390837E+02  0.47000000000E+01 0.  1.
        -11    1    3    3    0    0  0.21820220795E+02 -0.21777262231E+02  0.53235272842E+00  0.30832686961E+02  0.00000000000E+00 0. -1.
         11    1    3    3    0    0 -0.66970159804E+01  0.33996334692E+02 -0.20240776160E+02  0.40128416553E+02  0.00000000000E+00 0.  1.
<mgrwt>
<rscale>  0 0.22730621E+03</rscale>
<asrwt>0</asrwt>
<pdfrwt beam="2">  1        1 0.22461796E-01 0.22730621E+03</pdfrwt>
<pdfrwt beam="1">  1       -1 0.13611044E-01 0.22730621E+03</pdfrwt>
<totfact> 0.80737083E+03</totfact>
</mgrwt>
</event>
<event>
 8    1  0.1154424E-005  0.1552883E+03  0.7546771E-02  0.1202308E+00
          1   -1    0    0  501    0  0.00000000000E+00  0.00000000000E+00  0.22567810129E+03  0.22567810129E+03  0.00000000000E+00 0. -1.
         -1   -1    0    0    0  501 -0.00000000000E+00 -0.00000000000E+00 -0.14303451648E+03  0.14303451648E+03  0.00000000000E+00 0.  1.
         23    2    1    2    0    0 -0.60237962700E+02 -0.69716773269E+02 -0.68222745392E+02  0.16961364295E+03  0.12500161703E+03 0.  0.
         23    2    1    2    0    0  0.60237962700E+02  0.69716773269E+02  0.15086633019E+03  0.19909897482E+03  0.91600827304E+02 0.  0.
          5    1    3    3  502    0 -0.70132305451E+02 -0.12988330827E+02 -0.83436333326E+02  0.10986786939E+03  0.47000000000E+01 0.  1.
         -5    1    3    3    0  502  0.98943427512E+01 -0.56728442442E+02  0.15213587934E+02  0.59745773559E+02  0.47000000000E+01 0.  1.
        -11    1    4    4    0    0 -0.51605369189E+01  0.42800873368E+02  0.10827814814E+03  0.11654485518E+03  0.00000000000E+00 0. -1.
         11    1    4    4    0    0  0.65398499619E+02  0.26915899900E+02  0.42588182050E+02  0.82554119644E+02  0.00000000000E+00 0.  1.
<mgrwt>
<rscale>  0 0.14851651E+03</rscale>
<asrwt>0</asrwt>
<pdfrwt beam="1">  1        1 0.34719708E-01 0.15528826E+03</pdfrwt>
<pdfrwt beam="2">  1       -1 0.22005310E-01 0.15528826E+03</pdfrwt>
<totfact> 0.21233222E+03</totfact>
</mgrwt>
</event>
<event>
 8    1  0.1154424E-005  0.1588499E+03  0.7546771E-02  0.1198142E+00
          2   -1    0    0  501    0  0.00000000000E+00  0.00000000000E+00  0.17266536020E+03  0.17266536020E+03  0.00000000000E+00 0. -1.
         -2   -1    0    0    0  501 -0.00000000000E+00 -0.00000000000E+00 -0.20193534797E+03  0.20193534797E+03  0.00000000000E+00 0.  1.
         23    2    1    2    0    0  0.97444147707E+02 -0.10601728755E+02 -0.13209175947E+03  0.20659508234E+03  0.12500214619E+03 0.  0.
         23    2    1    2    0    0 -0.97444147707E+02  0.10601728755E+02  0.10282177170E+03  0.16800562583E+03  0.89698467095E+02 0.  0.
          5    1    3    3  502    0  0.57741790293E+02 -0.67610009754E+02 -0.69163503928E+02  0.11274266291E+03  0.47000000000E+01 0. -1.
         -5    1    3    3    0  502  0.39702357414E+02  0.57008280999E+02 -0.62928255545E+02  0.93852419429E+02  0.47000000000E+01 0. -1.
        -11    1    4    4    0    0 -0.10188461481E+03  0.26587388095E+02  0.58004460535E+02  0.12021597807E+03  0.00000000000E+00 0.  1.
         11    1    4    4    0    0  0.44404671079E+01 -0.15985659340E+02  0.44817311162E+02  0.47789647754E+02  0.00000000000E+00 0. -1.
<mgrwt>
<rscale>  0 0.15191278E+03</rscale>
<asrwt>0</asrwt>
<pdfrwt beam="1">  1        2 0.26563902E-01 0.15884991E+03</pdfrwt>
<pdfrwt beam="2">  1       -2 0.31066976E-01 0.15884991E+03</pdfrwt>
<totfact> 0.18881851E+03</totfact>
</mgrwt>
</event>
<event>
 8    1  0.1154424E-005  0.1331565E+03  0.7546771E-02  0.1234175E+00
         -1   -1    0    0    0  501 -0.00000000000E+00  0.00000000000E+00  0.44933815409E+03  0.44933815409E+03  0.00000000000E+00 0.  1.
          1   -1    0    0  501    0  0.00000000000E+00 -0.00000000000E+00 -0.40008151633E+02  0.40008151633E+02  0.00000000000E+00 0. -1.
         23    2    1    2    0    0  0.45807020124E+02 -0.26457919314E+01  0.33484310792E+03  0.36034783257E+03  0.12500148083E+03 0.  0.
         23    2    1    2    0    0 -0.45807020124E+02  0.26457919314E+01  0.74486894539E+02  0.12899847315E+03  0.94799922524E+02 0.  0.
          5    1    3    3  502    0  0.32489595526E+02  0.45714693958E+02  0.28111706976E+03  0.28669548997E+03  0.47000000000E+01 0. -1.
         -5    1    3    3    0  502  0.13317424598E+02 -0.48360485890E+02  0.53726038160E+02  0.73652342595E+02  0.47000000000E+01 0. -1.
        -11    1    4    4    0    0 -0.21759315964E+02 -0.78410301880E+01  0.93679678367E+02  0.96492651143E+02  0.00000000000E+00 0.  1.
         11    1    4    4    0    0 -0.24047704161E+02  0.10486822119E+02 -0.19192783828E+02  0.32505822011E+02  0.00000000000E+00 0. -1.
<mgrwt>
<rscale>  0 0.12557394E+03</rscale>
<asrwt>0</asrwt>
<pdfrwt beam="2">  1        1 0.61551006E-02 0.13315650E+03</pdfrwt>
<pdfrwt beam="1">  1       -1 0.69128943E-01 0.13315650E+03</pdfrwt>
<totfact> 0.26471838E+03</totfact>
</mgrwt>
</event>
<event>
 8    1  0.1154424E-005  0.1746048E+03  0.7546771E-02  0.1179029E+00
         -1   -1    0    0    0  501 -0.00000000000E+00  0.00000000000E+00  0.44292792344E+02  0.44292792344E+02  0.00000000000E+00 0.  1.
          1   -1    0    0  501    0  0.00000000000E+00 -0.00000000000E+00 -0.64245289164E+03  0.64245289164E+03  0.00000000000E+00 0. -1.
         23    2    1    2    0    0  0.11165660950E+03  0.48928806170E+02 -0.23507174306E+03  0.29282340177E+03  0.12500237485E+03 0.  0.
         23    2    1    2    0    0 -0.11165660950E+03 -0.48928806170E+02 -0.36308835624E+03  0.39392228222E+03  0.92088997577E+02 0.  0.
          5    1    3    3  502    0 -0.19589316166E+02 -0.17026610239E+02 -0.49682448745E+02  0.56250177576E+02  0.47000000000E+01 0. -1.
         -5    1    3    3    0  502  0.13124592567E+03  0.65955416408E+02 -0.18538929432E+03  0.23657322419E+03  0.47000000000E+01 0. -1.
        -11    1    4    4    0    0 -0.10817472994E+03 -0.62133282757E+02 -0.35838994236E+03  0.37948078714E+03  0.00000000000E+00 0. -1.
         11    1    4    4    0    0 -0.34818795601E+01  0.13204476587E+02 -0.46984138817E+01  0.14441495082E+02  0.00000000000E+00 0.  1.
<mgrwt>
<rscale>  0 0.16887229E+03</rscale>
<asrwt>0</asrwt>
<pdfrwt beam="2">  1        1 0.98838903E-01 0.17460475E+03</pdfrwt>
<pdfrwt beam="1">  1       -1 0.68142760E-02 0.17460475E+03</pdfrwt>
<totfact> 0.34575765E+03</totfact>
</mgrwt>
</event>
<event>
 8    1  0.1154424E-005  0.2113213E+03  0.7546771E-02  0.1144247E+00
         -1   -1    0    0    0  501 -0.00000000000E+00  0.00000000000E+00  0.66914197866E+02  0.66914197866E+02  0.00000000000E+00 0.  1.
          1   -1    0    0  501    0  0.00000000000E+00 -0.00000000000E+00 -0.69323498150E+03  0.69323498150E+03  0.00000000000E+00 0. -1.
         23    2    1    2    0    0 -0.61425137161E+02  0.15893850172E+03 -0.19511597812E+03  0.28762293654E+03  0.12498885512E+03 0.  0.
         23    2    1    2    0    0  0.61425137161E+02 -0.15893850172E+03 -0.43120480551E+03  0.47252624282E+03  0.91153557554E+02 0.  0.
          5    1    3    3  502    0  0.29176477628E+02  0.80157880764E+02 -0.49139950897E+02  0.98556468430E+02  0.47000000000E+01 0. -1.
         -5    1    3    3    0  502 -0.90601614790E+02  0.78780620953E+02 -0.14597602722E+03  0.18906646811E+03  0.47000000000E+01 0. -1.
        -11    1    4    4    0    0  0.20190685241E+02 -0.49204577552E+02 -0.25770854816E+03  0.26313960176E+03  0.00000000000E+00 0. -1.
         11    1    4    4    0    0  0.41234451920E+02 -0.10973392416E+03 -0.17349625736E+03  0.20938664106E+03  0.00000000000E+00 0.  1.
<mgrwt>
<rscale>  0 0.20664949E+03</rscale>
<asrwt>0</asrwt>
<pdfrwt beam="2">  1        1 0.10665154E+00 0.21132134E+03</pdfrwt>
<pdfrwt beam="1">  1       -1 0.10294491E-01 0.21132134E+03</pdfrwt>
<totfact> 0.16606195E+03</totfact>
</mgrwt>
</event>
<event>
 8    1  0.1154424E-005  0.2142297E+03  0.7546771E-02  0.1141889E+00
          1   -1    0    0  501    0  0.00000000000E+00  0.00000000000E+00  0.48087027637E+03  0.48087027637E+03  0.00000000000E+00 0. -1.
         -1   -1    0    0    0  501 -0.00000000000E+00 -0.00000000000E+00 -0.17250777281E+03  0.17250777281E+03  0.00000000000E+00 0.  1.
         23    2    1    2    0    0 -0.16563588032E+03  0.53229020273E+02 -0.71464230891E+02  0.22583507582E+03  0.12500308687E+03 0.  0.
         23    2    1    2    0    0  0.16563588032E+03 -0.53229020273E+02  0.37982673445E+03  0.42754297336E+03  0.90862932043E+02 0.  0.
          5    1    3    3  502    0 -0.30652295373E+02  0.42476649398E+02 -0.73438594504E+02  0.90327991888E+02  0.47000000000E+01 0. -1.
         -5    1    3    3    0  502 -0.13498358495E+03  0.10752370875E+02  0.19743636132E+01  0.13550708394E+03  0.47000000000E+01 0. -1.
        -11    1    4    4    0    0  0.83974721273E+02 -0.41949148691E+02  0.29363935418E+03  0.30827837292E+03  0.00000000000E+00 0. -1.
         11    1    4    4    0    0  0.81661159049E+02 -0.11279871582E+02  0.86187380268E+02  0.11926460044E+03  0.00000000000E+00 0.  1.
<mgrwt>
<rscale>  0 0.20959312E+03</rscale>
<asrwt>0</asrwt>
<pdfrwt beam="1">  1        1 0.73980042E-01 0.21422966E+03</pdfrwt>
<pdfrwt beam="2">  1       -1 0.26539658E-01 0.21422966E+03</pdfrwt>
<totfact> 0.60271934E+02</totfact>
</mgrwt>
</event>
<event>
 8    1  0.1154424E-005  0.1309632E+03  0.7546771E-02  0.1239710E+00
          1   -1    0    0  501    0  0.00000000000E+00  0.00000000000E+00  0.26915460939E+03  0.26915460939E+03  0.00000000000E+00 0. -1.
         -1   -1    0    0    0  501 -0.00000000000E+00 -0.00000000000E+00 -0.49997906722E+02  0.49997906722E+02  0.00000000000E+00 0.  1.
         23    2    1    2    0    0  0.33335308680E+02  0.20384516526E+02  0.14617006458E+03  0.19625763458E+03  0.12499840013E+03 0.  0.
         23    2    1    2    0    0 -0.33335308680E+02 -0.20384516526E+02  0.72986638092E+02  0.12289488153E+03  0.90825829185E+02 0.  0.
          5    1    3    3  502    0 -0.15433113252E+02  0.20539782080E+02 -0.13386052249E+02  0.29348594981E+02  0.47000000000E+01 0.  1.
         -5    1    3    3    0  502  0.48768421932E+02 -0.15526555416E+00  0.15955611682E+03  0.16690903960E+03  0.47000000000E+01 0.  1.
        -11    1    4    4    0    0 -0.25338169668E+02  0.28381537254E+02  0.43146245190E+01  0.38290344524E+02  0.00000000000E+00 0.  1.
         11    1    4    4    0    0 -0.79971390117E+01 -0.48766053779E+02  0.68672013573E+02  0.84604537004E+02  0.00000000000E+00 0. -1.
<mgrwt>
<rscale>  0 0.12207670E+03</rscale>
<asrwt>0</asrwt>
<pdfrwt beam="1">  1        1 0.41408400E-01 0.13096324E+03</pdfrwt>
<pdfrwt beam="2">  1       -1 0.76919858E-02 0.13096324E+03</pdfrwt>
<totfact> 0.86902286E+03</totfact>
</mgrwt>
</event>
<event>
 8    1  0.1154424E-005  0.1609605E+03  0.7546771E-02  0.1191609E+00
         -1   -1    0    0    0  501 -0.00000000000E+00  0.00000000000E+00  0.26721840876E+02  0.26721840876E+02  0.00000000000E+00 0.  1.
          1   -1    0    0  501    0  0.00000000000E+00 -0.00000000000E+00 -0.10728090178E+04  0.10728090178E+04  0.00000000000E+00 0. -1.
         23    2    1    2    0    0  0.79561196675E+02  0.62878029623E+02 -0.31501806807E+03  0.35375791884E+03  0.12499860520E+03 0.  0.
         23    2    1    2    0    0 -0.79561196675E+02 -0.62878029623E+02 -0.73106910889E+03  0.74577293988E+03  0.10691868525E+03 0.  0.
          5    1    3    3  502    0  0.20120304187E+02  0.90148892077E+02 -0.15038110663E+03  0.17654522541E+03  0.47000000000E+01 0.  1.
         -5    1    3    3    0  502  0.59440892488E+02 -0.27270862454E+02 -0.16463696145E+03  0.17721269343E+03  0.47000000000E+01 0.  1.
        -11    1    4    4    0    0 -0.95311543601E+02 -0.18704884232E+02 -0.56146712274E+03  0.56980653994E+03  0.00000000000E+00 0. -1.
         11    1    4    4    0    0  0.15750346926E+02 -0.44173145391E+02 -0.16960198615E+03  0.17596639994E+03  0.00000000000E+00 0.  1.
<mgrwt>
<rscale>  0 0.15744724E+03</rscale>
<asrwt>0</asrwt>
<pdfrwt beam="2">  1        1 0.16504755E+00 0.16096050E+03</pdfrwt>
<pdfrwt beam="1">  1       -1 0.41110522E-02 0.16096050E+03</pdfrwt>
<totfact> 0.32962214E+03</totfact>
</mgrwt>
</event>
<event>
 8    1  0.1154424E-005  0.1676263E+03  0.7546771E-02  0.1187049E+00
          1   -1    0    0  501    0  0.00000000000E+00  0.00000000000E+00  0.69304082602E+02  0.69304082602E+02  0.00000000000E+00 0. -1.
         -1   -1    0    0    0  501 -0.00000000000E+00 -0.00000000000E+00 -0.37220102194E+03  0.37220102194E+03  0.00000000000E+00 0.  1.
         23    2    1    2    0    0  0.96543397837E+02  0.56159394645E+02 -0.21463615729E+03  0.27233665302E+03  0.12499626909E+03 0.  0.
         23    2    1    2    0    0 -0.96543397837E+02 -0.56159394645E+02 -0.88260782042E+02  0.16916845152E+03  0.91397451114E+02 0.  0.
          5    1    3    3  502    0  0.30703039219E+02  0.79325921586E+02 -0.65000007602E+02  0.10715581851E+03  0.47000000000E+01 0. -1.
         -5    1    3    3    0  502  0.65840358618E+02 -0.23166526942E+02 -0.14963614969E+03  0.16518083451E+03  0.47000000000E+01 0. -1.
        -11    1    4    4    0    0 -0.60122565033E+02 -0.59982245784E+02 -0.99543223090E+02  0.13084894306E+03  0.00000000000E+00 0.  1.
         11    1    4    4    0    0 -0.36420832804E+02  0.38228511392E+01  0.11282441048E+02  0.38319508465E+02  0.00000000000E+00 0. -1.
<mgrwt>
<rscale>  0 0.16146840E+03</rscale>
<asrwt>0</asrwt>
<pdfrwt beam="1">  1        1 0.10662167E-01 0.16762629E+03</pdfrwt>
<pdfrwt beam="2">  1       -1 0.57261695E-01 0.16762629E+03</pdfrwt>
<totfact> 0.18374151E+03</totfact>
</mgrwt>
</event>
<event>
 8    1  0.1154424E-005  0.1452455E+03  0.7546771E-02  0.1214658E+00
         -3   -1    0    0    0  501 -0.00000000000E+00  0.00000000000E+00  0.13407758731E+03  0.13407758731E+03  0.00000000000E+00 0.  1.
          3   -1    0    0  501    0  0.00000000000E+00 -0.00000000000E+00 -0.15211178929E+03  0.15211178929E+03  0.00000000000E+00 0. -1.
         23    2    1    2    0    0 -0.68836577783E+02  0.27047760246E+02  0.40768008412E+02  0.15085852583E+03  0.12500483402E+03 0.  0.
         23    2    1    2    0    0  0.68836577783E+02 -0.27047760246E+02 -0.58802210391E+02  0.13533085078E+03  0.96884897945E+02 0.  0.
          5    1    3    3  502    0 -0.63021802406E+02 -0.83337062262E+00 -0.33247106645E+02  0.71413599442E+02  0.47000000000E+01 0. -1.
         -5    1    3    3    0  502 -0.58147753777E+01  0.27881130869E+02  0.74015115056E+02  0.79444926383E+02  0.47000000000E+01 0. -1.
        -11    1    4    4    0    0  0.65760561068E+01 -0.24319725383E+02  0.21890082105E+02  0.33374679792E+02  0.00000000000E+00 0.  1.
         11    1    4    4    0    0  0.62260521676E+02 -0.27280348629E+01 -0.80692292496E+02  0.10195617098E+03  0.00000000000E+00 0. -1.
<mgrwt>
<rscale>  0 0.13901688E+03</rscale>
<asrwt>0</asrwt>
<pdfrwt beam="2">  1        3 0.23401814E-01 0.14524553E+03</pdfrwt>
<pdfrwt beam="1">  1       -3 0.20627321E-01 0.14524553E+03</pdfrwt>
<totfact> 0.83942406E+02</totfact>
</mgrwt>
</event>
<event>
 8    1  0.1154424E-005  0.1790456E+03  0.7546771E-02  0.1174027E+00
         -2   -1    0    0    0  501 -0.00000000000E+00  0.00000000000E+00  0.30084655601E+02  0.30084655601E+02  0.00000000000E+00 0.  1.
          2   -1    0    0  501    0  0.00000000000E+00 -0.00000000000E+00 -0.99721132417E+03  0.99721132417E+03  0.00000000000E+00 0. -1.
         23    2    1    2    0    0  0.12511794709E+03  0.27890273437E+02 -0.62554374640E+03  0.65066298165E+03  0.12499987600E+03 0.  0.
         23    2    1    2    0    0 -0.12511794709E+03 -0.27890273437E+02 -0.34158292218E+03  0.37663299812E+03  0.93494141601E+02 0.  0.
          5    1    3    3  502    0  0.14656590323E+02  0.41226815996E+02 -0.60861901822E+02  0.75104774085E+02  0.47000000000E+01 0.  1.
         -5    1    3    3    0  502  0.11046135677E+03 -0.13336542558E+02 -0.56468184457E+03  0.57555820757E+03  0.47000000000E+01 0.  1.
        -11    1    4    4    0    0 -0.13402815278E+03 -0.57493066399E+01 -0.30120848061E+03  0.32973193515E+03  0.00000000000E+00 0. -1.
         11    1    4    4    0    0  0.89102056897E+01 -0.22140966797E+02 -0.40374441563E+02  0.46901062970E+02  0.00000000000E+00 0.  1.
<mgrwt>
<rscale>  0 0.17371639E+03</rscale>
<asrwt>0</asrwt>
<pdfrwt beam="2">  1        2 0.15341712E+00 0.17904563E+03</pdfrwt>
<pdfrwt beam="1">  1       -2 0.46284088E-02 0.17904563E+03</pdfrwt>
<totfact> 0.57155346E+03</totfact>
</mgrwt>
</event>
<event>
 8    1  0.1154424E-005  0.1291625E+03  0.7546771E-02  0.1242704E+00
          1   -1    0    0  501    0  0.00000000000E+00  0.00000000000E+00  0.29195193613E+03  0.29195193613E+03  0.00000000000E+00 0. -1.
         -1   -1    0    0    0  501 -0.00000000000E+00 -0.00000000000E+00 -0.45985098568E+02  0.45985098568E+02  0.00000000000E+00 0.  1.
         23    2    1    2    0    0  0.16355478586E+02 -0.28105174316E+02  0.10315589850E+03  0.16530002154E+03  0.12500222087E+03 0.  0.
         23    2    1    2    0    0 -0.16355478586E+02  0.28105174316E+02  0.14281093906E+03  0.17263701316E+03  0.91384744317E+02 0.  0.
          5    1    3    3  502    0  0.28241820018E+02  0.23826827756E+02  0.10538279929E+03  0.11177183234E+03  0.47000000000E+01 0.  1.
         -5    1    3    3    0  502 -0.11886341432E+02 -0.51932002072E+02 -0.22269007872E+01  0.53528189199E+02  0.47000000000E+01 0.  1.
        -11    1    4    4    0    0  0.26689881090E+02  0.30824486710E+02  0.11320090942E+03  0.12032017548E+03  0.00000000000E+00 0. -1.
         11    1    4    4    0    0 -0.43045359677E+02 -0.27193123934E+01  0.29610029640E+02  0.52316837680E+02  0.00000000000E+00 0.  1.
<mgrwt>
<rscale>  0 0.12023831E+03</rscale>
<asrwt>0</asrwt>
<pdfrwt beam="1">  1        1 0.44915681E-01 0.12916252E+03</pdfrwt>
<pdfrwt beam="2">  1       -1 0.70746307E-02 0.12916252E+03</pdfrwt>
<totfact> 0.89031484E+03</totfact>
</mgrwt>
</event>
<event>
 8    1  0.1154424E-005  0.1666742E+03  0.7546771E-02  0.1188592E+00
          2   -1    0    0  501    0  0.00000000000E+00  0.00000000000E+00  0.55596064532E+03  0.55596064532E+03  0.00000000000E+00 0. -1.
         -2   -1    0    0    0  501 -0.00000000000E+00 -0.00000000000E+00 -0.44435116761E+02  0.44435116761E+02  0.00000000000E+00 0.  1.
         23    2    1    2    0    0  0.10337082449E+03 -0.38386370553E+02  0.33283740195E+03  0.37223788224E+03  0.12498505526E+03 0.  0.
         23    2    1    2    0    0 -0.10337082449E+03  0.38386370553E+02  0.17868812661E+03  0.22815787984E+03  0.89261025889E+02 0.  0.
          5    1    3    3  502    0 -0.18205570999E+02 -0.40852862576E+02  0.88015746775E+02  0.98839571410E+02  0.47000000000E+01 0.  1.
         -5    1    3    3    0  502  0.12157639549E+03  0.24664920231E+01  0.24482165517E+03  0.27339831083E+03  0.47000000000E+01 0.  1.
        -11    1    4    4    0    0 -0.95365932227E+02 -0.71497657654E+01  0.12027688293E+03  0.15366297129E+03  0.00000000000E+00 0.  1.
         11    1    4    4    0    0 -0.80048922595E+01  0.45536136318E+02  0.58411243682E+02  0.74494908547E+02  0.00000000000E+00 0. -1.
<mgrwt>
<rscale>  0 0.16009310E+03</rscale>
<asrwt>0</asrwt>
<pdfrwt beam="1">  1        2 0.85532402E-01 0.16667425E+03</pdfrwt>
<pdfrwt beam="2">  1       -2 0.68361722E-02 0.16667425E+03</pdfrwt>
<totfact> 0.64810333E+03</totfact>
</mgrwt>
</event>
<event>
 8    1  0.1154424E-005  0.1303200E+03  0.7546771E-02  0.1243877E+00
         -1   -1    0    0    0  501 -0.00000000000E+00  0.00000000000E+00  0.93621365580E+02  0.93621365580E+02  0.00000000000E+00 0.  1.
          1   -1    0    0  501    0  0.00000000000E+00 -0.00000000000E+00 -0.14195215848E+03  0.14195215848E+03  0.00000000000E+00 0. -1.
         23    2    1    2    0    0  0.36480118894E+02 -0.59857862040E+01  0.23482026930E+01  0.13034110968E+03  0.12496664398E+03 0.  0.
         23    2    1    2    0    0 -0.36480118894E+02  0.59857862040E+01 -0.50678995592E+02  0.10523241438E+03  0.84491844165E+02 0.  0.
          5    1    3    3  502    0  0.26360875819E+02  0.57600471920E+02 -0.10871656093E+02  0.64443719985E+02  0.47000000000E+01 0.  1.
         -5    1    3    3    0  502  0.10119243076E+02 -0.63586258124E+02  0.13219858786E+02  0.65897389698E+02  0.47000000000E+01 0.  1.
        -11    1    4    4    0    0 -0.62561735559E+01  0.23284972700E+02  0.16738747539E+02  0.29351581394E+02  0.00000000000E+00 0.  1.
         11    1    4    4    0    0 -0.30223945338E+02 -0.17299186496E+02 -0.67417743131E+02  0.75880832982E+02  0.00000000000E+00 0. -1.
<mgrwt>
<rscale>  0 0.11952828E+03</rscale>
<asrwt>0</asrwt>
<pdfrwt beam="2">  1        1 0.21838793E-01 0.13031996E+03</pdfrwt>
<pdfrwt beam="1">  1       -1 0.14403287E-01 0.13031996E+03</pdfrwt>
<totfact> 0.73762199E+03</totfact>
</mgrwt>
</event>
<event>
 8    1  0.1154424E-005  0.1462434E+03  0.7546771E-02  0.1215164E+00
          2   -1    0    0  501    0  0.00000000000E+00  0.00000000000E+00  0.49599772685E+03  0.49599772685E+03  0.00000000000E+00 0. -1.
         -2   -1    0    0    0  501 -0.00000000000E+00 -0.00000000000E+00 -0.36092237245E+02  0.36092237245E+02  0.00000000000E+00 0.  1.
         23    2    1    2    0    0  0.57028410785E+02 -0.50115235861E+02  0.29469006345E+03  0.32898232902E+03  0.12499345106E+03 0.  0.
         23    2    1    2    0    0 -0.57028410785E+02  0.50115235861E+02  0.16521542615E+03  0.20310763507E+03  0.90514075612E+02 0.  0.
          5    1    3    3  502    0  0.41721094738E+02 -0.39181915423E+02  0.30262980702E+03  0.30803045683E+03  0.47000000000E+01 0.  1.
         -5    1    3    3    0  502  0.15307316048E+02 -0.10933320438E+02 -0.79397435630E+01  0.20951872189E+02  0.47000000000E+01 0.  1.
        -11    1    4    4    0    0 -0.24537979015E+01  0.30615098974E+02  0.30104841998E+01  0.30860467016E+02  0.00000000000E+00 0.  1.
         11    1    4    4    0    0 -0.54574612884E+02  0.19500136887E+02  0.16220494195E+03  0.17224716805E+03  0.00000000000E+00 0. -1.
<mgrwt>
<rscale>  0 0.13864513E+03</rscale>
<asrwt>0</asrwt>
<pdfrwt beam="1">  1        2 0.76307338E-01 0.14624342E+03</pdfrwt>
<pdfrwt beam="2">  1       -2 0.55526522E-02 0.14624342E+03</pdfrwt>
<totfact> 0.10024680E+04</totfact>
</mgrwt>
</event>
<event>
 8    1  0.1154424E-005  0.1443554E+03  0.7546771E-02  0.1218283E+00
         -2   -1    0    0    0  501 -0.00000000000E+00  0.00000000000E+00  0.68590197157E+02  0.68590197157E+02  0.00000000000E+00 0.  1.
          2   -1    0    0  501    0  0.00000000000E+00 -0.00000000000E+00 -0.25999573886E+03  0.25999573886E+03  0.00000000000E+00 0. -1.
         23    2    1    2    0    0 -0.64082933745E+02 -0.33281253958E+02 -0.66935342106E+02  0.15911891189E+03  0.12499689531E+03 0.  0.
         23    2    1    2    0    0  0.64082933745E+02  0.33281253958E+02 -0.12447019960E+03  0.16946702413E+03  0.89509649843E+02 0.  0.
          5    1    3    3  502    0  0.27307253869E+02 -0.21091134093E+02 -0.56286487631E+02  0.66187466646E+02  0.47000000000E+01 0. -1.
         -5    1    3    3    0  502 -0.91390187614E+02 -0.12190119865E+02 -0.10648854475E+02  0.92931445249E+02  0.47000000000E+01 0. -1.
        -11    1    4    4    0    0  0.28064934226E+02  0.29411555730E+02 -0.86449285691E+00  0.40662359640E+02  0.00000000000E+00 0.  1.
         11    1    4    4    0    0  0.36017999519E+02  0.38696982286E+01 -0.12360570675E+03  0.12880466449E+03  0.00000000000E+00 0. -1.
<mgrwt>
<rscale>  0 0.13638116E+03</rscale>
<asrwt>0</asrwt>
<pdfrwt beam="2">  1        2 0.39999344E-01 0.14435542E+03</pdfrwt>
<pdfrwt beam="1">  1       -2 0.10552338E-01 0.14435542E+03</pdfrwt>
<totfact> 0.74233809E+03</totfact>
</mgrwt>
</event>
<event>
 8    1  0.1154424E-005  0.2778268E+03  0.7546771E-02  0.1098798E+00
         -2   -1    0    0    0  501 -0.00000000000E+00  0.00000000000E+00  0.86734404735E+02  0.86734404735E+02  0.00000000000E+00 0.  1.
          2   -1    0    0  501    0  0.00000000000E+00 -0.00000000000E+00 -0.84793924924E+03  0.84793924924E+03  0.00000000000E+00 0. -1.
         23    2    1    2    0    0  0.29698424277E+01 -0.24811017165E+03 -0.37558051597E+03  0.46717066904E+03  0.12498092972E+03 0.  0.
         23    2    1    2    0    0 -0.29698424277E+01  0.24811017165E+03 -0.38562432853E+03  0.46750298494E+03  0.91024397417E+02 0.  0.
          5    1    3    3  502    0  0.46437412002E+02 -0.85117676295E+02 -0.75830189871E+02  0.12318181581E+03  0.47000000000E+01 0. -1.
         -5    1    3    3    0  502 -0.43467569575E+02 -0.16299249536E+03 -0.29975032610E+03  0.34398885323E+03  0.47000000000E+01 0. -1.
        -11    1    4    4    0    0  0.38112440055E+02  0.92347993246E+02 -0.18458195719E+03  0.20988379847E+03  0.00000000000E+00 0. -1.
         11    1    4    4    0    0 -0.41082282482E+02  0.15576217840E+03 -0.20104237135E+03  0.25761918646E+03  0.00000000000E+00 0.  1.
<mgrwt>
<rscale>  0 0.27438074E+03</rscale>
<asrwt>0</asrwt>
<pdfrwt beam="2">  1        2 0.13045220E+00 0.27782676E+03</pdfrwt>
<pdfrwt beam="1">  1       -2 0.13343754E-01 0.27782676E+03</pdfrwt>
<totfact> 0.13674236E+03</totfact>
</mgrwt>
</event>
<event>
 8    1  0.1154424E-005  0.1268841E+03  0.7546771E-02  0.1245654E+00
          1   -1    0    0  501    0  0.00000000000E+00  0.00000000000E+00  0.43637460464E+03  0.43637460464E+03  0.00000000000E+00 0. -1.
         -1   -1    0    0    0  501 -0.00000000000E+00 -0.00000000000E+00 -0.35319717706E+02  0.35319717706E+02  0.00000000000E+00 0.  1.
         23    2    1    2    0    0 -0.27837799758E+01 -0.21598466418E+02  0.12029922005E+03  0.17484700219E+03  0.12500131459E+03 0.  0.
         23    2    1    2    0    0  0.27837799758E+01  0.21598466418E+02  0.28075566689E+03  0.29684732015E+03  0.93916685472E+02 0.  0.
          5    1    3    3  502    0 -0.15762805141E+02  0.38333022063E+02  0.22925738188E+01  0.41775979954E+02  0.47000000000E+01 0. -1.
         -5    1    3    3    0  502  0.12979025165E+02 -0.59931488481E+02  0.11800664623E+03  0.13307102224E+03  0.47000000000E+01 0. -1.
        -11    1    4    4    0    0  0.52126448891E+01  0.55149674650E+02  0.22509555900E+03  0.23181171015E+03  0.00000000000E+00 0. -1.
         11    1    4    4    0    0 -0.24288649134E+01 -0.33551208232E+02  0.55660107890E+02  0.65035610006E+02  0.00000000000E+00 0.  1.
<mgrwt>
<rscale>  0 0.11846338E+03</rscale>
<asrwt>0</asrwt>
<pdfrwt beam="1">  1        1 0.67134551E-01 0.12688409E+03</pdfrwt>
<pdfrwt beam="2">  1       -1 0.54338030E-02 0.12688409E+03</pdfrwt>
<totfact> 0.79754023E+03</totfact>
</mgrwt>
</event>
<event>
 8    1  0.1154424E-005  0.1396644E+03  0.7546771E-02  0.1224054E+00
         -2   -1    0    0    0  501 -0.00000000000E+00  0.00000000000E+00  0.47998539734E+02  0.47998539734E+02  0.00000000000E+00 0.  1.
          2   -1    0    0  501    0  0.00000000000E+00 -0.00000000000E+00 -0.33138124692E+03  0.33138124692E+03  0.00000000000E+00 0. -1.
         23    2    1    2    0    0  0.26144842455E+02  0.56555464108E+02 -0.16072201448E+03  0.21292653120E+03  0.12499627371E+03 0.  0.
         23    2    1    2    0    0 -0.26144842455E+02 -0.56555464108E+02 -0.12266069270E+03  0.16645325545E+03  0.93696144049E+02 0.  0.
          5    1    3    3  502    0  0.69297980442E+02  0.93326686996E+01 -0.54246611275E+02  0.88623324431E+02  0.47000000000E+01 0.  1.
         -5    1    3    3    0  502 -0.43153137988E+02  0.47222795409E+02 -0.10647540321E+03  0.12430320677E+03  0.47000000000E+01 0.  1.
        -11    1    4    4    0    0 -0.52129197026E+01 -0.70519127295E+02 -0.42647278730E+02  0.82576705125E+02  0.00000000000E+00 0.  1.
         11    1    4    4    0    0 -0.20931922752E+02  0.13963663186E+02 -0.80013413971E+02  0.83876550329E+02  0.00000000000E+00 0. -1.
<mgrwt>
<rscale>  0 0.13231922E+03</rscale>
<asrwt>0</asrwt>
<pdfrwt beam="2">  1        2 0.50981731E-01 0.13966439E+03</pdfrwt>
<pdfrwt beam="1">  1       -2 0.73843907E-02 0.13966439E+03</pdfrwt>
<totfact> 0.99830352E+03</totfact>
</mgrwt>
</event>
<event>
 6    1  0.1154424E-005  0.2768624E+03  0.7546771E-02  0.1164939E+00
         -3   -1    0    0    0  501 -0.00000000000E+00  0.00000000000E+00  0.24621948318E+02  0.24621948318E+02  0.00000000000E+00 0.  1.
          3   -1    0    0  501    0  0.00000000000E+00 -0.00000000000E+00 -0.11213182209E+04  0.11213182209E+04  0.00000000000E+00 0. -1.
          5    1    1    2  502    0 -0.12489467436E+03 -0.80401763752E+02 -0.41137579871E+03  0.43739600028E+03  0.47000000000E+01 0. -1.
         -5    1    1    2    0  502  0.12273401256E+03  0.29193799539E+02 -0.45067296432E+03  0.46802150222E+03  0.47000000000E+01 0.  1.
        -11    1    1    2    0    0 -0.30086593766E+01  0.39017388395E+02 -0.18814724141E+03  0.19217386159E+03  0.00000000000E+00 0.  1.
         11    1    1    2    0    0  0.51693211757E+01  0.12190575817E+02 -0.46500268176E+02  0.48348805162E+02  0.00000000000E+00 0. -1.
<mgrwt>
<rscale>  0 0.18299177E+03</rscale>
<asrwt>0</asrwt>
<pdfrwt beam="2">  1        3 0.17251046E+00 0.27686239E+03</pdfrwt>
<pdfrwt beam="1">  1       -3 0.37879928E-02 0.27686239E+03</pdfrwt>
<totfact> 0.21395988E+02</totfact>
</mgrwt>
</event>
<event>
 8    1  0.1154424E-005  0.1348468E+03  0.7546771E-02  0.1233369E+00
          1   -1    0    0  501    0  0.00000000000E+00  0.00000000000E+00  0.31041554615E+02  0.31041554615E+02  0.00000000000E+00 0. -1.
         -1   -1    0    0    0  501 -0.00000000000E+00 -0.00000000000E+00 -0.45613802447E+03  0.45613802447E+03  0.00000000000E+00 0.  1.
         23    2    1    2    0    0  0.26131449010E+02 -0.43327056666E+02 -0.23655730335E+03  0.27229214902E+03  0.12499428059E+03 0.  0.
         23    2    1    2    0    0 -0.26131449010E+02  0.43327056666E+02 -0.18853916650E+03  0.21488743006E+03  0.89830417051E+02 0.  0.
          5    1    3    3  502    0  0.74608743903E+01 -0.61738178693E+02 -0.23758423231E+03  0.24563311014E+03  0.47000000000E+01 0.  1.
         -5    1    3    3    0  502  0.18670574620E+02  0.18411122027E+02  0.10269289560E+01  0.26659038880E+02  0.47000000000E+01 0.  1.
        -11    1    4    4    0    0  0.28288315713E+02  0.38302189157E+02 -0.10148440428E+03  0.11209982521E+03  0.00000000000E+00 0. -1.
         11    1    4    4    0    0 -0.54419764724E+02  0.50248675090E+01 -0.87054762221E+02  0.10278760485E+03  0.00000000000E+00 0.  1.
<mgrwt>
<rscale>  0 0.12609417E+03</rscale>
<asrwt>0</asrwt>
<pdfrwt beam="1">  1        1 0.47756238E-02 0.13484679E+03</pdfrwt>
<pdfrwt beam="2">  1       -1 0.70175080E-01 0.13484679E+03</pdfrwt>
<totfact> 0.36339592E+03</totfact>
</mgrwt>
</event>
<event>
 8    1  0.1154424E-005  0.1250080E+03  0.7546771E-02  0.1249704E+00
          2   -1    0    0  501    0  0.00000000000E+00  0.00000000000E+00  0.29985895297E+03  0.29985895297E+03  0.00000000000E+00 0. -1.
         -2   -1    0    0    0  501 -0.00000000000E+00 -0.00000000000E+00 -0.51800617946E+02  0.51800617946E+02  0.00000000000E+00 0.  1.
         23    2    1    2    0    0  0.16370984764E+01  0.19535132140E+00  0.53375469437E+02  0.13592627797E+03  0.12499717618E+03 0.  0.
         23    2    1    2    0    0 -0.16370984764E+01 -0.19535132140E+00  0.19468286559E+03  0.21573329295E+03  0.92933940401E+02 0.  0.
          5    1    3    3  502    0 -0.38677423847E+02 -0.46650937718E+02  0.13617654180E+02  0.62287909026E+02  0.47000000000E+01 0. -1.
         -5    1    3    3    0  502  0.40314522324E+02  0.46846289039E+02  0.39757815256E+02  0.73638368945E+02  0.47000000000E+01 0. -1.
        -11    1    4    4    0    0  0.12949642517E+02  0.43630638468E+02  0.79031615476E+02  0.91199353612E+02  0.00000000000E+00 0. -1.
         11    1    4    4    0    0 -0.14586740993E+02 -0.43825989789E+02  0.11565125011E+03  0.12453393933E+03  0.00000000000E+00 0.  1.
<mgrwt>
<rscale>  0 0.11608181E+03</rscale>
<asrwt>0</asrwt>
<pdfrwt beam="1">  1        2 0.46132146E-01 0.12500805E+03</pdfrwt>
<pdfrwt beam="2">  1       -2 0.79693260E-02 0.12500805E+03</pdfrwt>
<totfact> 0.97879042E+03</totfact>
</mgrwt>
</event>
<event>
 8    1  0.1154424E-005  0.1750391E+03  0.7546771E-02  0.1179814E+00
          1   -1    0    0  501    0  0.00000000000E+00  0.00000000000E+00  0.33853428264E+03  0.33853428264E+03  0.00000000000E+00 0. -1.
         -1   -1    0    0    0  501 -0.00000000000E+00 -0.00000000000E+00 -0.77588094688E+02  0.77588094688E+02  0.00000000000E+00 0.  1.
         23    2    1    2    0    0  0.11638852349E+03 -0.38323885923E+02  0.13556406149E+03  0.22139626555E+03  0.12499473190E+03 0.  0.
         23    2    1    2    0    0 -0.11638852349E+03  0.38323885923E+02  0.12538212646E+03  0.19472611177E+03  0.84750058041E+02 0.  0.
          5    1    3    3  502    0  0.16071143930E+02  0.64125646952E+01 -0.22554106373E+02  0.28812850735E+02  0.47000000000E+01 0.  1.
         -5    1    3    3    0  502  0.10031737956E+03 -0.44736450619E+02  0.15811816786E+03  0.19258341482E+03  0.47000000000E+01 0.  1.
        -11    1    4    4    0    0 -0.84814728000E+02  0.12891388458E+01  0.11826759592E+03  0.14554182976E+03  0.00000000000E+00 0. -1.
         11    1    4    4    0    0 -0.31573795488E+02  0.37034747078E+02  0.71145305453E+01  0.49184282017E+02  0.00000000000E+00 0.  1.
<mgrwt>
<rscale>  0 0.16812780E+03</rscale>
<asrwt>0</asrwt>
<pdfrwt beam="1">  1        1 0.52082197E-01 0.17503911E+03</pdfrwt>
<pdfrwt beam="2">  1       -1 0.11936630E-01 0.17503911E+03</pdfrwt>
<totfact> 0.33956858E+03</totfact>
</mgrwt>
</event>
<event>
 8    1  0.1154424E-005  0.1358671E+03  0.7546771E-02  0.1232442E+00
          1   -1    0    0  501    0  0.00000000000E+00  0.00000000000E+00  0.13372959810E+03  0.13372959810E+03  0.00000000000E+00 0. -1.
         -1   -1    0    0    0  501 -0.00000000000E+00 -0.00000000000E+00 -0.12401633803E+03  0.12401633803E+03  0.00000000000E+00 0.  1.
         23    2    1    2    0    0 -0.14788220784E+02 -0.51143062528E+02 -0.42694907106E+02  0.14241738188E+03  0.12500220498E+03 0.  0.
         23    2    1    2    0    0  0.14788220784E+02  0.51143062528E+02  0.52408167176E+02  0.11532855425E+03  0.87862137007E+02 0.  0.
          5    1    3    3  502    0 -0.40774992413E+02 -0.60166726300E+02 -0.71673855108E+02  0.10218545134E+03  0.47000000000E+01 0. -1.
         -5    1    3    3    0  502  0.25986771628E+02  0.90236637721E+01  0.28978948001E+02  0.40231930538E+02  0.47000000000E+01 0. -1.
        -11    1    4    4    0    0  0.10913643121E+01  0.75107459745E+02  0.37444976551E+02  0.83931209060E+02  0.00000000000E+00 0.  1.
         11    1    4    4    0    0  0.13696856472E+02 -0.23964397216E+02  0.14963190626E+02  0.31397345188E+02  0.00000000000E+00 0. -1.
<mgrwt>
<rscale>  0 0.12669604E+03</rscale>
<asrwt>0</asrwt>
<pdfrwt beam="1">  1        1 0.20573784E-01 0.13586705E+03</pdfrwt>
<pdfrwt beam="2">  1       -1 0.19079437E-01 0.13586705E+03</pdfrwt>
<totfact> 0.51178222E+03</totfact>
</mgrwt>
</event>
<event>
 8    1  0.3705665E-005  0.3979551E+03  0.7546771E-02  0.1045308E+00
         -1   -1    0    0    0  501 -0.00000000000E+00  0.00000000000E+00  0.48870705712E+02  0.48870705712E+02  0.00000000000E+00 0.  1.
          1   -1    0    0  501    0  0.00000000000E+00 -0.00000000000E+00 -0.32120224916E+04  0.32120224916E+04  0.00000000000E+00 0. -1.
         23    2    1    2    0    0  0.27355893321E+03 -0.26059208229E+03 -0.14037124302E+04  0.14590328543E+04  0.12500223949E+03 0.  0.
         23    2    1    2    0    0 -0.27355893321E+03  0.26059208229E+03 -0.17594393557E+04  0.18018603430E+04  0.91275002910E+02 0.  0.
          5    1    3    3  502    0  0.25541938122E+03 -0.19623723761E+03 -0.10247788453E+04  0.10742168708E+04  0.47000000000E+01 0.  1.
         -5    1    3    3    0  502  0.18139551992E+02 -0.64354844683E+02 -0.37893358489E+03  0.38481598348E+03  0.47000000000E+01 0.  1.
        -11    1    4    4    0    0 -0.56105393111E+02  0.79514344756E+02 -0.30500417402E+03  0.32015292022E+03  0.00000000000E+00 0.  1.
         11    1    4    4    0    0 -0.21745354010E+03  0.18107773753E+03 -0.14544351816E+04  0.14817074228E+04  0.00000000000E+00 0. -1.
<mgrwt>
<rscale>  0 0.39561636E+03</rscale>
<asrwt>0</asrwt>
<pdfrwt beam="2">  1        1 0.49415728E+00 0.39795513E+03</pdfrwt>
<pdfrwt beam="1">  1       -1 0.75185705E-02 0.39795513E+03</pdfrwt>
<totfact> 0.46651834E+01</totfact>
</mgrwt>
</event>
<event>
 8    1  0.1154424E-005  0.2439765E+03  0.7546771E-02  0.1119818E+00
          2   -1    0    0  501    0  0.00000000000E+00  0.00000000000E+00  0.63520395451E+03  0.63520395451E+03  0.00000000000E+00 0. -1.
         -2   -1    0    0    0  501 -0.00000000000E+00 -0.00000000000E+00 -0.10501251220E+03  0.10501251220E+03  0.00000000000E+00 0.  1.
         23    2    1    2    0    0  0.14499267540E+03  0.15124669435E+03  0.12262766602E+03  0.27306060687E+03  0.12500444824E+03 0.  0.
         23    2    1    2    0    0 -0.14499267540E+03 -0.15124669435E+03  0.40756377629E+03  0.46715585984E+03  0.90707922285E+02 0.  0.
          5    1    3    3  502    0  0.12555164277E+03  0.60189505619E+02  0.11291856459E+03  0.17932842446E+03  0.47000000000E+01 0. -1.
         -5    1    3    3    0  502  0.19441032629E+02  0.91057188736E+02  0.97091014321E+01  0.93732182418E+02  0.47000000000E+01 0. -1.
        -11    1    4    4    0    0 -0.10494302859E+03 -0.11128941681E+03  0.19866021372E+03  0.25072744975E+03  0.00000000000E+00 0.  1.
         11    1    4    4    0    0 -0.40049646809E+02 -0.39957277544E+02  0.20890356257E+03  0.21642841009E+03  0.00000000000E+00 0. -1.
<mgrwt>
<rscale>  0 0.23996242E+03</rscale>
<asrwt>0</asrwt>
<pdfrwt beam="1">  1        2 0.97723683E-01 0.24397654E+03</pdfrwt>
<pdfrwt beam="2">  1       -2 0.16155771E-01 0.24397654E+03</pdfrwt>
<totfact> 0.14249432E+03</totfact>
</mgrwt>
</event>
<event>
 8    1  0.1154424E-005  0.1952362E+03  0.7546771E-02  0.1158228E+00
         -2   -1    0    0    0  501 -0.00000000000E+00  0.00000000000E+00  0.96532916662E+02  0.96532916662E+02  0.00000000000E+00 0.  1.
          2   -1    0    0  501    0  0.00000000000E+00 -0.00000000000E+00 -0.36555597471E+03  0.36555597471E+03  0.00000000000E+00 0. -1.
         23    2    1    2    0    0  0.14029685054E+03 -0.52985603398E+02 -0.10611716107E+03  0.22221165083E+03  0.12500594167E+03 0.  0.
         23    2    1    2    0    0 -0.14029685054E+03  0.52985603398E+02 -0.16290589697E+03  0.23987724054E+03  0.92260927921E+02 0.  0.
          5    1    3    3  502    0  0.25380180205E+02 -0.21165581525E+02  0.27365784189E+02  0.43163775701E+02  0.47000000000E+01 0.  1.
         -5    1    3    3    0  502  0.11491667033E+03 -0.31820021873E+02 -0.13348294526E+03  0.17904787513E+03  0.47000000000E+01 0.  1.
        -11    1    4    4    0    0 -0.72237864732E+02  0.25123503860E+02 -0.19835196932E+02  0.79012243258E+02  0.00000000000E+00 0.  1.
         11    1    4    4    0    0 -0.68058985807E+02  0.27862099538E+02 -0.14307070004E+03  0.16086499728E+03  0.00000000000E+00 0. -1.
<mgrwt>
<rscale>  0 0.19025903E+03</rscale>
<asrwt>0</asrwt>
<pdfrwt beam="2">  1        2 0.56239380E-01 0.19523618E+03</pdfrwt>
<pdfrwt beam="1">  1       -2 0.14851218E-01 0.19523618E+03</pdfrwt>
<totfact> 0.30204159E+03</totfact>
</mgrwt>
</event>
<event>
 8    1  0.1154424E-005  0.2581643E+03  0.7546771E-02  0.1110579E+00
         -1   -1    0    0    0  501 -0.00000000000E+00  0.00000000000E+00  0.67519197238E+02  0.67519197238E+02  0.00000000000E+00 0.  1.
          1   -1    0    0  501    0  0.00000000000E+00 -0.00000000000E+00 -0.95712812192E+03  0.95712812192E+03  0.00000000000E+00 0. -1.
         23    2    1    2    0    0  0.15716445106E+03  0.16222908070E+03 -0.37308279852E+03  0.45369545883E+03  0.12501942052E+03 0.  0.
         23    2    1    2    0    0 -0.15716445106E+03 -0.16222908070E+03 -0.51652612616E+03  0.57095186033E+03  0.90376150103E+02 0.  0.
          5    1    3    3  502    0  0.56028264755E+02  0.86604855115E+02 -0.27494175020E+03  0.29369137438E+03  0.47000000000E+01 0.  1.
         -5    1    3    3    0  502  0.10113618630E+03  0.75624225585E+02 -0.98141048321E+02  0.16000408445E+03  0.47000000000E+01 0.  1.
        -11    1    4    4    0    0 -0.38242145579E+02 -0.23243332310E+02 -0.38183592261E+02  0.58827722319E+02  0.00000000000E+00 0.  1.
         11    1    4    4    0    0 -0.11892230548E+03 -0.13898574839E+03 -0.47834253390E+03  0.51212413801E+03  0.00000000000E+00 0. -1.
<mgrwt>
<rscale>  0 0.25436082E+03</rscale>
<asrwt>0</asrwt>
<pdfrwt beam="2">  1        1 0.14725047E+00 0.25816428E+03</pdfrwt>
<pdfrwt beam="1">  1       -1 0.10387570E-01 0.25816428E+03</pdfrwt>
<totfact> 0.99217273E+02</totfact>
</mgrwt>
</event>
<event>
 8    1  0.1154424E-005  0.2455615E+03  0.7546771E-02  0.1118480E+00
         -1   -1    0    0    0  501 -0.00000000000E+00  0.00000000000E+00  0.63655763032E+03  0.63655763032E+03  0.00000000000E+00 0.  1.
          1   -1    0    0  501    0  0.00000000000E+00 -0.00000000000E+00 -0.12720999603E+03  0.12720999603E+03  0.00000000000E+00 0. -1.
         23    2    1    2    0    0  0.12897553104E+03  0.16745111793E+03  0.46805885327E+03  0.52856367360E+03  0.12500360968E+03 0.  0.
         23    2    1    2    0    0 -0.12897553104E+03 -0.16745111793E+03  0.41288781032E+02  0.23520395275E+03  0.94559882866E+02 0.  0.
          5    1    3    3  502    0  0.15103285242E+03  0.14596371196E+03  0.36776760679E+03  0.42354625523E+03  0.47000000000E+01 0.  1.
         -5    1    3    3    0  502 -0.22057321379E+02  0.21487405964E+02  0.10029124648E+03  0.10501741837E+03  0.47000000000E+01 0.  1.
        -11    1    4    4    0    0 -0.14165516741E+03 -0.14794621393E+03  0.24019776419E+02  0.20623098295E+03  0.00000000000E+00 0. -1.
         11    1    4    4    0    0  0.12679636372E+02 -0.19504903995E+02  0.17269004613E+02  0.28972969795E+02  0.00000000000E+00 0.  1.
<mgrwt>
<rscale>  0 0.24198152E+03</rscale>
<asrwt>0</asrwt>
<pdfrwt beam="2">  1        1 0.19570769E-01 0.24556153E+03</pdfrwt>
<pdfrwt beam="1">  1       -1 0.97931941E-01 0.24556153E+03</pdfrwt>
<totfact> 0.27892832E+02</totfact>
</mgrwt>
</event>
<event>
 8    1  0.1154424E-005  0.1813964E+03  0.7546771E-02  0.1171977E+00
          1   -1    0    0  501    0  0.00000000000E+00  0.00000000000E+00  0.27976665868E+03  0.27976665868E+03  0.00000000000E+00 0. -1.
         -1   -1    0    0    0  501 -0.00000000000E+00 -0.00000000000E+00 -0.10409261747E+03  0.10409261747E+03  0.00000000000E+00 0.  1.
         23    2    1    2    0    0 -0.71233294364E+01 -0.13125469929E+03  0.96522339679E+02  0.20547802185E+03  0.12500446991E+03 0.  0.
         23    2    1    2    0    0  0.71233294364E+01  0.13125469929E+03  0.79151701524E+02  0.17838125430E+03  0.90974403670E+02 0.  0.
          5    1    3    3  502    0  0.55817777911E+01  0.24199884178E+02  0.15553865130E+02  0.29678331456E+02  0.47000000000E+01 0. -1.
         -5    1    3    3    0  502 -0.12705107228E+02 -0.15545458347E+03  0.80968474548E+02  0.17579969039E+03  0.47000000000E+01 0. -1.
        -11    1    4    4    0    0  0.19688074208E+02  0.11464174384E+03  0.96606174493E+02  0.15120549807E+03  0.00000000000E+00 0. -1.
         11    1    4    4    0    0 -0.12564744772E+02  0.16612955453E+02 -0.17454472969E+02  0.27175756230E+02  0.00000000000E+00 0.  1.
<mgrwt>
<rscale>  0 0.17575421E+03</rscale>
<asrwt>0</asrwt>
<pdfrwt beam="1">  1        1 0.43041024E-01 0.18139640E+03</pdfrwt>
<pdfrwt beam="2">  1       -1 0.16014249E-01 0.18139640E+03</pdfrwt>
<totfact> 0.27217770E+03</totfact>
</mgrwt>
</event>
<event>
 8    1  0.1154424E-005  0.1575253E+03  0.7546771E-02  0.1200086E+00
         -2   -1    0    0    0  501 -0.00000000000E+00  0.00000000000E+00  0.17725132479E+04  0.17725132479E+04  0.00000000000E+00 0.  1.
          2   -1    0    0  501    0  0.00000000000E+00 -0.00000000000E+00 -0.14314161533E+02  0.14314161533E+02  0.00000000000E+00 0. -1.
         23    2    1    2    0    0 -0.66283300832E+02 -0.69268768037E+02  0.13260456593E+04  0.13353693582E+04  0.12499037653E+03 0.  0.
         23    2    1    2    0    0  0.66283300832E+02  0.69268768037E+02  0.43215342711E+03  0.45145805122E+03  0.88691314424E+02 0.  0.
          5    1    3    3  502    0 -0.72899312866E+01 -0.54341439023E+02  0.10955094399E+04  0.10968906774E+04  0.47000000000E+01 0. -1.
         -5    1    3    3    0  502 -0.58993369545E+02 -0.14927329014E+02  0.23053621932E+03  0.23847868085E+03  0.47000000000E+01 0. -1.
        -11    1    4    4    0    0  0.54049938495E+02  0.42621296472E+01  0.28513772157E+03  0.29024658803E+03  0.00000000000E+00 0.  1.
         11    1    4    4    0    0  0.12233362337E+02  0.65006638389E+02  0.14701570554E+03  0.16121146319E+03  0.00000000000E+00 0. -1.
<mgrwt>
<rscale>  0 0.15031529E+03</rscale>
<asrwt>0</asrwt>
<pdfrwt beam="2">  1        2 0.22021801E-02 0.15752534E+03</pdfrwt>
<pdfrwt beam="1">  1       -2 0.27269417E+00 0.15752534E+03</pdfrwt>
<totfact> 0.25206391E+02</totfact>
</mgrwt>
</event>
<event>
 8    1  0.1154424E-005  0.1329829E+03  0.7546771E-02  0.1245185E+00
          4   -1    0    0  501    0  0.00000000000E+00  0.00000000000E+00  0.36199948202E+03  0.36199948202E+03  0.00000000000E+00 0. -1.
         -4   -1    0    0    0  501 -0.00000000000E+00 -0.00000000000E+00 -0.33727397374E+02  0.33727397374E+02  0.00000000000E+00 0.  1.
         23    2    1    2    0    0  0.35274855982E+02 -0.28390286450E+02  0.16547012204E+03  0.21228475471E+03  0.12503652253E+03 0.  0.
         23    2    1    2    0    0 -0.35274855982E+02  0.28390286450E+02  0.16280196261E+03  0.18344212468E+03  0.71387745789E+02 0.  0.
          5    1    3    3  502    0 -0.50068119070E+01 -0.63171602247E+02  0.13861993309E+03  0.15249031231E+03  0.47000000000E+01 0.  1.
         -5    1    3    3    0  502  0.40281667889E+02  0.34781315798E+02  0.26850188942E+02  0.59794442407E+02  0.47000000000E+01 0.  1.
        -11    1    4    4    0    0 -0.51327171172E+02  0.69155758340E+01  0.71512181175E+02  0.88296634964E+02  0.00000000000E+00 0.  1.
         11    1    4    4    0    0  0.16052315191E+02  0.21474710616E+02  0.91289781435E+02  0.95145489717E+02  0.00000000000E+00 0. -1.
<mgrwt>
<rscale>  0 0.11874322E+03</rscale>
<asrwt>0</asrwt>
<pdfrwt beam="1">  1        4 0.55692225E-01 0.13298292E+03</pdfrwt>
<pdfrwt beam="2">  1       -4 0.51888306E-02 0.13298292E+03</pdfrwt>
<totfact> 0.11474058E+03</totfact>
</mgrwt>
</event>
<event>
 8    1  0.1154424E-005  0.2476950E+03  0.7546771E-02  0.1117225E+00
         -2   -1    0    0    0  501 -0.00000000000E+00  0.00000000000E+00  0.68319769631E+03  0.68319769631E+03  0.00000000000E+00 0.  1.
          2   -1    0    0  501    0  0.00000000000E+00 -0.00000000000E+00 -0.84497425945E+02  0.84497425945E+02  0.00000000000E+00 0. -1.
         23    2    1    2    0    0  0.20108856172E+03  0.72802048378E+02  0.30940925604E+03  0.39634192512E+03  0.12496433884E+03 0.  0.
         23    2    1    2    0    0 -0.20108856172E+03 -0.72802048378E+02  0.28929101433E+03  0.37135319714E+03  0.92071483919E+02 0.  0.
          5    1    3    3  502    0  0.10349390545E+03  0.35637848880E+01  0.23102693617E+03  0.25321774082E+03  0.47000000000E+01 0. -1.
         -5    1    3    3    0  502  0.97594656274E+02  0.69238263490E+02  0.78382319865E+02  0.14312418430E+03  0.47000000000E+01 0. -1.
        -11    1    4    4    0    0 -0.37956550971E+02 -0.33267759498E+02  0.20542856686E+02  0.54492683403E+02  0.00000000000E+00 0.  1.
         11    1    4    4    0    0 -0.16313201075E+03 -0.39534288880E+02  0.26874815764E+03  0.31686051374E+03  0.00000000000E+00 0. -1.
<mgrwt>
<rscale>  0 0.24389440E+03</rscale>
<asrwt>0</asrwt>
<pdfrwt beam="2">  1        2 0.12999604E-01 0.24769504E+03</pdfrwt>
<pdfrwt beam="1">  1       -2 0.10510733E+00 0.24769504E+03</pdfrwt>
<totfact> 0.35367232E+02</totfact>
</mgrwt>
</event>
<event>
 8    1  0.1154424E-005  0.3688079E+03  0.7546771E-02  0.1056147E+00
          1   -1    0    0  501    0  0.00000000000E+00  0.00000000000E+00  0.15666763442E+04  0.15666763442E+04  0.00000000000E+00 0. -1.
         -1   -1    0    0    0  501 -0.00000000000E+00 -0.00000000000E+00 -0.85322245509E+02  0.85322245509E+02  0.00000000000E+00 0.  1.
         23    2    1    2    0    0 -0.29009448828E+03 -0.19036599080E+03  0.66644863505E+03  0.76169093759E+03  0.12500111461E+03 0.  0.
         23    2    1    2    0    0  0.29009448828E+03  0.19036599080E+03  0.81490546364E+03  0.89030765212E+03  0.90458709765E+02 0.  0.
          5    1    3    3  502    0 -0.18627966315E+03 -0.18525328383E+03  0.44004745824E+03  0.51252585065E+03  0.47000000000E+01 0. -1.
         -5    1    3    3    0  502 -0.10381482513E+03 -0.51127069692E+01  0.22640117681E+03  0.24916508694E+03  0.47000000000E+01 0. -1.
        -11    1    4    4    0    0  0.15424313720E+02 -0.91668782765E+01  0.27546993341E+02  0.32875187501E+02  0.00000000000E+00 0. -1.
         11    1    4    4    0    0  0.27467017456E+03  0.19953286908E+03  0.78735847029E+03  0.85743246462E+03  0.00000000000E+00 0.  1.
<mgrwt>
<rscale>  0 0.36622293E+03</rscale>
<asrwt>0</asrwt>
<pdfrwt beam="1">  1        1 0.24102711E+00 0.36880795E+03</pdfrwt>
<pdfrwt beam="2">  1       -1 0.13126500E-01 0.36880795E+03</pdfrwt>
<totfact> 0.25418016E+02</totfact>
</mgrwt>
</event>
<event>
 8    1  0.1154424E-005  0.1294391E+03  0.7546771E-02  0.1242113E+00
         -1   -1    0    0    0  501 -0.00000000000E+00  0.00000000000E+00  0.14766358093E+03  0.14766358093E+03  0.00000000000E+00 0.  1.
          1   -1    0    0  501    0  0.00000000000E+00 -0.00000000000E+00 -0.93566064351E+02  0.93566064351E+02  0.00000000000E+00 0. -1.
         23    2    1    2    0    0 -0.32199580601E+02  0.96042718042E+01  0.61709964055E+02  0.14339667780E+03  0.12500173004E+03 0.  0.
         23    2    1    2    0    0  0.32199580601E+02 -0.96042718042E+01 -0.76124474759E+01  0.97832967476E+02  0.91565742179E+02 0.  0.
          5    1    3    3  502    0 -0.27808145193E+02 -0.20892603406E+02  0.92896297477E+02  0.99305618679E+02  0.47000000000E+01 0.  1.
         -5    1    3    3    0  502 -0.43914354081E+01  0.30496875211E+02 -0.31186333422E+02  0.44091059126E+02  0.47000000000E+01 0.  1.
        -11    1    4    4    0    0  0.16279299906E+02 -0.42868953600E+02 -0.29900373354E+02  0.54742991468E+02  0.00000000000E+00 0. -1.
         11    1    4    4    0    0  0.15920280696E+02  0.33264681796E+02  0.22287925879E+02  0.43089976008E+02  0.00000000000E+00 0.  1.
<mgrwt>
<rscale>  0 0.12059820E+03</rscale>
<asrwt>0</asrwt>
<pdfrwt beam="2">  1        1 0.14394779E-01 0.12943913E+03</pdfrwt>
<pdfrwt beam="1">  1       -1 0.22717474E-01 0.12943913E+03</pdfrwt>
<totfact> 0.60881988E+03</totfact>
</mgrwt>
</event>
<event>
 8    1  0.1154424E-005  0.1318110E+03  0.7546771E-02  0.1238534E+00
         -1   -1    0    0    0  501 -0.00000000000E+00  0.00000000000E+00  0.37507084727E+02  0.37507084727E+02  0.00000000000E+00 0.  1.
          1   -1    0    0  501    0  0.00000000000E+00 -0.00000000000E+00 -0.47506168288E+03  0.47506168288E+03  0.00000000000E+00 0. -1.
         23    2    1    2    0    0  0.38155605586E+02 -0.17109692611E+02 -0.11452794177E+03  0.17461612984E+03  0.12500220613E+03 0.  0.
         23    2    1    2    0    0 -0.38155605586E+02  0.17109692611E+02 -0.32302665638E+03  0.33795263776E+03  0.90095354032E+02 0.  0.
          5    1    3    3  502    0 -0.27925254102E+02 -0.20807505991E+02  0.73007193256E+01  0.35890982501E+02  0.47000000000E+01 0. -1.
         -5    1    3    3    0  502  0.66080859688E+02  0.36978133796E+01 -0.12182866109E+03  0.13872514734E+03  0.47000000000E+01 0. -1.
        -11    1    4    4    0    0  0.82004907980E+01  0.38217800407E+02 -0.21494412051E+03  0.21846927303E+03  0.00000000000E+00 0. -1.
         11    1    4    4    0    0 -0.46356096384E+02 -0.21108107795E+02 -0.10808253587E+03  0.11948336473E+03  0.00000000000E+00 0.  1.
<mgrwt>
<rscale>  0 0.12280898E+03</rscale>
<asrwt>0</asrwt>
<pdfrwt beam="2">  1        1 0.73086413E-01 0.13181101E+03</pdfrwt>
<pdfrwt beam="1">  1       -1 0.57703207E-02 0.13181101E+03</pdfrwt>
<totfact> 0.65594662E+03</totfact>
</mgrwt>
</event>
<event>
 8    1  0.1154424E-005  0.2081724E+03  0.7546771E-02  0.1146768E+00
          2   -1    0    0  501    0  0.00000000000E+00  0.00000000000E+00  0.42773274358E+03  0.42773274358E+03  0.00000000000E+00 0. -1.
         -2   -1    0    0    0  501 -0.00000000000E+00 -0.00000000000E+00 -0.92926715892E+02  0.92926715892E+02  0.00000000000E+00 0.  1.
         23    2    1    2    0    0  0.16557344039E+03 -0.17235750088E+02  0.16603323124E+03  0.26627577710E+03  0.12499648134E+03 0.  0.
         23    2    1    2    0    0 -0.16557344039E+03  0.17235750088E+02  0.16877279645E+03  0.25438368238E+03  0.92277655994E+02 0.  0.
          5    1    3    3  502    0  0.41126069714E+02  0.35523139305E+00 -0.16537207242E+02  0.44576328055E+02  0.47000000000E+01 0. -1.
         -5    1    3    3    0  502  0.12444737068E+03 -0.17590981481E+02  0.18257043848E+03  0.22169944904E+03  0.47000000000E+01 0. -1.
        -11    1    4    4    0    0 -0.10676837631E+03  0.55047473641E+02  0.11346598978E+03  0.16523995089E+03  0.00000000000E+00 0.  1.
         11    1    4    4    0    0 -0.58805064076E+02 -0.37811723553E+02  0.55306806674E+02  0.89143731487E+02  0.00000000000E+00 0. -1.
<mgrwt>
<rscale>  0 0.20356173E+03</rscale>
<asrwt>0</asrwt>
<pdfrwt beam="1">  1        2 0.65805036E-01 0.20817242E+03</pdfrwt>
<pdfrwt beam="2">  1       -2 0.14296418E-01 0.20817242E+03</pdfrwt>
<totfact> 0.27182099E+03</totfact>
</mgrwt>
</event>
<event>
 8    1  0.1154424E-005  0.1263804E+03  0.7546771E-02  0.1247413E+00
          1   -1    0    0  501    0  0.00000000000E+00  0.00000000000E+00  0.61854622040E+03  0.61854622040E+03  0.00000000000E+00 0. -1.
         -1   -1    0    0    0  501 -0.00000000000E+00 -0.00000000000E+00 -0.20560171811E+02  0.20560171811E+02  0.00000000000E+00 0.  1.
         23    2    1    2    0    0  0.18599060641E+02 -0.40820121291E+00  0.27460818581E+03  0.30229400306E+03  0.12500366748E+03 0.  0.
         23    2    1    2    0    0 -0.18599060641E+02  0.40820121291E+00  0.32337786278E+03  0.33681238916E+03  0.92321458332E+02 0.  0.
          5    1    3    3  502    0  0.29014272491E+02  0.55279589304E+02  0.93926012914E+02  0.11287978962E+03  0.47000000000E+01 0.  1.
         -5    1    3    3    0  502 -0.10415211850E+02 -0.55687790517E+02  0.18068217290E+03  0.18941421344E+03  0.47000000000E+01 0.  1.
        -11    1    4    4    0    0 -0.27482911625E+02 -0.41111161807E+02  0.21002849746E+03  0.21577165663E+03  0.00000000000E+00 0. -1.
         11    1    4    4    0    0  0.88838509840E+01  0.41519363020E+02  0.11334936532E+03  0.12104073253E+03  0.00000000000E+00 0.  1.
<mgrwt>
<rscale>  0 0.11742113E+03</rscale>
<asrwt>0</asrwt>
<pdfrwt beam="1">  1        1 0.95160943E-01 0.12638041E+03</pdfrwt>
<pdfrwt beam="2">  1       -1 0.31631038E-02 0.12638041E+03</pdfrwt>
<totfact> 0.11153387E+04</totfact>
</mgrwt>
</event>
<event>
 8    1  0.1154424E-005  0.1321736E+03  0.7546771E-02  0.1244343E+00
          2   -1    0    0  501    0  0.00000000000E+00  0.00000000000E+00  0.36546302130E+03  0.36546302130E+03  0.00000000000E+00 0. -1.
         -2   -1    0    0    0  501 -0.00000000000E+00 -0.00000000000E+00 -0.40056273031E+02  0.40056273031E+02  0.00000000000E+00 0.  1.
         23    2    1    2    0    0  0.88808635076E+01  0.41772264925E+02  0.10648512251E+03  0.16973198886E+03  0.12508427109E+03 0.  0.
         23    2    1    2    0    0 -0.88808635076E+01 -0.41772264925E+02  0.21892162576E+03  0.23578730547E+03  0.76453798741E+02 0.  0.
          5    1    3    3  502    0  0.65489886765E+02  0.20527851446E+02  0.39314855807E+02  0.79234246640E+02  0.47000000000E+01 0.  1.
         -5    1    3    3    0  502 -0.56609023257E+02  0.21244413479E+02  0.67170266703E+02  0.90497742221E+02  0.47000000000E+01 0.  1.
        -11    1    4    4    0    0 -0.15984408289E+02 -0.61786835677E+02  0.18566570372E+03  0.19632846943E+03  0.00000000000E+00 0. -1.
         11    1    4    4    0    0  0.71035447811E+01  0.20014570752E+02  0.33255922040E+02  0.39458836040E+02  0.00000000000E+00 0.  1.
<mgrwt>
<rscale>  0 0.11924791E+03</rscale>
<asrwt>0</asrwt>
<pdfrwt beam="1">  1        2 0.56225078E-01 0.13217362E+03</pdfrwt>
<pdfrwt beam="2">  1       -2 0.61625038E-02 0.13217362E+03</pdfrwt>
<totfact> 0.11811094E+04</totfact>
</mgrwt>
</event>
<event>
 7    1  0.1154424E-005  0.2386147E+03  0.7546771E-02  0.1126317E+00
          1   -1    0    0  501    0  0.00000000000E+00  0.00000000000E+00  0.14401640450E+04  0.14401640450E+04  0.00000000000E+00 0. -1.
         -1   -1    0    0    0  501 -0.00000000000E+00 -0.00000000000E+00 -0.37163386354E+02  0.37163386354E+02  0.00000000000E+00 0.  1.
         23    2    1    2    0    0 -0.15176679825E+02  0.20268482785E+03  0.55201744872E+03  0.60138193186E+03  0.12500197291E+03 0.  0.
          5    1    3    3  502    0 -0.60126361968E+02  0.65725170822E+02  0.15306545470E+03  0.17716122856E+03  0.47000000000E+01 0. -1.
         -5    1    3    3    0  502  0.44949682142E+02  0.13695965703E+03  0.39895199402E+03  0.42422070331E+03  0.47000000000E+01 0. -1.
        -11    1    1    2    0    0  0.17537636892E+01 -0.18677237546E+03  0.76976344761E+03  0.79210022168E+03  0.00000000000E+00 0. -1.
         11    1    1    2    0    0  0.13422916136E+02 -0.15912452389E+02  0.81219762317E+02  0.83845277801E+02  0.00000000000E+00 0.  1.
<mgrwt>
<rscale>  0 0.23045849E+03</rscale>
<asrwt>0</asrwt>
<pdfrwt beam="1">  1        1 0.22156366E+00 0.23861468E+03</pdfrwt>
<pdfrwt beam="2">  1       -1 0.57174452E-02 0.23861468E+03</pdfrwt>
<totfact> 0.11300519E+03</totfact>
</mgrwt>
</event>
<event>
 8    1  0.1154424E-005  0.1483642E+03  0.7546771E-02  0.1211749E+00
          1   -1    0    0  501    0  0.00000000000E+00  0.00000000000E+00  0.70555368741E+03  0.70555368741E+03  0.00000000000E+00 0. -1.
         -1   -1    0    0    0  501 -0.00000000000E+00 -0.00000000000E+00 -0.26044194629E+02  0.26044194629E+02  0.00000000000E+00 0.  1.
         23    2    1    2    0    0  0.72933661213E+01  0.79582028409E+02  0.34037308615E+03  0.37130281403E+03  0.12500179798E+03 0.  0.
         23    2    1    2    0    0 -0.72933661213E+01 -0.79582028409E+02  0.33913640663E+03  0.36029506801E+03  0.91719906740E+02 0.  0.
          5    1    3    3  502    0  0.78402792348E+01  0.60834992843E+02  0.34579304920E+03  0.35122256364E+03  0.47000000000E+01 0.  1.
         -5    1    3    3    0  502 -0.54691311351E+00  0.18747035566E+02 -0.54199630503E+01  0.20080250395E+02  0.47000000000E+01 0.  1.
        -11    1    4    4    0    0  0.35655230640E+02 -0.24293427864E+02  0.70226069679E+02  0.82420670781E+02  0.00000000000E+00 0.  1.
         11    1    4    4    0    0 -0.42948596762E+02 -0.55288600545E+02  0.26891033695E+03  0.27787439723E+03  0.00000000000E+00 0. -1.
<mgrwt>
<rscale>  0 0.14118094E+03</rscale>
<asrwt>0</asrwt>
<pdfrwt beam="1">  1        1 0.10854671E+00 0.14836422E+03</pdfrwt>
<pdfrwt beam="2">  1       -1 0.40067997E-02 0.14836422E+03</pdfrwt>
<totfact> 0.66261727E+03</totfact>
</mgrwt>
</event>
<event>
 8    1  0.1154424E-005  0.1311487E+03  0.7546771E-02  0.1238990E+00
         -1   -1    0    0    0  501 -0.00000000000E+00  0.00000000000E+00  0.14717981657E+03  0.14717981657E+03  0.00000000000E+00 0. -1.
          1   -1    0    0  501    0  0.00000000000E+00 -0.00000000000E+00 -0.97248693787E+02  0.97248693787E+02  0.00000000000E+00 0.  1.
         23    2    1    2    0    0 -0.34646711546E+02 -0.19422261350E+02  0.59596998561E+02  0.14405480659E+03  0.12498946439E+03 0.  0.
         23    2    1    2    0    0  0.34646711546E+02  0.19422261350E+02 -0.96658757827E+01  0.10037370376E+03  0.91672418944E+02 0.  0.
          5    1    3    3  502    0 -0.18862270300E+02 -0.31049308220E+02 -0.32990345315E+02  0.49298049311E+02  0.47000000000E+01 0. -1.
         -5    1    3    3    0  502 -0.15784441246E+02  0.11627046870E+02  0.92587343876E+02  0.94756757281E+02  0.47000000000E+01 0. -1.
        -11    1    4    4    0    0  0.11336553164E+02  0.39327256698E+02  0.29636183087E+02  0.50531711875E+02  0.00000000000E+00 0. -1.
         11    1    4    4    0    0  0.23310158383E+02 -0.19904995348E+02 -0.39302058870E+02  0.49841991885E+02  0.00000000000E+00 0.  1.
<mgrwt>
<rscale>  0 0.12252430E+03</rscale>
<asrwt>0</asrwt>
<pdfrwt beam="2">  1        1 0.14961338E-01 0.13114871E+03</pdfrwt>
<pdfrwt beam="1">  1       -1 0.22643049E-01 0.13114871E+03</pdfrwt>
<totfact> 0.58278106E+03</totfact>
</mgrwt>
</event>
<event>
 8    1  0.1154424E-005  0.1261798E+03  0.7546771E-02  0.1248321E+00
         -2   -1    0    0    0  501 -0.00000000000E+00  0.00000000000E+00  0.55833581511E+02  0.55833581511E+02  0.00000000000E+00 0.  1.
          2   -1    0    0  501    0  0.00000000000E+00 -0.00000000000E+00 -0.22648188772E+03  0.22648188772E+03  0.00000000000E+00 0. -1.
         23    2    1    2    0    0  0.11059150098E+02  0.13193191820E+02 -0.66111374691E+02  0.14245016204E+03  0.12499987876E+03 0.  0.
         23    2    1    2    0    0 -0.11059150098E+02 -0.13193191820E+02 -0.10453693152E+03  0.13986530719E+03  0.91312479942E+02 0.  0.
          5    1    3    3  502    0  0.34482101549E+02  0.41965025592E+02  0.12022711723E+02  0.55827540671E+02  0.47000000000E+01 0. -1.
         -5    1    3    3    0  502 -0.23422951450E+02 -0.28771833773E+02 -0.78134086414E+02  0.86622621370E+02  0.47000000000E+01 0. -1.
        -11    1    4    4    0    0  0.30373146027E+02 -0.12314086951E+02 -0.90271659321E+02  0.96037165794E+02  0.00000000000E+00 0. -1.
         11    1    4    4    0    0 -0.41432296125E+02 -0.87910486841E+00 -0.14265272199E+02  0.43828141399E+02  0.00000000000E+00 0.  1.
<mgrwt>
<rscale>  0 0.11688826E+03</rscale>
<asrwt>0</asrwt>
<pdfrwt beam="2">  1        2 0.34843368E-01 0.12617977E+03</pdfrwt>
<pdfrwt beam="1">  1       -2 0.85897817E-02 0.12617977E+03</pdfrwt>
<totfact> 0.11749977E+04</totfact>
</mgrwt>
</event>
<event>
 8    1  0.1154424E-005  0.1456024E+03  0.7546771E-02  0.1214969E+00
         -2   -1    0    0    0  501 -0.00000000000E+00  0.00000000000E+00  0.18209355902E+03  0.18209355902E+03  0.00000000000E+00 0.  1.
          2   -1    0    0  501    0  0.00000000000E+00 -0.00000000000E+00 -0.97072256959E+02  0.97072256959E+02  0.00000000000E+00 0. -1.
         23    2    1    2    0    0  0.65662343776E+02 -0.35607703882E+02  0.42705794322E+02  0.15173611526E+03  0.12498244612E+03 0.  0.
         23    2    1    2    0    0 -0.65662343776E+02  0.35607703882E+02  0.42315507737E+02  0.12742970072E+03  0.94171516208E+02 0.  0.
          5    1    3    3  502    0  0.97850047033E+02 -0.14541830335E+02  0.52035575873E+02  0.11187442822E+03  0.47000000000E+01 0.  1.
         -5    1    3    3    0  502 -0.32187703257E+02 -0.21065873547E+02 -0.93297815511E+01  0.39861687032E+02  0.47000000000E+01 0.  1.
        -11    1    4    4    0    0 -0.14332551677E+02 -0.16162345420E+02  0.49662424093E+02  0.54157176938E+02  0.00000000000E+00 0.  1.
         11    1    4    4    0    0 -0.51329792099E+02  0.51770049302E+02 -0.73469163566E+01  0.73272523783E+02  0.00000000000E+00 0. -1.
<mgrwt>
<rscale>  0 0.13878783E+03</rscale>
<asrwt>0</asrwt>
<pdfrwt beam="2">  1        2 0.14934193E-01 0.14560242E+03</pdfrwt>
<pdfrwt beam="1">  1       -2 0.28014394E-01 0.14560242E+03</pdfrwt>
<totfact> 0.43550665E+03</totfact>
</mgrwt>
</event>
<event>
 8    1  0.1154424E-005  0.2683228E+03  0.7546771E-02  0.1104564E+00
         -3   -1    0    0    0  501 -0.00000000000E+00  0.00000000000E+00  0.45759988321E+03  0.45759988321E+03  0.00000000000E+00 0.  1.
          3   -1    0    0  501    0  0.00000000000E+00 -0.00000000000E+00 -0.24792705376E+03  0.24792705376E+03  0.00000000000E+00 0. -1.
         23    2    1    2    0    0  0.17906035886E+03  0.15591354603E+03  0.33023850080E+03  0.42550507558E+03  0.12500182392E+03 0.  0.
         23    2    1    2    0    0 -0.17906035886E+03 -0.15591354603E+03 -0.12056567135E+03  0.28002186139E+03  0.86628608406E+02 0.  0.
          5    1    3    3  502    0 -0.51595807646E+01 -0.64193057535E+01 -0.43741898478E+01  0.10442810773E+02  0.47000000000E+01 0.  1.
         -5    1    3    3    0  502  0.18421993963E+03  0.16233285179E+03  0.33461269064E+03  0.41506226481E+03  0.47000000000E+01 0.  1.
        -11    1    4    4    0    0 -0.15888245791E+03 -0.16622719825E+03 -0.11227252229E+03  0.25589106301E+03  0.00000000000E+00 0. -1.
         11    1    4    4    0    0 -0.20177900956E+02  0.10313652214E+02 -0.82931490647E+01  0.24130798379E+02  0.00000000000E+00 0.  1.
<mgrwt>
<rscale>  0 0.26433854E+03</rscale>
<asrwt>0</asrwt>
<pdfrwt beam="2">  1        3 0.38142624E-01 0.26832276E+03</pdfrwt>
<pdfrwt beam="1">  1       -3 0.70399982E-01 0.26832276E+03</pdfrwt>
<totfact> 0.33295555E+01</totfact>
</mgrwt>
</event>
<event>
 8    1  0.1154424E-005  0.2030151E+03  0.7546771E-02  0.1151366E+00
         -2   -1    0    0    0  501 -0.00000000000E+00  0.00000000000E+00  0.34398998388E+02  0.34398998388E+02  0.00000000000E+00 0.  1.
          2   -1    0    0  501    0  0.00000000000E+00 -0.00000000000E+00 -0.11074221561E+04  0.11074221561E+04  0.00000000000E+00 0. -1.
         23    2    1    2    0    0  0.12541452893E+03  0.99299870554E+02 -0.48794806358E+03  0.52849638360E+03  0.12500338543E+03 0.  0.
         23    2    1    2    0    0 -0.12541452893E+03 -0.99299870554E+02 -0.58507509412E+03  0.61332477087E+03  0.90912817864E+02 0.  0.
          5    1    3    3  502    0  0.14788870368E+03  0.74886048040E+02 -0.43803314994E+03  0.46837390972E+03  0.47000000000E+01 0.  1.
         -5    1    3    3    0  502 -0.22474174757E+02  0.24413822514E+02 -0.49914913644E+02  0.60122473875E+02  0.47000000000E+01 0.  1.
        -11    1    4    4    0    0 -0.75905635113E+02 -0.10392985872E+03 -0.34664032322E+03  0.36976018533E+03  0.00000000000E+00 0. -1.
         11    1    4    4    0    0 -0.49508893813E+02  0.46299881609E+01 -0.23843477090E+03  0.24356458554E+03  0.00000000000E+00 0.  1.
<mgrwt>
<rscale>  0 0.19808341E+03</rscale>
<asrwt>0</asrwt>
<pdfrwt beam="2">  1        2 0.17037264E+00 0.20301506E+03</pdfrwt>
<pdfrwt beam="1">  1       -2 0.52921537E-02 0.20301506E+03</pdfrwt>
<totfact> 0.40296348E+03</totfact>
</mgrwt>
</event>
<event>
 8    1  0.1154424E-005  0.1729078E+03  0.7546771E-02  0.1181224E+00
          2   -1    0    0  501    0  0.00000000000E+00  0.00000000000E+00  0.46118866700E+03  0.46118866700E+03  0.00000000000E+00 0. -1.
         -2   -1    0    0    0  501 -0.00000000000E+00 -0.00000000000E+00 -0.58271770522E+02  0.58271770522E+02  0.00000000000E+00 0.  1.
         23    2    1    2    0    0  0.11860879573E+03 -0.14225344972E+02  0.26146065210E+03  0.31346257943E+03  0.12500683678E+03 0.  0.
         23    2    1    2    0    0 -0.11860879573E+03  0.14225344972E+02  0.14145624438E+03  0.20599785809E+03  0.90304161588E+02 0.  0.
          5    1    3    3  502    0  0.63431622501E+02  0.34764911656E+02  0.46444231596E+02  0.86089061234E+02  0.47000000000E+01 0. -1.
         -5    1    3    3    0  502  0.55177173232E+02 -0.48990256628E+02  0.21501642050E+03  0.22737351820E+03  0.47000000000E+01 0. -1.
        -11    1    4    4    0    0 -0.26919735686E+02 -0.36119799328E+02  0.39148711805E+02  0.59681937878E+02  0.00000000000E+00 0.  1.
         11    1    4    4    0    0 -0.91689060047E+02  0.50345144299E+02  0.10230753257E+03  0.14631592021E+03  0.00000000000E+00 0. -1.
<mgrwt>
<rscale>  0 0.16680273E+03</rscale>
<asrwt>0</asrwt>
<pdfrwt beam="1">  1        2 0.70952100E-01 0.17290783E+03</pdfrwt>
<pdfrwt beam="2">  1       -2 0.89648881E-02 0.17290783E+03</pdfrwt>
<totfact> 0.52478601E+03</totfact>
</mgrwt>
</event>
<event>
 8    1  0.1154424E-005  0.1937959E+03  0.7546771E-02  0.1159635E+00
          1   -1    0    0  501    0  0.00000000000E+00  0.00000000000E+00  0.58722425941E+02  0.58722425941E+02  0.00000000000E+00 0. -1.
         -1   -1    0    0    0  501 -0.00000000000E+00 -0.00000000000E+00 -0.57925313883E+03  0.57925313883E+03  0.00000000000E+00 0.  1.
         23    2    1    2    0    0  0.14367327987E+03  0.36148012436E+02 -0.29563429844E+03  0.35349187741E+03  0.12493269718E+03 0.  0.
         23    2    1    2    0    0 -0.14367327987E+03 -0.36148012436E+02 -0.22489641445E+03  0.28448368737E+03  0.91672684008E+02 0.  0.
          5    1    3    3  502    0  0.91292813527E+01  0.29849838618E+02 -0.15700862273E+03  0.16015041135E+03  0.47000000000E+01 0.  1.
         -5    1    3    3    0  502  0.13454399852E+03  0.62981738185E+01 -0.13862567571E+03  0.19334146606E+03  0.47000000000E+01 0.  1.
        -11    1    4    4    0    0 -0.11977466336E+03 -0.26213504948E+02 -0.22753611804E+03  0.25846818535E+03  0.00000000000E+00 0.  1.
         11    1    4    4    0    0 -0.23898616512E+02 -0.99345074884E+01  0.26397035901E+01  0.26015502019E+02  0.00000000000E+00 0. -1.
<mgrwt>
<rscale>  0 0.18870480E+03</rscale>
<asrwt>0</asrwt>
<pdfrwt beam="1">  1        1 0.90342193E-02 0.19379595E+03</pdfrwt>
<pdfrwt beam="2">  1       -1 0.89115868E-01 0.19379595E+03</pdfrwt>
<totfact> 0.94999383E+02</totfact>
</mgrwt>
</event>
<event>
 8    1  0.1154424E-005  0.1290959E+03  0.7546771E-02  0.1242996E+00
         -1   -1    0    0    0  501 -0.00000000000E+00  0.00000000000E+00  0.35996329175E+03  0.35996329175E+03  0.00000000000E+00 0.  1.
          1   -1    0    0  501    0  0.00000000000E+00 -0.00000000000E+00 -0.39168492915E+02  0.39168492915E+02  0.00000000000E+00 0. -1.
         23    2    1    2    0    0 -0.64015804321E+01 -0.31608785891E+02  0.24282785473E+03  0.27501112887E+03  0.12500263353E+03 0.  0.
         23    2    1    2    0    0  0.64015804321E+01  0.31608785891E+02  0.77966944108E+02  0.12412065580E+03  0.91032945932E+02 0.  0.
          5    1    3    3  502    0  0.33439498881E+02 -0.21569775639E+02  0.22735187446E+03  0.23085584274E+03  0.47000000000E+01 0. -1.
         -5    1    3    3    0  502 -0.39841079314E+02 -0.10039010252E+02  0.15475980270E+02  0.44155286128E+02  0.47000000000E+01 0. -1.
        -11    1    4    4    0    0  0.38882487535E+02 -0.17655101662E+01  0.65026487458E+02  0.75785281778E+02  0.00000000000E+00 0.  1.
         11    1    4    4    0    0 -0.32480907103E+02  0.33374296058E+02  0.12940456650E+02  0.48335374022E+02  0.00000000000E+00 0. -1.
<mgrwt>
<rscale>  0 0.12006119E+03</rscale>
<asrwt>0</asrwt>
<pdfrwt beam="2">  1        1 0.60259222E-02 0.12909591E+03</pdfrwt>
<pdfrwt beam="1">  1       -1 0.55378966E-01 0.12909591E+03</pdfrwt>
<totfact> 0.41559367E+03</totfact>
</mgrwt>
</event>
<event>
 8    1  0.1154424E-005  0.1285071E+03  0.7546771E-02  0.1243111E+00
          2   -1    0    0  501    0  0.00000000000E+00  0.00000000000E+00  0.14295520150E+03  0.14295520150E+03  0.00000000000E+00 0.  1.
         -2   -1    0    0    0  501 -0.00000000000E+00 -0.00000000000E+00 -0.90767322496E+02  0.90767322496E+02  0.00000000000E+00 0. -1.
         23    2    1    2    0    0  0.28906892305E+02  0.74120533564E+01  0.15772237565E+02  0.12947135022E+03  0.12499408023E+03 0.  0.
         23    2    1    2    0    0 -0.28906892305E+02 -0.74120533564E+01  0.36415641441E+02  0.10425117378E+03  0.93014307150E+02 0.  0.
          5    1    3    3  502    0  0.31885326191E+02  0.58338965637E+02 -0.16836841588E+02  0.68743568227E+02  0.47000000000E+01 0.  1.
         -5    1    3    3    0  502 -0.29784338857E+01 -0.50926912281E+02  0.32609079152E+02  0.60727781995E+02  0.47000000000E+01 0.  1.
        -11    1    4    4    0    0 -0.25608757143E+02 -0.18172902456E+02 -0.26037287962E+02  0.40792195216E+02  0.00000000000E+00 0. -1.
         11    1    4    4    0    0 -0.32981351620E+01  0.10760849100E+02  0.62452929404E+02  0.63458978561E+02  0.00000000000E+00 0.  1.
<mgrwt>
<rscale>  0 0.11999175E+03</rscale>
<asrwt>0</asrwt>
<pdfrwt beam="1">  1        2 0.21993108E-01 0.12850707E+03</pdfrwt>
<pdfrwt beam="2">  1       -2 0.13964203E-01 0.12850707E+03</pdfrwt>
<totfact> 0.90096249E+03</totfact>
</mgrwt>
</event>
<event>
 7    1  0.1154424E-005  0.3249104E+03  0.7546771E-02  0.1073411E+00
          1   -1    0    0  501    0  0.00000000000E+00  0.00000000000E+00  0.49751503437E+03  0.49751503437E+03  0.00000000000E+00 0. -1.
         -1   -1    0    0    0  501 -0.00000000000E+00 -0.00000000000E+00 -0.53047033722E+02  0.53047033722E+02  0.00000000000E+00 0.  1.
         23    2    1    2    0    0 -0.34576708196E+02 -0.13575587236E+02  0.84796290390E+02  0.15553859145E+03  0.12498798842E+03 0.  0.
          5    1    3    3  502    0 -0.24890564848E+02  0.34778653431E+02 -0.13810533308E+02  0.45187562262E+02  0.47000000000E+01 0.  1.
         -5    1    3    3    0  502 -0.96861433478E+01 -0.48354240667E+02  0.98606823698E+02  0.11035102919E+03  0.47000000000E+01 0.  1.
        -11    1    1    2    0    0 -0.41789204593E+02  0.55957426257E+02  0.10786857404E+03  0.12850369815E+03  0.00000000000E+00 0. -1.
         11    1    1    2    0    0  0.76365912789E+02 -0.42381839020E+02  0.25180313623E+03  0.26651977849E+03  0.00000000000E+00 0.  1.
<mgrwt>
<rscale>  0 0.32491043E+03</rscale>
<asrwt>0</asrwt>
<pdfrwt beam="1">  1        1 0.76540772E-01 0.32491043E+03</pdfrwt>
<pdfrwt beam="2">  1       -1 0.81610824E-02 0.32491043E+03</pdfrwt>
<totfact> 0.38006807E+03</totfact>
</mgrwt>
</event>
<event>
 7    1  0.1154424E-005  0.2017167E+03  0.7546771E-02  0.1153876E+00
          1   -1    0    0  501    0  0.00000000000E+00  0.00000000000E+00  0.32341101416E+03  0.32341101416E+03  0.00000000000E+00 0. -1.
         -1   -1    0    0    0  501 -0.00000000000E+00 -0.00000000000E+00 -0.14258088188E+03  0.14258088188E+03  0.00000000000E+00 0.  1.
         23    2    1    2    0    0 -0.73037600075E+02 -0.13464044028E+03  0.19569713215E+03  0.26372811974E+03  0.88275786198E+02 0.  0.
          5    1    1    2  502    0 -0.18614474819E+02  0.45623313059E+02  0.39504889983E+02  0.63330180008E+02  0.47000000000E+01 0. -1.
         -5    1    1    2    0  502  0.91652074894E+02  0.89017127219E+02 -0.54371889854E+02  0.13893359629E+03  0.47000000000E+01 0.  1.
        -11    1    3    3    0    0 -0.90957914954E+02 -0.12078388781E+03  0.18424578400E+03  0.23834554489E+03  0.00000000000E+00 0. -1.
         11    1    3    3    0    0  0.17920314879E+02 -0.13856552473E+02  0.11451348144E+02  0.25382574851E+02  0.00000000000E+00 0.  1.
<mgrwt>
<rscale>  0 0.19517380E+03</rscale>
<asrwt>0</asrwt>
<pdfrwt beam="1">  1        1 0.49755541E-01 0.20171665E+03</pdfrwt>
<pdfrwt beam="2">  1       -1 0.21935520E-01 0.20171665E+03</pdfrwt>
<totfact> 0.13718793E+03</totfact>
</mgrwt>
</event>
<event>
 8    1  0.1154424E-005  0.2068639E+03  0.7546771E-02  0.1147672E+00
          3   -1    0    0  501    0  0.00000000000E+00  0.00000000000E+00  0.28154355690E+02  0.28154355690E+02  0.00000000000E+00 0. -1.
         -3   -1    0    0    0  501 -0.00000000000E+00 -0.00000000000E+00 -0.14992313962E+04  0.14992313962E+04  0.00000000000E+00 0.  1.
         23    2    1    2    0    0 -0.10623645863E+03  0.12602445162E+03 -0.96381993443E+03  0.98576950890E+03  0.12499724446E+03 0.  0.
         23    2    1    2    0    0  0.10623645863E+03 -0.12602445162E+03 -0.50725710609E+03  0.54161624300E+03  0.94180865650E+02 0.  0.
          5    1    3    3  502    0 -0.39170462124E+01  0.36073289325E+02 -0.50662454353E+02  0.62493197509E+02  0.47000000000E+01 0.  1.
         -5    1    3    3    0  502 -0.10231941241E+03  0.89951162299E+02 -0.91315748007E+03  0.92327631139E+03  0.47000000000E+01 0.  1.
        -11    1    4    4    0    0 -0.26335239438E+01 -0.58104064618E+02 -0.20865279131E+03  0.21660795252E+03  0.00000000000E+00 0.  1.
         11    1    4    4    0    0  0.10886998257E+03 -0.67920387006E+02 -0.29860431478E+03  0.32500829048E+03  0.00000000000E+00 0. -1.
<mgrwt>
<rscale>  0 0.20246928E+03</rscale>
<asrwt>0</asrwt>
<pdfrwt beam="1">  1        3 0.43314387E-02 0.20686387E+03</pdfrwt>
<pdfrwt beam="2">  1       -3 0.23065102E+00 0.20686387E+03</pdfrwt>
<totfact> 0.74311901E+01</totfact>
</mgrwt>
</event>
<event>
 8    1  0.1154424E-005  0.1376383E+03  0.7546771E-02  0.1227996E+00
         -4   -1    0    0    0  501 -0.00000000000E+00  0.00000000000E+00  0.31457872784E+03  0.31457872784E+03  0.00000000000E+00 0.  1.
          4   -1    0    0  501    0  0.00000000000E+00 -0.00000000000E+00 -0.50680886194E+02  0.50680886194E+02  0.00000000000E+00 0. -1.
         23    2    1    2    0    0  0.27463260946E+02 -0.50557346336E+02  0.18800557573E+03  0.23300298170E+03  0.12503606281E+03 0.  0.
         23    2    1    2    0    0 -0.27463260946E+02  0.50557346336E+02  0.75892265918E+02  0.13225663234E+03  0.91770936584E+02 0.  0.
          5    1    3    3  502    0 -0.45429221148E+01  0.68608463075E+01  0.16180438013E+03  0.16208163617E+03  0.47000000000E+01 0. -1.
         -5    1    3    3    0  502  0.32006183061E+02 -0.57418192644E+02  0.26201195600E+02  0.70921345528E+02  0.47000000000E+01 0. -1.
        -11    1    4    4    0    0 -0.10669541254E+02  0.58427402123E+02  0.57125918704E+01  0.59667697587E+02  0.00000000000E+00 0. -1.
         11    1    4    4    0    0 -0.16793719692E+02 -0.78700557868E+01  0.70179674048E+02  0.72588934753E+02  0.00000000000E+00 0.  1.
<mgrwt>
<rscale>  0 0.12963633E+03</rscale>
<asrwt>0</asrwt>
<pdfrwt beam="2">  1        4 0.77970596E-02 0.13763827E+03</pdfrwt>
<pdfrwt beam="1">  1       -4 0.48396726E-01 0.13763827E+03</pdfrwt>
<totfact> 0.79286751E+02</totfact>
</mgrwt>
</event>
<event>
 7    1  0.1154424E-005  0.1427165E+03  0.7546771E-02  0.1221665E+00
          2   -1    0    0  501    0  0.00000000000E+00  0.00000000000E+00  0.74996439711E+02  0.74996439711E+02  0.00000000000E+00 0. -1.
         -2   -1    0    0    0  501 -0.00000000000E+00 -0.00000000000E+00 -0.25742993820E+03  0.25742993820E+03  0.00000000000E+00 0.  1.
         23    2    1    2    0    0  0.62115631773E+02 -0.12735721589E+01 -0.14119529845E+02  0.11175107879E+03  0.91809415596E+02 0.  0.
          5    1    1    2  502    0 -0.85925511274E+02  0.26679351969E+02 -0.63755088322E+02  0.11037111305E+03  0.47000000000E+01 0. -1.
         -5    1    1    2    0  502  0.23809879501E+02 -0.25405779810E+02 -0.10455888032E+03  0.11030418606E+03  0.47000000000E+01 0.  1.
        -11    1    3    3    0    0  0.13373281889E+02 -0.29822063446E+02  0.26581223480E+02  0.42127919227E+02  0.00000000000E+00 0.  1.
         11    1    3    3    0    0  0.48742349884E+02  0.28548491287E+02 -0.40700753325E+02  0.69623159568E+02  0.00000000000E+00 0. -1.
<mgrwt>
<rscale>  0 0.13398153E+03</rscale>
<asrwt>0</asrwt>
<pdfrwt beam="1">  1        2 0.11537914E-01 0.14271649E+03</pdfrwt>
<pdfrwt beam="2">  1       -2 0.39604606E-01 0.14271649E+03</pdfrwt>
<totfact> 0.31352042E+03</totfact>
</mgrwt>
</event>
<event>
 8    1  0.1154424E-005  0.1276550E+03  0.7546771E-02  0.1246110E+00
          1   -1    0    0  501    0  0.00000000000E+00  0.00000000000E+00  0.29860142200E+03  0.29860142200E+03  0.00000000000E+00 0. -1.
         -1   -1    0    0    0  501 -0.00000000000E+00 -0.00000000000E+00 -0.62021919845E+02  0.62021919845E+02  0.00000000000E+00 0.  1.
         23    2    1    2    0    0  0.18594775872E+02  0.15863667162E+02  0.26254749609E+02  0.13032690267E+03  0.12529312853E+03 0.  0.
         23    2    1    2    0    0 -0.18594775872E+02 -0.15863667162E+02  0.21032475254E+03  0.23029643917E+03  0.90567801875E+02 0.  0.
          5    1    3    3  502    0  0.57133525927E+02  0.40113483103E+02 -0.11605661010E+02  0.70923287283E+02  0.47000000000E+01 0.  1.
         -5    1    3    3    0  502 -0.38538750056E+02 -0.24249815940E+02  0.37860410619E+02  0.59403615389E+02  0.47000000000E+01 0.  1.
        -11    1    4    4    0    0 -0.55176870212E+02 -0.41981244257E+01  0.11962013495E+03  0.13179942314E+03  0.00000000000E+00 0.  1.
         11    1    4    4    0    0  0.36582094340E+02 -0.11665542737E+02  0.90704617593E+02  0.98497016028E+02  0.00000000000E+00 0. -1.
<mgrwt>
<rscale>  0 0.11819206E+03</rscale>
<asrwt>0</asrwt>
<pdfrwt beam="1">  1        1 0.45938680E-01 0.12765496E+03</pdfrwt>
<pdfrwt beam="2">  1       -1 0.95418340E-02 0.12765496E+03</pdfrwt>
<totfact> 0.55095439E+03</totfact>
</mgrwt>
</event>
<event>
 8    1  0.1154424E-005  0.1732419E+03  0.7546771E-02  0.1180607E+00
          2   -1    0    0  501    0  0.00000000000E+00  0.00000000000E+00  0.38881985386E+03  0.38881985386E+03  0.00000000000E+00 0. -1.
         -2   -1    0    0    0  501 -0.00000000000E+00 -0.00000000000E+00 -0.68508161375E+02  0.68508161375E+02  0.00000000000E+00 0.  1.
         23    2    1    2    0    0  0.76083008472E+01  0.11970513219E+03  0.14448379413E+03  0.22558442485E+03  0.12500224421E+03 0.  0.
         23    2    1    2    0    0 -0.76083008472E+01 -0.11970513219E+03  0.17582789836E+03  0.23174359039E+03  0.91664807465E+02 0.  0.
          5    1    3    3  502    0 -0.37212201237E+02  0.12397069296E+02  0.87483115290E+02  0.95988648854E+02  0.47000000000E+01 0.  1.
         -5    1    3    3    0  502  0.44820502084E+02  0.10730806289E+03  0.57000678835E+02  0.12959577600E+03  0.47000000000E+01 0.  1.
        -11    1    4    4    0    0  0.20420099048E+02 -0.11664289581E+02  0.43946360807E-01  0.23516760573E+02  0.00000000000E+00 0.  1.
         11    1    4    4    0    0 -0.28028399895E+02 -0.10804084261E+03  0.17578395200E+03  0.20822682981E+03  0.00000000000E+00 0. -1.
<mgrwt>
<rscale>  0 0.16738130E+03</rscale>
<asrwt>0</asrwt>
<pdfrwt beam="1">  1        2 0.59818438E-01 0.17324193E+03</pdfrwt>
<pdfrwt beam="2">  1       -2 0.10539717E-01 0.17324193E+03</pdfrwt>
<totfact> 0.48928434E+03</totfact>
</mgrwt>
</event>
<event>
 8    1  0.1154424E-005  0.1196500E+03  0.7546771E-02  0.1252306E+00
          2   -1    0    0  501    0  0.00000000000E+00  0.00000000000E+00  0.61530024756E+02  0.61530024756E+02  0.00000000000E+00 0. -1.
         -2   -1    0    0    0  501 -0.00000000000E+00 -0.00000000000E+00 -0.27731537702E+03  0.27731537702E+03  0.00000000000E+00 0.  1.
         23    2    1    2    0    0 -0.40216702426E+02  0.38418208481E+01 -0.20534664721E+03  0.23766230438E+03  0.11262318883E+03 0.  0.
         23    2    1    2    0    0  0.40216702426E+02 -0.38418208481E+01 -0.10438705058E+02  0.10118309740E+03  0.92178684601E+02 0.  0.
          5    1    3    3  502    0  0.18019936166E+02  0.34597550194E+02 -0.13744775157E+03  0.14295342944E+03  0.47000000000E+01 0. -1.
         -5    1    3    3    0  502 -0.58236638593E+02 -0.30755729346E+02 -0.67898895643E+02  0.94708874936E+02  0.47000000000E+01 0.  1.
        -11    1    4    4    0    0  0.24681368234E+02 -0.27358548332E+02 -0.43978065492E+02  0.57373603243E+02  0.00000000000E+00 0.  1.
         11    1    4    4    0    0  0.15535334192E+02  0.23516727484E+02  0.33539360433E+02  0.43809494157E+02  0.00000000000E+00 0. -1.
<mgrwt>
<rscale>  0 0.11458576E+03</rscale>
<asrwt>0</asrwt>
<pdfrwt beam="1">  1        2 0.94661576E-02 0.11965001E+03</pdfrwt>
<pdfrwt beam="2">  1       -2 0.42663904E-01 0.11965001E+03</pdfrwt>
<totfact> 0.34268985E+03</totfact>
</mgrwt>
</event>
<event>
 8    1  0.1154424E-005  0.2060887E+03  0.7546771E-02  0.1151536E+00
         -2   -1    0    0    0  501 -0.00000000000E+00  0.00000000000E+00  0.74228796220E+02  0.74228796220E+02  0.00000000000E+00 0. -1.
          2   -1    0    0  501    0  0.00000000000E+00 -0.00000000000E+00 -0.48968845000E+03  0.48968845000E+03  0.00000000000E+00 0.  1.
         23    2    1    2    0    0 -0.11962588272E+03 -0.11196923911E+03 -0.22856484747E+03  0.30775711389E+03  0.12500035732E+03 0.  0.
         23    2    1    2    0    0  0.11962588272E+03  0.11196923911E+03 -0.18689480632E+03  0.25616013233E+03  0.61974853321E+02 0.  0.
          5    1    3    3  502    0 -0.79534700314E+02 -0.10451458411E+03 -0.23192499630E+03  0.26657149276E+03  0.47000000000E+01 0.  1.
         -5    1    3    3    0  502 -0.40091182403E+02 -0.74546549981E+01  0.33601488312E+01  0.41185621129E+02  0.47000000000E+01 0.  1.
        -11    1    4    4    0    0  0.75916282842E+02  0.29902969082E+02 -0.98023811871E+02  0.12753876765E+03  0.00000000000E+00 0.  1.
         11    1    4    4    0    0  0.43709599875E+02  0.82066270031E+02 -0.88870994445E+02  0.12862136468E+03  0.00000000000E+00 0. -1.
<mgrwt>
<rscale>  0 0.19788474E+03</rscale>
<asrwt>0</asrwt>
<pdfrwt beam="2">  1        2 0.75336681E-01 0.20608870E+03</pdfrwt>
<pdfrwt beam="1">  1       -2 0.11419815E-01 0.20608870E+03</pdfrwt>
<totfact> 0.33712054E+03</totfact>
</mgrwt>
</event>
<event>
 7    1  0.1154424E-005  0.3360616E+03  0.7546771E-02  0.1068486E+00
         -1   -1    0    0    0  501 -0.00000000000E+00  0.00000000000E+00  0.10988699240E+02  0.10988699240E+02  0.00000000000E+00 0.  1.
          1   -1    0    0  501    0  0.00000000000E+00 -0.00000000000E+00 -0.25693980849E+04  0.25693980849E+04  0.00000000000E+00 0. -1.
         23    2    1    2    0    0 -0.58136663201E+02 -0.57206109317E+02 -0.57297997756E+03  0.58623787335E+03  0.93361549442E+02 0.  0.
          5    1    1    2  502    0  0.94740262071E+02  0.83904302086E+02 -0.17346449951E+04  0.17392616244E+04  0.47000000000E+01 0. -1.
         -5    1    1    2    0  502 -0.36603598871E+02 -0.26698192769E+02 -0.25078441301E+03  0.25488728637E+03  0.47000000000E+01 0.  1.
        -11    1    3    3    0    0 -0.82776798507E+02 -0.45198101555E+02 -0.48507450372E+03  0.49415801209E+03  0.00000000000E+00 0.  1.
         11    1    3    3    0    0  0.24640135306E+02 -0.12008007762E+02 -0.87905473834E+02  0.92079861253E+02  0.00000000000E+00 0. -1.
<mgrwt>
<rscale>  0 0.33606156E+03</rscale>
<asrwt>0</asrwt>
<pdfrwt beam="2">  1        1 0.39529281E+00 0.33606156E+03</pdfrwt>
<pdfrwt beam="1">  1       -1 0.16905657E-02 0.33606156E+03</pdfrwt>
<totfact> 0.12420278E+03</totfact>
</mgrwt>
</event>
<event>
 8    1  0.1154424E-005  0.1297977E+03  0.7546771E-02  0.1241658E+00
          2   -1    0    0  501    0  0.00000000000E+00  0.00000000000E+00  0.89727110895E+02  0.89727110895E+02  0.00000000000E+00 0.  1.
         -2   -1    0    0    0  501 -0.00000000000E+00 -0.00000000000E+00 -0.14429599798E+03  0.14429599798E+03  0.00000000000E+00 0. -1.
         23    2    1    2    0    0  0.70245318541E+01 -0.34280790990E+02 -0.26962032780E+02  0.13256843613E+03  0.12499168920E+03 0.  0.
         23    2    1    2    0    0 -0.70245318541E+01  0.34280790990E+02 -0.27606854305E+02  0.10145467274E+03  0.91139429108E+02 0.  0.
          5    1    3    3  502    0 -0.74232032402E+01  0.44380212892E+02 -0.26541882316E+02  0.52452538161E+02  0.47000000000E+01 0.  1.
         -5    1    3    3    0  502  0.14447735094E+02 -0.78661003882E+02 -0.42015046469E+00  0.80115897970E+02  0.47000000000E+01 0.  1.
        -11    1    4    4    0    0 -0.97564877117E+01 -0.21121607003E+02 -0.38444142101E+02  0.44936214758E+02  0.00000000000E+00 0. -1.
         11    1    4    4    0    0  0.27319558576E+01  0.55402397993E+02  0.10837287797E+02  0.56518457985E+02  0.00000000000E+00 0.  1.
<mgrwt>
<rscale>  0 0.12087654E+03</rscale>
<asrwt>0</asrwt>
<pdfrwt beam="1">  1        2 0.13804171E-01 0.12979769E+03</pdfrwt>
<pdfrwt beam="2">  1       -2 0.22199384E-01 0.12979769E+03</pdfrwt>
<totfact> 0.71166188E+03</totfact>
</mgrwt>
</event>
<event>
 8    1  0.1154424E-005  0.2034184E+03  0.7546771E-02  0.1150908E+00
         -1   -1    0    0    0  501 -0.00000000000E+00  0.00000000000E+00  0.15464477183E+03  0.15464477183E+03  0.00000000000E+00 0.  1.
          1   -1    0    0  501    0  0.00000000000E+00 -0.00000000000E+00 -0.26785513700E+03  0.26785513700E+03  0.00000000000E+00 0. -1.
         23    2    1    2    0    0 -0.98025495404E+02  0.12706386198E+03  0.42259747306E+01  0.20346228277E+03  0.12499927551E+03 0.  0.
         23    2    1    2    0    0  0.98025495404E+02 -0.12706386198E+03 -0.11743633990E+03  0.21903762606E+03  0.91825731301E+02 0.  0.
          5    1    3    3  502    0 -0.85009708664E+02  0.74568135168E+02 -0.52659513978E+02  0.12482856949E+03  0.47000000000E+01 0. -1.
         -5    1    3    3    0  502 -0.13015786740E+02  0.52495726811E+02  0.56885488709E+02  0.78633713276E+02  0.47000000000E+01 0. -1.
        -11    1    4    4    0    0  0.39596434672E+02 -0.24902919425E+01 -0.25002010691E+01  0.39753367128E+02  0.00000000000E+00 0.  1.
         11    1    4    4    0    0  0.58429060732E+02 -0.12457357004E+03 -0.11493613883E+03  0.17928425893E+03  0.00000000000E+00 0. -1.
<mgrwt>
<rscale>  0 0.19862047E+03</rscale>
<asrwt>0</asrwt>
<pdfrwt beam="2">  1        1 0.41208482E-01 0.20341839E+03</pdfrwt>
<pdfrwt beam="1">  1       -1 0.23791504E-01 0.20341839E+03</pdfrwt>
<totfact> 0.15205475E+03</totfact>
</mgrwt>
</event>
<event>
 8    1  0.1154424E-005  0.1994408E+03  0.7546771E-02  0.1154524E+00
         -1   -1    0    0    0  501 -0.00000000000E+00  0.00000000000E+00  0.10844123336E+03  0.10844123336E+03  0.00000000000E+00 0.  1.
          1   -1    0    0  501    0  0.00000000000E+00 -0.00000000000E+00 -0.44217985060E+03  0.44217985060E+03  0.00000000000E+00 0. -1.
         23    2    1    2    0    0 -0.67296013024E+02  0.14008951253E+03 -0.36056048107E+02  0.20267379845E+03  0.12499122002E+03 0.  0.
         23    2    1    2    0    0  0.67296013024E+02 -0.14008951253E+03 -0.29768256914E+03  0.34794728550E+03  0.91096523707E+02 0.  0.
          5    1    3    3  502    0 -0.32656619679E+02 -0.19431952906E+01 -0.45341017676E+02  0.56108187466E+02  0.47000000000E+01 0. -1.
         -5    1    3    3    0  502 -0.34639393344E+02  0.14203270782E+03  0.92849695692E+01  0.14656561098E+03  0.47000000000E+01 0. -1.
        -11    1    4    4    0    0  0.76993659696E+02 -0.93218628174E+02 -0.26100059138E+03  0.28764395522E+03  0.00000000000E+00 0. -1.
         11    1    4    4    0    0 -0.96976466719E+01 -0.46870884361E+02 -0.36681977756E+02  0.60303330288E+02  0.00000000000E+00 0.  1.
<mgrwt>
<rscale>  0 0.19443138E+03</rscale>
<asrwt>0</asrwt>
<pdfrwt beam="2">  1        1 0.68027668E-01 0.19944079E+03</pdfrwt>
<pdfrwt beam="1">  1       -1 0.16683267E-01 0.19944079E+03</pdfrwt>
<totfact> 0.14334266E+03</totfact>
</mgrwt>
</event>
<event>
 8    1  0.1154424E-005  0.1382126E+03  0.7546771E-02  0.1226468E+00
          1   -1    0    0  501    0  0.00000000000E+00  0.00000000000E+00  0.13129232032E+03  0.13129232032E+03  0.00000000000E+00 0. -1.
         -1   -1    0    0    0  501 -0.00000000000E+00 -0.00000000000E+00 -0.11969390206E+03  0.11969390206E+03  0.00000000000E+00 0.  1.
         23    2    1    2    0    0  0.53748556437E+02  0.24847435947E+02  0.22500681896E+02  0.14003218202E+03  0.12488566340E+03 0.  0.
         23    2    1    2    0    0 -0.53748556437E+02 -0.24847435947E+02 -0.10902263634E+02  0.11095404036E+03  0.93196766717E+02 0.  0.
          5    1    3    3  502    0 -0.55103829724E+01 -0.43146093809E+02  0.23602380129E+02  0.49710281423E+02  0.47000000000E+01 0. -1.
         -5    1    3    3    0  502  0.59258939409E+02  0.67993529756E+02 -0.11016982330E+01  0.90321900598E+02  0.47000000000E+01 0. -1.
        -11    1    4    4    0    0 -0.42166783780E+02 -0.44288688353E+02 -0.40759085694E+02  0.73490330228E+02  0.00000000000E+00 0.  1.
         11    1    4    4    0    0 -0.11581772657E+02  0.19441252406E+02  0.29856822060E+02  0.37463710127E+02  0.00000000000E+00 0. -1.
<mgrwt>
<rscale>  0 0.13066820E+03</rscale>
<asrwt>0</asrwt>
<pdfrwt beam="1">  1        1 0.20198818E-01 0.13821263E+03</pdfrwt>
<pdfrwt beam="2">  1       -1 0.18414447E-01 0.13821263E+03</pdfrwt>
<totfact> 0.55499501E+03</totfact>
</mgrwt>
</event>
<event>
 8    1  0.1154424E-005  0.1987596E+03  0.7546771E-02  0.1155098E+00
          2   -1    0    0  501    0  0.00000000000E+00  0.00000000000E+00  0.14320546312E+04  0.14320546312E+04  0.00000000000E+00 0. -1.
         -2   -1    0    0    0  501 -0.00000000000E+00 -0.00000000000E+00 -0.25300630169E+02  0.25300630169E+02  0.00000000000E+00 0.  1.
         23    2    1    2    0    0 -0.10871650361E+03 -0.10982239422E+03  0.65755821572E+03  0.68694118255E+03  0.12500057919E+03 0.  0.
         23    2    1    2    0    0  0.10871650361E+03  0.10982239422E+03  0.74919578531E+03  0.77041407882E+03  0.91451034340E+02 0.  0.
          5    1    3    3  502    0 -0.20228585792E+02  0.45942378989E+01  0.30631869521E+03  0.30705624198E+03  0.47000000000E+01 0.  1.
         -5    1    3    3    0  502 -0.88487917814E+02 -0.11441663212E+03  0.35123952051E+03  0.37988494057E+03  0.47000000000E+01 0.  1.
        -11    1    4    4    0    0  0.66550000030E+02  0.14220727358E+02  0.40603208711E+03  0.41169550320E+03  0.00000000000E+00 0.  1.
         11    1    4    4    0    0  0.42166503577E+02  0.95601666860E+02  0.34316369820E+03  0.35871857561E+03  0.00000000000E+00 0. -1.
<mgrwt>
<rscale>  0 0.19377664E+03</rscale>
<asrwt>0</asrwt>
<pdfrwt beam="1">  1        2 0.22031603E+00 0.19875961E+03</pdfrwt>
<pdfrwt beam="2">  1       -2 0.38924058E-02 0.19875961E+03</pdfrwt>
<totfact> 0.42316405E+03</totfact>
</mgrwt>
</event>
<event>
 8    1  0.1154424E-005  0.1468912E+03  0.7546771E-02  0.1214536E+00
         -1   -1    0    0    0  501 -0.00000000000E+00  0.00000000000E+00  0.68105408050E+02  0.68105408050E+02  0.00000000000E+00 0.  1.
          1   -1    0    0  501    0  0.00000000000E+00 -0.00000000000E+00 -0.27624093255E+03  0.27624093255E+03  0.00000000000E+00 0. -1.
         23    2    1    2    0    0  0.23516923359E+02 -0.74225842471E+02 -0.70420236265E+02  0.16289883390E+03  0.12455721189E+03 0.  0.
         23    2    1    2    0    0 -0.23516923359E+02  0.74225842471E+02 -0.13771528824E+03  0.18144750670E+03  0.88854801224E+02 0.  0.
          5    1    3    3  502    0 -0.40895230648E+02 -0.13715792158E+02 -0.59625440760E+02  0.73741616677E+02  0.47000000000E+01 0. -1.
         -5    1    3    3    0  502  0.64412154007E+02 -0.60510050312E+02 -0.10794795505E+02  0.89157217221E+02  0.47000000000E+01 0.  1.
        -11    1    4    4    0    0 -0.51569942739E+02  0.19262844950E+02 -0.78848382078E+02  0.96164356942E+02  0.00000000000E+00 0.  1.
         11    1    4    4    0    0  0.28053019380E+02  0.54962997520E+02 -0.58866906159E+02  0.85283149763E+02  0.00000000000E+00 0. -1.
<mgrwt>
<rscale>  0 0.13910685E+03</rscale>
<asrwt>0</asrwt>
<pdfrwt beam="2">  1        1 0.42498605E-01 0.14689119E+03</pdfrwt>
<pdfrwt beam="1">  1       -1 0.10477755E-01 0.14689119E+03</pdfrwt>
<totfact> 0.53028581E+03</totfact>
</mgrwt>
</event>
<event>
 8    1  0.1154424E-005  0.1520593E+03  0.7546771E-02  0.1206851E+00
         -2   -1    0    0    0  501 -0.00000000000E+00  0.00000000000E+00  0.49602854826E+02  0.49602854826E+02  0.00000000000E+00 0.  1.
          2   -1    0    0  501    0  0.00000000000E+00 -0.00000000000E+00 -0.50067804690E+03  0.50067804690E+03  0.00000000000E+00 0. -1.
         23    2    1    2    0    0 -0.61910182347E+02 -0.60530198096E+02 -0.11234407864E+03  0.18905881293E+03  0.12500106872E+03 0.  0.
         23    2    1    2    0    0  0.61910182347E+02  0.60530198096E+02 -0.33873111343E+03  0.36122208880E+03  0.90806688455E+02 0.  0.
          5    1    3    3  502    0 -0.99681729135E+02 -0.33262260094E+02 -0.75551691502E+02  0.12951051370E+03  0.47000000000E+01 0. -1.
         -5    1    3    3    0  502  0.37771546788E+02 -0.27267938002E+02 -0.36792387137E+02  0.59548299227E+02  0.47000000000E+01 0. -1.
        -11    1    4    4    0    0  0.17240118179E+02  0.46218505258E+02 -0.28773941427E+03  0.29193722344E+03  0.00000000000E+00 0. -1.
         11    1    4    4    0    0  0.44670064168E+02  0.14311692839E+02 -0.50991699163E+02  0.69284865362E+02  0.00000000000E+00 0.  1.
<mgrwt>
<rscale>  0 0.14492539E+03</rscale>
<asrwt>0</asrwt>
<pdfrwt beam="2">  1        2 0.77027398E-01 0.15205934E+03</pdfrwt>
<pdfrwt beam="1">  1       -2 0.76312078E-02 0.15205934E+03</pdfrwt>
<totfact> 0.61190004E+03</totfact>
</mgrwt>
</event>
<event>
 8    1  0.1154424E-005  0.1444505E+03  0.7546771E-02  0.1220757E+00
         -1   -1    0    0    0  501 -0.00000000000E+00  0.00000000000E+00  0.83664484963E+02  0.83664484963E+02  0.00000000000E+00 0.  1.
          1   -1    0    0  501    0  0.00000000000E+00 -0.00000000000E+00 -0.20724050639E+03  0.20724050639E+03  0.00000000000E+00 0. -1.
         23    2    1    2    0    0  0.63722420333E+00  0.72396682696E+02 -0.30580869396E+02  0.14765204006E+03  0.12499699852E+03 0.  0.
         23    2    1    2    0    0 -0.63722420333E+00 -0.72396682696E+02 -0.92995152027E+02  0.14325295129E+03  0.81434783926E+02 0.  0.
          5    1    3    3  502    0  0.40773652999E+02  0.55021781473E+02  0.28220416022E+02  0.74218387855E+02  0.47000000000E+01 0.  1.
         -5    1    3    3    0  502 -0.40136428795E+02  0.17374901223E+02 -0.58801285418E+02  0.73433652202E+02  0.47000000000E+01 0.  1.
        -11    1    4    4    0    0 -0.34403013392E+02 -0.57703997885E+02 -0.79379491300E+02  0.10399241483E+03  0.00000000000E+00 0.  1.
         11    1    4    4    0    0  0.33765789188E+02 -0.14692684811E+02 -0.13615660727E+02  0.39260536465E+02  0.00000000000E+00 0. -1.
<mgrwt>
<rscale>  0 0.13462034E+03</rscale>
<asrwt>0</asrwt>
<pdfrwt beam="2">  1        1 0.31883154E-01 0.14445046E+03</pdfrwt>
<pdfrwt beam="1">  1       -1 0.12871459E-01 0.14445046E+03</pdfrwt>
<totfact> 0.55085176E+03</totfact>
</mgrwt>
</event>
<event>
 8    1  0.1154424E-005  0.1325182E+03  0.7546771E-02  0.1233549E+00
          1   -1    0    0  501    0  0.00000000000E+00  0.00000000000E+00  0.13106523990E+02  0.13106523990E+02  0.00000000000E+00 0. -1.
         -1   -1    0    0    0  501 -0.00000000000E+00 -0.00000000000E+00 -0.16096782104E+04  0.16096782104E+04  0.00000000000E+00 0.  1.
         23    2    1    2    0    0 -0.43149315342E+01  0.43790290138E+02 -0.13060844313E+04  0.13127900094E+04  0.12499943549E+03 0.  0.
         23    2    1    2    0    0  0.43149315342E+01 -0.43790290138E+02 -0.29048725507E+03  0.30999472498E+03  0.98882131921E+02 0.  0.
          5    1    3    3  502    0 -0.32351574295E+02  0.60698499383E+02 -0.38581185818E+03  0.39192322220E+03  0.47000000000E+01 0. -1.
         -5    1    3    3    0  502  0.28036642760E+02 -0.16908209245E+02 -0.92027257314E+03  0.92086678719E+03  0.47000000000E+01 0. -1.
        -11    1    4    4    0    0 -0.44817999102E+02 -0.36685964095E+02 -0.17343104491E+03  0.18284649394E+03  0.00000000000E+00 0.  1.
         11    1    4    4    0    0  0.49132930636E+02 -0.71043260427E+01 -0.11705621016E+03  0.12714823104E+03  0.00000000000E+00 0. -1.
<mgrwt>
<rscale>  0 0.12597785E+03</rscale>
<asrwt>0</asrwt>
<pdfrwt beam="1">  1        1 0.20163890E-02 0.13251818E+03</pdfrwt>
<pdfrwt beam="2">  1       -1 0.24764272E+00 0.13251818E+03</pdfrwt>
<totfact> 0.48749145E+02</totfact>
</mgrwt>
</event>
<event>
 8    1  0.1154424E-005  0.2193739E+03  0.7546771E-02  0.1137647E+00
         -1   -1    0    0    0  501 -0.00000000000E+00  0.00000000000E+00  0.24555960539E+03  0.24555960539E+03  0.00000000000E+00 0.  1.
          1   -1    0    0  501    0  0.00000000000E+00 -0.00000000000E+00 -0.32345620069E+03  0.32345620069E+03  0.00000000000E+00 0. -1.
         23    2    1    2    0    0 -0.18011569419E+03  0.75669170622E+01  0.14878083345E+03  0.26506722456E+03  0.12500390238E+03 0.  0.
         23    2    1    2    0    0  0.18011569419E+03 -0.75669170622E+01 -0.22667742874E+03  0.30394858152E+03  0.92212591230E+02 0.  0.
          5    1    3    3  502    0 -0.70652087495E+01 -0.34848545563E+02  0.52997097107E+01  0.36256243953E+02  0.47000000000E+01 0. -1.
         -5    1    3    3    0  502 -0.17305048544E+03  0.42415462625E+02  0.14348112374E+03  0.22881098061E+03  0.47000000000E+01 0. -1.
        -11    1    4    4    0    0  0.15720648420E+02 -0.32035969219E+01 -0.86153388330E+02  0.87634514552E+02  0.00000000000E+00 0. -1.
         11    1    4    4    0    0  0.16439504577E+03 -0.43633201404E+01 -0.14052404041E+03  0.21631406697E+03  0.00000000000E+00 0.  1.
<mgrwt>
<rscale>  0 0.21502523E+03</rscale>
<asrwt>0</asrwt>
<pdfrwt beam="2">  1        1 0.49762492E-01 0.21937388E+03</pdfrwt>
<pdfrwt beam="1">  1       -1 0.37778401E-01 0.21937388E+03</pdfrwt>
<totfact> 0.54726228E+02</totfact>
</mgrwt>
</event>
<event>
 8    1  0.1154424E-005  0.1384008E+03  0.7546771E-02  0.1226962E+00
          1   -1    0    0  501    0  0.00000000000E+00  0.00000000000E+00  0.14734076392E+03  0.14734076392E+03  0.00000000000E+00 0. -1.
         -1   -1    0    0    0  501 -0.00000000000E+00 -0.00000000000E+00 -0.16631892234E+03  0.16631892234E+03  0.00000000000E+00 0.  1.
         23    2    1    2    0    0  0.33987131865E+02  0.48803284653E+02 -0.10598002270E+03  0.17431738903E+03  0.12497160149E+03 0.  0.
         23    2    1    2    0    0 -0.33987131865E+02 -0.48803284653E+02  0.87001864289E+02  0.13934229723E+03  0.91159561667E+02 0.  0.
          5    1    3    3  502    0 -0.45157642161E+02  0.38760747119E+00 -0.37921653449E+02  0.59156611510E+02  0.47000000000E+01 0.  1.
         -5    1    3    3    0  502  0.79144774026E+02  0.48415677182E+02 -0.68058369256E+02  0.11516077752E+03  0.47000000000E+01 0.  1.
        -11    1    4    4    0    0  0.17263416309E+02 -0.43674591535E+02  0.71517746830E+02  0.85558655904E+02  0.00000000000E+00 0. -1.
         11    1    4    4    0    0 -0.51250548175E+02 -0.51286931184E+01  0.15484117459E+02  0.53783641331E+02  0.00000000000E+00 0.  1.
<mgrwt>
<rscale>  0 0.13033313E+03</rscale>
<asrwt>0</asrwt>
<pdfrwt beam="1">  1        1 0.22667810E-01 0.13840082E+03</pdfrwt>
<pdfrwt beam="2">  1       -1 0.25587527E-01 0.13840082E+03</pdfrwt>
<totfact> 0.28149339E+03</totfact>
</mgrwt>
</event>
<event>
 8    1  0.1154424E-005  0.1283886E+03  0.7546771E-02  0.1244749E+00
         -2   -1    0    0    0  501 -0.00000000000E+00  0.00000000000E+00  0.73296164661E+02  0.73296164661E+02  0.00000000000E+00 0. -1.
          2   -1    0    0  501    0  0.00000000000E+00 -0.00000000000E+00 -0.18321527100E+03  0.18321527100E+03  0.00000000000E+00 0.  1.
         23    2    1    2    0    0  0.29295229040E+02  0.81183092526E+00 -0.28371749958E+02  0.13148604784E+03  0.12499902026E+03 0.  0.
         23    2    1    2    0    0 -0.29295229040E+02 -0.81183092526E+00 -0.81547356381E+02  0.12502538782E+03  0.90124950781E+02 0.  0.
          5    1    3    3  502    0  0.16219279517E+02  0.33302615551E+02  0.39878200335E+02  0.54630486841E+02  0.47000000000E+01 0. -1.
         -5    1    3    3    0  502  0.13075949523E+02 -0.32490784626E+02 -0.68249950293E+02  0.76855560999E+02  0.47000000000E+01 0. -1.
        -11    1    4    4    0    0 -0.35798018716E+02  0.33923763969E+02 -0.73936775385E+02  0.88876130992E+02  0.00000000000E+00 0.  1.
         11    1    4    4    0    0  0.65027896758E+01 -0.34735594894E+02 -0.76105809962E+01  0.36149256830E+02  0.00000000000E+00 0. -1.
<mgrwt>
<rscale>  0 0.11900429E+03</rscale>
<asrwt>0</asrwt>
<pdfrwt beam="2">  1        2 0.28186965E-01 0.12838857E+03</pdfrwt>
<pdfrwt beam="1">  1       -2 0.11276333E-01 0.12838857E+03</pdfrwt>
<totfact> 0.96530385E+03</totfact>
</mgrwt>
</event>
<event>
 8    1  0.1154424E-005  0.1589870E+03  0.7546771E-02  0.1197575E+00
         -1   -1    0    0    0  501 -0.00000000000E+00  0.00000000000E+00  0.22864181553E+02  0.22864181553E+02  0.00000000000E+00 0. -1.
          1   -1    0    0  501    0  0.00000000000E+00 -0.00000000000E+00 -0.95866866271E+03  0.95866866271E+03  0.00000000000E+00 0.  1.
         23    2    1    2    0    0  0.13134525318E+02  0.97108906372E+02 -0.43794104587E+03  0.46590689929E+03  0.12519673996E+03 0.  0.
         23    2    1    2    0    0 -0.13134525318E+02 -0.97108906372E+02 -0.49786343529E+03  0.51562594498E+03  0.91648565083E+02 0.  0.
          5    1    3    3  502    0 -0.45243259249E+02  0.13035414262E+01 -0.15353153999E+03  0.16013330540E+03  0.47000000000E+01 0. -1.
         -5    1    3    3    0  502  0.58377784567E+02  0.95805364945E+02 -0.28440950589E+03  0.30577359389E+03  0.47000000000E+01 0. -1.
        -11    1    4    4    0    0 -0.33536123578E+02 -0.21848157850E+02 -0.69315365922E+02  0.80041448881E+02  0.00000000000E+00 0.  1.
         11    1    4    4    0    0  0.20401598260E+02 -0.75260748521E+02 -0.42854806937E+03  0.43558449609E+03  0.00000000000E+00 0. -1.
<mgrwt>
<rscale>  0 0.15238308E+03</rscale>
<asrwt>0</asrwt>
<pdfrwt beam="2">  1        1 0.14748748E+00 0.15898704E+03</pdfrwt>
<pdfrwt beam="1">  1       -1 0.35175665E-02 0.15898704E+03</pdfrwt>
<totfact> 0.50245174E+03</totfact>
</mgrwt>
</event>
<event>
 8    1  0.1154424E-005  0.1484463E+03  0.7546771E-02  0.1211543E+00
         -2   -1    0    0    0  501 -0.00000000000E+00  0.00000000000E+00  0.13993063545E+02  0.13993063545E+02  0.00000000000E+00 0.  1.
          2   -1    0    0  501    0  0.00000000000E+00 -0.00000000000E+00 -0.13088495494E+04  0.13088495494E+04  0.00000000000E+00 0. -1.
         23    2    1    2    0    0  0.53361844842E+02 -0.59682054551E+02 -0.68316515033E+03  0.69910724147E+03  0.12500751310E+03 0.  0.
         23    2    1    2    0    0 -0.53361844842E+02  0.59682054551E+02 -0.61169133549E+03  0.62373537143E+03  0.92033089429E+02 0.  0.
          5    1    3    3  502    0 -0.39309851877E+02 -0.27380657931E+02 -0.17325956319E+03  0.17982194282E+03  0.47000000000E+01 0.  1.
         -5    1    3    3    0  502  0.92671696719E+02 -0.32301396620E+02 -0.50990558714E+03  0.51928529865E+03  0.47000000000E+01 0.  1.
        -11    1    4    4    0    0 -0.54967689066E+02  0.82362614629E+02 -0.48202244523E+03  0.49208808646E+03  0.00000000000E+00 0.  1.
         11    1    4    4    0    0  0.16058442241E+01 -0.22680560078E+02 -0.12966889026E+03  0.13164728498E+03  0.00000000000E+00 0. -1.
<mgrwt>
<rscale>  0 0.14133533E+03</rscale>
<asrwt>0</asrwt>
<pdfrwt beam="2">  1        2 0.20136144E+00 0.14844633E+03</pdfrwt>
<pdfrwt beam="1">  1       -2 0.21527793E-02 0.14844633E+03</pdfrwt>
<totfact> 0.11708805E+04</totfact>
</mgrwt>
</event>
<event>
 8    1  0.1154424E-005  0.1396012E+03  0.7546771E-02  0.1225505E+00
         -1   -1    0    0    0  501 -0.00000000000E+00  0.00000000000E+00  0.93309053362E+03  0.93309053362E+03  0.00000000000E+00 0.  1.
          1   -1    0    0  501    0  0.00000000000E+00 -0.00000000000E+00 -0.18718339295E+02  0.18718339295E+02  0.00000000000E+00 0. -1.
         23    2    1    2    0    0  0.89346544538E+01  0.61514826755E+02  0.66549946086E+03  0.67998383477E+03  0.12499832473E+03 0.  0.
         23    2    1    2    0    0 -0.89346544538E+01 -0.61514826755E+02  0.24887273347E+03  0.27182503815E+03  0.89929483146E+02 0.  0.
          5    1    3    3  502    0  0.21033864219E+02  0.96056029994E+02  0.40018250647E+03  0.41211322816E+03  0.47000000000E+01 0. -1.
         -5    1    3    3    0  502 -0.12099209765E+02 -0.34541203239E+02  0.26531695439E+03  0.26787060661E+03  0.47000000000E+01 0. -1.
        -11    1    4    4    0    0  0.23365031213E+01 -0.78976346150E+02  0.23190453729E+03  0.24499476915E+03  0.00000000000E+00 0.  1.
         11    1    4    4    0    0 -0.11271157575E+02  0.17461519395E+02  0.16968196182E+02  0.26830268995E+02  0.00000000000E+00 0. -1.
<mgrwt>
<rscale>  0 0.13132375E+03</rscale>
<asrwt>0</asrwt>
<pdfrwt beam="2">  1        1 0.28797452E-02 0.13960116E+03</pdfrwt>
<pdfrwt beam="1">  1       -1 0.14355235E+00 0.13960116E+03</pdfrwt>
<totfact> 0.14940155E+03</totfact>
</mgrwt>
</event>
<event>
 8    1  0.1154424E-005  0.1312979E+03  0.7546771E-02  0.1239701E+00
          2   -1    0    0  501    0  0.00000000000E+00  0.00000000000E+00  0.68652147489E+02  0.68652147489E+02  0.00000000000E+00 0. -1.
         -2   -1    0    0    0  501 -0.00000000000E+00 -0.00000000000E+00 -0.23962635597E+03  0.23962635597E+03  0.00000000000E+00 0.  1.
         23    2    1    2    0    0 -0.20924656902E+02  0.34302017130E+02 -0.16373115268E+03  0.20987385041E+03  0.12499869232E+03 0.  0.
         23    2    1    2    0    0  0.20924656902E+02 -0.34302017130E+02 -0.72430557980E+01  0.98404653049E+02  0.89535156440E+02 0.  0.
          5    1    3    3  502    0 -0.42981218732E+02  0.24378099201E+02 -0.17563218542E+03  0.18251145564E+03  0.47000000000E+01 0. -1.
         -5    1    3    3    0  502  0.22056561830E+02  0.99239179292E+01  0.11901032744E+02  0.27362394763E+02  0.47000000000E+01 0. -1.
        -11    1    4    4    0    0  0.53312241346E+02 -0.22578622895E+02 -0.20613520656E+02  0.61456541743E+02  0.00000000000E+00 0.  1.
         11    1    4    4    0    0 -0.32387584444E+02 -0.11723394235E+02  0.13370464858E+02  0.36948111305E+02  0.00000000000E+00 0. -1.
<mgrwt>
<rscale>  0 0.12208221E+03</rscale>
<asrwt>0</asrwt>
<pdfrwt beam="1">  1        2 0.10561869E-01 0.13129792E+03</pdfrwt>
<pdfrwt beam="2">  1       -2 0.36865593E-01 0.13129792E+03</pdfrwt>
<totfact> 0.39723857E+03</totfact>
</mgrwt>
</event>
<event>
 8    1  0.1154424E-005  0.1277269E+03  0.7546771E-02  0.1248286E+00
         -1   -1    0    0    0  501 -0.00000000000E+00  0.00000000000E+00  0.26991504277E+03  0.26991504277E+03  0.00000000000E+00 0.  1.
          1   -1    0    0  501    0  0.00000000000E+00 -0.00000000000E+00 -0.44057944755E+02  0.44057944755E+02  0.00000000000E+00 0. -1.
         23    2    1    2    0    0 -0.15614922013E+02  0.20583077691E+02  0.14518501859E+03  0.19337233573E+03  0.12508669684E+03 0.  0.
         23    2    1    2    0    0  0.15614922013E+02 -0.20583077691E+02  0.80672079431E+02  0.12060065180E+03  0.85843135647E+02 0.  0.
          5    1    3    3  502    0  0.19373146024E+01 -0.47442052336E+02  0.24467262484E+02  0.53621249997E+02  0.47000000000E+01 0.  1.
         -5    1    3    3    0  502 -0.17552236616E+02  0.68025130027E+02  0.12071775610E+03  0.13975108573E+03  0.47000000000E+01 0.  1.
        -11    1    4    4    0    0  0.45325002502E+02 -0.79377051210E+01  0.74742747291E+02  0.87771528909E+02  0.00000000000E+00 0. -1.
         11    1    4    4    0    0 -0.29710080488E+02 -0.12645372570E+02  0.59293321402E+01  0.32829122889E+02  0.00000000000E+00 0.  1.
<mgrwt>
<rscale>  0 0.11690833E+03</rscale>
<asrwt>0</asrwt>
<pdfrwt beam="2">  1        1 0.67781455E-02 0.12772694E+03</pdfrwt>
<pdfrwt beam="1">  1       -1 0.41525390E-01 0.12772694E+03</pdfrwt>
<totfact> 0.59631220E+03</totfact>
</mgrwt>
</event>
<event>
 8    1  0.1154424E-005  0.1457162E+03  0.7546771E-02  0.1216624E+00
         -2   -1    0    0    0  501 -0.00000000000E+00  0.00000000000E+00  0.38425993379E+02  0.38425993379E+02  0.00000000000E+00 0.  1.
          2   -1    0    0  501    0  0.00000000000E+00 -0.00000000000E+00 -0.45083056243E+03  0.45083056243E+03  0.00000000000E+00 0. -1.
         23    2    1    2    0    0 -0.58108836535E+02 -0.47243627539E+02 -0.20167861169E+03  0.24881213986E+03  0.12499848521E+03 0.  0.
         23    2    1    2    0    0  0.58108836535E+02  0.47243627539E+02 -0.21072595737E+03  0.24044441595E+03  0.88314725989E+02 0.  0.
          5    1    3    3  502    0 -0.34548741096E+02  0.31225532768E+02 -0.22918932695E+02  0.52115418869E+02  0.47000000000E+01 0. -1.
         -5    1    3    3    0  502 -0.23560095439E+02 -0.78469160307E+02 -0.17875967899E+03  0.19669672099E+03  0.47000000000E+01 0. -1.
        -11    1    4    4    0    0  0.61264805935E+02  0.52308887978E+01 -0.68218479417E+02  0.91839531673E+02  0.00000000000E+00 0.  1.
         11    1    4    4    0    0 -0.31559693994E+01  0.42012738742E+02 -0.14250747795E+03  0.14860488428E+03  0.00000000000E+00 0. -1.
<mgrwt>
<rscale>  0 0.13757889E+03</rscale>
<asrwt>0</asrwt>
<pdfrwt beam="2">  1        2 0.69358543E-01 0.14571623E+03</pdfrwt>
<pdfrwt beam="1">  1       -2 0.59116918E-02 0.14571623E+03</pdfrwt>
<totfact> 0.10116258E+04</totfact>
</mgrwt>
</event>
<event>
 8    1  0.1154424E-005  0.1862685E+03  0.7546771E-02  0.1167087E+00
         -2   -1    0    0    0  501 -0.00000000000E+00  0.00000000000E+00  0.55115769061E+02  0.55115769061E+02  0.00000000000E+00 0. -1.
          2   -1    0    0  501    0  0.00000000000E+00 -0.00000000000E+00 -0.60722424876E+03  0.60722424876E+03  0.00000000000E+00 0.  1.
         23    2    1    2    0    0 -0.48022821945E+02  0.12947705778E+03 -0.19926237211E+03  0.27276629148E+03  0.12500182762E+03 0.  0.
         23    2    1    2    0    0  0.48022821945E+02 -0.12947705778E+03 -0.35284610759E+03  0.38957372634E+03  0.90536250736E+02 0.  0.
          5    1    3    3  502    0  0.15493957340E+02  0.10299484627E+03 -0.67973742421E+02  0.12446092049E+03  0.47000000000E+01 0.  1.
         -5    1    3    3    0  502 -0.63516779285E+02  0.26482211511E+02 -0.13128862969E+03  0.14830537098E+03  0.47000000000E+01 0.  1.
        -11    1    4    4    0    0  0.66400256711E+02 -0.60345599862E+02 -0.23707661923E+03  0.25348749259E+03  0.00000000000E+00 0.  1.
         11    1    4    4    0    0 -0.18377434765E+02 -0.69131457915E+02 -0.11576948836E+03  0.13608623375E+03  0.00000000000E+00 0. -1.
<mgrwt>
<rscale>  0 0.18074233E+03</rscale>
<asrwt>0</asrwt>
<pdfrwt beam="2">  1        2 0.93419114E-01 0.18626851E+03</pdfrwt>
<pdfrwt beam="1">  1       -2 0.84793492E-02 0.18626851E+03</pdfrwt>
<totfact> 0.42189129E+03</totfact>
</mgrwt>
</event>
<event>
 8    1  0.1154424E-005  0.1399782E+03  0.7546771E-02  0.1227106E+00
         -3   -1    0    0    0  501 -0.00000000000E+00  0.00000000000E+00  0.98252439883E+03  0.98252439883E+03  0.00000000000E+00 0.  1.
          3   -1    0    0  501    0  0.00000000000E+00 -0.00000000000E+00 -0.16702783136E+02  0.16702783136E+02  0.00000000000E+00 0. -1.
         23    2    1    2    0    0 -0.39176938163E+02  0.49364953771E+02  0.69171654220E+03  0.70573768777E+03  0.12498871162E+03 0.  0.
         23    2    1    2    0    0  0.39176938163E+02 -0.49364953771E+02  0.27410507350E+03  0.29348949420E+03  0.83849631770E+02 0.  0.
          5    1    3    3  502    0  0.23614138056E+02 -0.17083839027E+01  0.27497962149E+02  0.36589260911E+02  0.47000000000E+01 0. -1.
         -5    1    3    3    0  502 -0.62791076218E+02  0.51073337673E+02  0.66421858005E+03  0.66914842685E+03  0.47000000000E+01 0. -1.
        -11    1    4    4    0    0 -0.63789296115E+01  0.14986059654E+02  0.13301290949E+02  0.21028482300E+02  0.00000000000E+00 0. -1.
         11    1    4    4    0    0  0.45555867774E+02 -0.64351013425E+02  0.26080378255E+03  0.27246101190E+03  0.00000000000E+00 0.  1.
<mgrwt>
<rscale>  0 0.13023622E+03</rscale>
<asrwt>0</asrwt>
<pdfrwt beam="2">  1        3 0.25696597E-02 0.13997825E+03</pdfrwt>
<pdfrwt beam="1">  1       -3 0.15115755E+00 0.13997825E+03</pdfrwt>
<totfact> 0.50842586E+02</totfact>
</mgrwt>
</event>
<event>
 8    1  0.1154424E-005  0.1306675E+03  0.7546771E-02  0.1242245E+00
          2   -1    0    0  501    0  0.00000000000E+00  0.00000000000E+00  0.19472537447E+03  0.19472537447E+03  0.00000000000E+00 0. -1.
         -2   -1    0    0    0  501 -0.00000000000E+00 -0.00000000000E+00 -0.65881220720E+02  0.65881220720E+02  0.00000000000E+00 0.  1.
         23    2    1    2    0    0  0.18645251822E+02  0.33147100513E+02  0.60866147730E+02  0.14414815539E+03  0.12501050786E+03 0.  0.
         23    2    1    2    0    0 -0.18645251822E+02 -0.33147100513E+02  0.67978006021E+02  0.11645843980E+03  0.86574726164E+02 0.  0.
          5    1    3    3  502    0 -0.13805898696E+02  0.20074570814E+02  0.93097447939E+02  0.96347371760E+02  0.47000000000E+01 0.  1.
         -5    1    3    3    0  502  0.32451150518E+02  0.13072529699E+02 -0.32231300209E+02  0.47800783632E+02  0.47000000000E+01 0.  1.
        -11    1    4    4    0    0  0.20660913286E+02 -0.23390085310E+02 -0.63176794128E+01  0.31841521662E+02  0.00000000000E+00 0.  1.
         11    1    4    4    0    0 -0.39306165108E+02 -0.97570152030E+01  0.74295685434E+02  0.84616918139E+02  0.00000000000E+00 0. -1.
<mgrwt>
<rscale>  0 0.12051814E+03</rscale>
<asrwt>0</asrwt>
<pdfrwt beam="1">  1        2 0.29957750E-01 0.13066753E+03</pdfrwt>
<pdfrwt beam="2">  1       -2 0.10135573E-01 0.13066753E+03</pdfrwt>
<totfact> 0.10707769E+04</totfact>
</mgrwt>
</event>
<event>
 8    1  0.1154424E-005  0.1285531E+03  0.7546771E-02  0.1243008E+00
          1   -1    0    0  501    0  0.00000000000E+00  0.00000000000E+00  0.16237648999E+03  0.16237648999E+03  0.00000000000E+00 0. -1.
         -1   -1    0    0    0  501 -0.00000000000E+00 -0.00000000000E+00 -0.83033268752E+02  0.83033268752E+02  0.00000000000E+00 0.  1.
         23    2    1    2    0    0 -0.29739852148E+02  0.41414944144E+01  0.17568339022E+02  0.12974799518E+03  0.12499713971E+03 0.  0.
         23    2    1    2    0    0  0.29739852148E+02 -0.41414944144E+01  0.61774882218E+02  0.11566176356E+03  0.93058565939E+02 0.  0.
          5    1    3    3  502    0 -0.58916650997E+02  0.46074705009E+02  0.22408370214E+02  0.78219404638E+02  0.47000000000E+01 0.  1.
         -5    1    3    3    0  502  0.29176798848E+02 -0.41933210594E+02 -0.48400311918E+01  0.51528590547E+02  0.47000000000E+01 0.  1.
        -11    1    4    4    0    0 -0.19399390936E+02  0.38203871274E+00 -0.14910769493E+02  0.24470663439E+02  0.00000000000E+00 0.  1.
         11    1    4    4    0    0  0.49139243084E+02 -0.45235331271E+01  0.76685651711E+02  0.91191100120E+02  0.00000000000E+00 0. -1.
<mgrwt>
<rscale>  0 0.12005429E+03</rscale>
<asrwt>0</asrwt>
<pdfrwt beam="1">  1        1 0.24980998E-01 0.12855309E+03</pdfrwt>
<pdfrwt beam="2">  1       -1 0.12774349E-01 0.12855309E+03</pdfrwt>
<totfact> 0.74979120E+03</totfact>
</mgrwt>
</event>
<event>
 8    1  0.1154424E-005  0.1398972E+03  0.7546771E-02  0.1224644E+00
         -1   -1    0    0    0  501 -0.00000000000E+00  0.00000000000E+00  0.85517660226E+02  0.85517660226E+02  0.00000000000E+00 0.  1.
          1   -1    0    0  501    0  0.00000000000E+00 -0.00000000000E+00 -0.18750139025E+03  0.18750139025E+03  0.00000000000E+00 0. -1.
         23    2    1    2    0    0  0.48745587344E+01  0.62620230524E+02 -0.76810959704E+02  0.15959687915E+03  0.12500474275E+03 0.  0.
         23    2    1    2    0    0 -0.48745587344E+01 -0.62620230524E+02 -0.25172770319E+02  0.11342217132E+03  0.91026732275E+02 0.  0.
          5    1    3    3  502    0  0.47687866350E+02 -0.27491897224E+01  0.26253922923E+01  0.48069463548E+02  0.47000000000E+01 0. -1.
         -5    1    3    3    0  502 -0.42813307616E+02  0.65369420246E+02 -0.79436351997E+02  0.11152741560E+03  0.47000000000E+01 0. -1.
        -11    1    4    4    0    0  0.16450838754E+02 -0.33744370982E+02  0.29687764980E+02  0.47861007701E+02  0.00000000000E+00 0.  1.
         11    1    4    4    0    0 -0.21325397488E+02 -0.28875859542E+02 -0.54860535299E+02  0.65561163623E+02  0.00000000000E+00 0. -1.
<mgrwt>
<rscale>  0 0.13191351E+03</rscale>
<asrwt>0</asrwt>
<pdfrwt beam="2">  1        1 0.28846368E-01 0.13989725E+03</pdfrwt>
<pdfrwt beam="1">  1       -1 0.13156563E-01 0.13989725E+03</pdfrwt>
<totfact> 0.60188529E+03</totfact>
</mgrwt>
</event>
<event>
 8    1  0.1154424E-005  0.1737150E+03  0.7546771E-02  0.1179695E+00
          2   -1    0    0  501    0  0.00000000000E+00  0.00000000000E+00  0.57089010417E+03  0.57089010417E+03  0.00000000000E+00 0. -1.
         -2   -1    0    0    0  501 -0.00000000000E+00 -0.00000000000E+00 -0.50128013609E+02  0.50128013609E+02  0.00000000000E+00 0.  1.
         23    2    1    2    0    0  0.10986575582E+03  0.49822488757E+02  0.19480084688E+03  0.26100627655E+03  0.12499656702E+03 0.  0.
         23    2    1    2    0    0 -0.10986575582E+03 -0.49822488757E+02  0.32596124368E+03  0.36001184123E+03  0.93835114714E+02 0.  0.
          5    1    3    3  502    0 -0.81002096355E+01  0.23493682335E+02  0.11102203172E+03  0.11386636041E+03  0.47000000000E+01 0. -1.
         -5    1    3    3    0  502  0.11796596546E+03  0.26328806422E+02  0.83778815165E+02  0.14713991615E+03  0.47000000000E+01 0. -1.
        -11    1    4    4    0    0 -0.95911865380E+02 -0.14598411551E+02  0.14063186492E+03  0.17084941021E+03  0.00000000000E+00 0.  1.
         11    1    4    4    0    0 -0.13953890440E+02 -0.35224077205E+02  0.18532937877E+03  0.18916243101E+03  0.00000000000E+00 0. -1.
<mgrwt>
<rscale>  0 0.16824106E+03</rscale>
<asrwt>0</asrwt>
<pdfrwt beam="1">  1        2 0.87829242E-01 0.17371502E+03</pdfrwt>
<pdfrwt beam="2">  1       -2 0.77120025E-02 0.17371502E+03</pdfrwt>
<totfact> 0.52326189E+03</totfact>
</mgrwt>
</event>
<event>
 8    1  0.1154424E-005  0.1283067E+03  0.7546771E-02  0.1244835E+00
          2   -1    0    0  501    0  0.00000000000E+00  0.00000000000E+00  0.11474319685E+03  0.11474319685E+03  0.00000000000E+00 0. -1.
         -2   -1    0    0    0  501 -0.00000000000E+00 -0.00000000000E+00 -0.12674053561E+03  0.12674053561E+03  0.00000000000E+00 0.  1.
         23    2    1    2    0    0  0.28050477469E+01 -0.28818453301E+02 -0.52207080573E+02  0.13852148186E+03  0.12499700049E+03 0.  0.
         23    2    1    2    0    0 -0.28050477469E+01  0.28818453301E+02  0.40209741815E+02  0.10296225060E+03  0.90255360879E+02 0.  0.
          5    1    3    3  502    0  0.54749707870E+02 -0.31490313919E+02 -0.58122719490E+02  0.85962264416E+02  0.47000000000E+01 0. -1.
         -5    1    3    3    0  502 -0.51944660123E+02  0.26718606181E+01  0.59156389170E+01  0.52559217443E+02  0.47000000000E+01 0. -1.
        -11    1    4    4    0    0  0.43564810977E+02  0.12482082490E+02  0.23414721809E+02  0.51009257358E+02  0.00000000000E+00 0.  1.
         11    1    4    4    0    0 -0.46369858724E+02  0.16336370811E+02  0.16795020006E+02  0.51952993238E+02  0.00000000000E+00 0. -1.
<mgrwt>
<rscale>  0 0.11895242E+03</rscale>
<asrwt>0</asrwt>
<pdfrwt beam="1">  1        2 0.17652800E-01 0.12830675E+03</pdfrwt>
<pdfrwt beam="2">  1       -2 0.19498544E-01 0.12830675E+03</pdfrwt>
<totfact> 0.66585304E+03</totfact>
</mgrwt>
</event>
<event>
 8    1  0.1154424E-005  0.1455091E+03  0.7546771E-02  0.1216219E+00
         -1   -1    0    0    0  501 -0.00000000000E+00  0.00000000000E+00  0.59625841263E+03  0.59625841263E+03  0.00000000000E+00 0.  1.
          1   -1    0    0  501    0  0.00000000000E+00 -0.00000000000E+00 -0.34199272198E+02  0.34199272198E+02  0.00000000000E+00 0. -1.
         23    2    1    2    0    0  0.66780454056E+02 -0.33002727940E+02  0.42939984731E+03  0.45338409059E+03  0.12499638249E+03 0.  0.
         23    2    1    2    0    0 -0.66780454056E+02  0.33002727940E+02  0.13265929312E+03  0.17707359424E+03  0.90596692153E+02 0.  0.
          5    1    3    3  502    0  0.48340672686E+01  0.30597343296E+02  0.26175218756E+03  0.26362068074E+03  0.47000000000E+01 0. -1.
         -5    1    3    3    0  502  0.61946386788E+02 -0.63600071236E+02  0.16764765975E+03  0.18976340985E+03  0.47000000000E+01 0. -1.
        -11    1    4    4    0    0 -0.16754206821E+02 -0.23566313656E+02  0.79850474764E+02  0.84924512984E+02  0.00000000000E+00 0.  1.
         11    1    4    4    0    0 -0.50026247235E+02  0.56569041596E+02  0.52808818360E+02  0.92149081254E+02  0.00000000000E+00 0. -1.
<mgrwt>
<rscale>  0 0.13787370E+03</rscale>
<asrwt>0</asrwt>
<pdfrwt beam="2">  1        1 0.52614269E-02 0.14550912E+03</pdfrwt>
<pdfrwt beam="1">  1       -1 0.91732056E-01 0.14550912E+03</pdfrwt>
<totfact> 0.18442187E+03</totfact>
</mgrwt>
</event>
<event>
 8    1  0.1154424E-005  0.1350570E+03  0.7546771E-02  0.1232340E+00
          1   -1    0    0  501    0  0.00000000000E+00  0.00000000000E+00  0.28879516961E+03  0.28879516961E+03  0.00000000000E+00 0. -1.
         -1   -1    0    0    0  501 -0.00000000000E+00 -0.00000000000E+00 -0.49851752878E+02  0.49851752878E+02  0.00000000000E+00 0.  1.
         23    2    1    2    0    0 -0.32629106222E+02  0.39374809102E+02  0.13948945720E+03  0.19415899453E+03  0.12500148928E+03 0.  0.
         23    2    1    2    0    0  0.32629106222E+02 -0.39374809102E+02  0.99453959532E+02  0.14448792796E+03  0.91491185885E+02 0.  0.
          5    1    3    3  502    0  0.20780836713E+02  0.36462277980E+02  0.13363071979E+03  0.14014492556E+03  0.47000000000E+01 0.  1.
         -5    1    3    3    0  502 -0.53409942934E+02  0.29125311215E+01  0.58587374082E+01  0.54014068962E+02  0.47000000000E+01 0.  1.
        -11    1    4    4    0    0  0.16085587478E+02 -0.19365544923E+02 -0.13515560518E+02  0.28573428754E+02  0.00000000000E+00 0.  1.
         11    1    4    4    0    0  0.16543518744E+02 -0.20009264179E+02  0.11296952005E+03  0.11591449920E+03  0.00000000000E+00 0. -1.
<mgrwt>
<rscale>  0 0.12676264E+03</rscale>
<asrwt>0</asrwt>
<pdfrwt beam="1">  1        1 0.44430025E-01 0.13505705E+03</pdfrwt>
<pdfrwt beam="2">  1       -1 0.76695006E-02 0.13505705E+03</pdfrwt>
<totfact> 0.80190498E+03</totfact>
</mgrwt>
</event>
<event>
 8    1  0.1154424E-005  0.2784592E+03  0.7546771E-02  0.1098395E+00
          2   -1    0    0  501    0  0.00000000000E+00  0.00000000000E+00  0.37748026752E+03  0.37748026752E+03  0.00000000000E+00 0. -1.
         -2   -1    0    0    0  501 -0.00000000000E+00 -0.00000000000E+00 -0.19798099255E+03  0.19798099255E+03  0.00000000000E+00 0.  1.
         23    2    1    2    0    0  0.48891981984E+02  0.24397646332E+03  0.61698171793E+02  0.28521253997E+03  0.12499835196E+03 0.  0.
         23    2    1    2    0    0 -0.48891981984E+02 -0.24397646332E+03  0.11780110318E+03  0.29024872010E+03  0.91936277113E+02 0.  0.
          5    1    3    3  502    0  0.59005400100E+02  0.15967828763E+03 -0.14661286531E+02  0.17092640552E+03  0.47000000000E+01 0.  1.
         -5    1    3    3    0  502 -0.10113418116E+02  0.84298175696E+02  0.76359458324E+02  0.11428613445E+03  0.47000000000E+01 0.  1.
        -11    1    4    4    0    0 -0.12543962657E+02  0.31827586267E+00 -0.60738566978E+01  0.13940732902E+02  0.00000000000E+00 0.  1.
         11    1    4    4    0    0 -0.36348019327E+02 -0.24429473919E+03  0.12387495987E+03  0.27630798719E+03  0.00000000000E+00 0. -1.
<mgrwt>
<rscale>  0 0.27510120E+03</rscale>
<asrwt>0</asrwt>
<pdfrwt beam="1">  1        2 0.58073887E-01 0.27845920E+03</pdfrwt>
<pdfrwt beam="2">  1       -2 0.30458614E-01 0.27845920E+03</pdfrwt>
<totfact> 0.84822691E+02</totfact>
</mgrwt>
</event>
<event>
 8    1  0.1154424E-005  0.1326417E+03  0.7546771E-02  0.1232884E+00
          1   -1    0    0  501    0  0.00000000000E+00  0.00000000000E+00  0.20711862922E+03  0.20711862922E+03  0.00000000000E+00 0. -1.
         -1   -1    0    0    0  501 -0.00000000000E+00 -0.00000000000E+00 -0.71896643854E+02  0.71896643854E+02  0.00000000000E+00 0.  1.
         23    2    1    2    0    0 -0.40583615354E+02  0.17771969593E+02  0.56231478737E+02  0.14406873624E+03  0.12502379302E+03 0.  0.
         23    2    1    2    0    0  0.40583615354E+02 -0.17771969593E+02  0.78990506624E+02  0.13494653683E+03  0.10004096625E+03 0.  0.
          5    1    3    3  502    0 -0.25647262876E+02  0.71695095069E+02  0.28451943237E+02  0.81422182628E+02  0.47000000000E+01 0. -1.
         -5    1    3    3    0  502 -0.14936352479E+02 -0.53923125477E+02  0.27779535500E+02  0.62646553609E+02  0.47000000000E+01 0. -1.
        -11    1    4    4    0    0  0.50673588444E+02  0.17952835035E+02  0.73508394059E+01  0.54260037703E+02  0.00000000000E+00 0.  1.
         11    1    4    4    0    0 -0.10089973090E+02 -0.35724804628E+02  0.71639667218E+02  0.80686499129E+02  0.00000000000E+00 0. -1.
<mgrwt>
<rscale>  0 0.12640862E+03</rscale>
<asrwt>0</asrwt>
<pdfrwt beam="1">  1        1 0.31864404E-01 0.13264170E+03</pdfrwt>
<pdfrwt beam="2">  1       -1 0.11061022E-01 0.13264170E+03</pdfrwt>
<totfact> 0.69273969E+03</totfact>
</mgrwt>
</event>
<event>
 8    1  0.1154424E-005  0.1398638E+03  0.7546771E-02  0.1226197E+00
          3   -1    0    0  501    0  0.00000000000E+00  0.00000000000E+00  0.24131954725E+03  0.24131954725E+03  0.00000000000E+00 0. -1.
         -3   -1    0    0    0  501 -0.00000000000E+00 -0.00000000000E+00 -0.11495370272E+03  0.11495370272E+03  0.00000000000E+00 0.  1.
         23    2    1    2    0    0  0.28942146970E+02 -0.55671018449E+02 -0.51150277944E+02  0.14892360822E+03  0.12499991995E+03 0.  0.
         23    2    1    2    0    0 -0.28942146970E+02  0.55671018449E+02  0.17751612248E+03  0.20734964174E+03  0.86861902035E+02 0.  0.
          5    1    3    3  502    0  0.65487885191E+02 -0.32454220993E+02  0.99271529599E+01  0.73909254718E+02  0.47000000000E+01 0.  1.
         -5    1    3    3    0  502 -0.36545738221E+02 -0.23216797456E+02 -0.61077430904E+02  0.75014353507E+02  0.47000000000E+01 0.  1.
        -11    1    4    4    0    0 -0.10912767956E+02  0.24508934672E+02  0.62906024988E+00  0.26836022433E+02  0.00000000000E+00 0.  1.
         11    1    4    4    0    0 -0.18029379014E+02  0.31162083777E+02  0.17688706223E+03  0.18051361931E+03  0.00000000000E+00 0. -1.
<mgrwt>
<rscale>  0 0.13085212E+03</rscale>
<asrwt>0</asrwt>
<pdfrwt beam="1">  1        3 0.37126084E-01 0.13986383E+03</pdfrwt>
<pdfrwt beam="2">  1       -3 0.17685185E-01 0.13986383E+03</pdfrwt>
<totfact> 0.46614798E+02</totfact>
</mgrwt>
</event>
<event>
 8    1  0.1154424E-005  0.1816867E+03  0.7546771E-02  0.1174768E+00
         -1   -1    0    0    0  501 -0.00000000000E+00  0.00000000000E+00  0.79489502490E+02  0.79489502490E+02  0.00000000000E+00 0.  1.
          1   -1    0    0  501    0  0.00000000000E+00 -0.00000000000E+00 -0.44754273864E+03  0.44754273864E+03  0.00000000000E+00 0. -1.
         23    2    1    2    0    0  0.51016564448E+02 -0.12157999235E+03 -0.71951566531E+02  0.19541511575E+03  0.12500262056E+03 0.  0.
         23    2    1    2    0    0 -0.51016564448E+02  0.12157999235E+03 -0.29610166962E+03  0.33161712539E+03  0.70066644763E+02 0.  0.
          5    1    3    3  502    0  0.55664688094E+02 -0.32704972880E+02  0.19614531989E+02  0.67638691715E+02  0.47000000000E+01 0. -1.
         -5    1    3    3    0  502 -0.46481236459E+01 -0.88875019474E+02 -0.91566098521E+02  0.12777642403E+03  0.47000000000E+01 0. -1.
        -11    1    4    4    0    0 -0.15930706409E+02  0.10330759343E+03 -0.24936035085E+03  0.27038274879E+03  0.00000000000E+00 0.  1.
         11    1    4    4    0    0 -0.35085858039E+02  0.18272398928E+02 -0.46741318770E+02  0.61234376597E+02  0.00000000000E+00 0. -1.
<mgrwt>
<rscale>  0 0.17298764E+03</rscale>
<asrwt>0</asrwt>
<pdfrwt beam="2">  1        1 0.68852728E-01 0.18168665E+03</pdfrwt>
<pdfrwt beam="1">  1       -1 0.12229154E-01 0.18168665E+03</pdfrwt>
<totfact> 0.22968563E+03</totfact>
</mgrwt>
</event>
<event>
 8    1  0.1154424E-005  0.1502604E+03  0.7546771E-02  0.1208957E+00
         -3   -1    0    0    0  501 -0.00000000000E+00  0.00000000000E+00  0.85654455108E+02  0.85654455108E+02  0.00000000000E+00 0.  1.
          3   -1    0    0  501    0  0.00000000000E+00 -0.00000000000E+00 -0.32438523516E+03  0.32438523516E+03  0.00000000000E+00 0. -1.
         23    2    1    2    0    0  0.59559491918E+02  0.58357034089E+02 -0.11080553031E+02  0.15066835683E+03  0.12500119435E+03 0.  0.
         23    2    1    2    0    0 -0.59559491918E+02 -0.58357034089E+02 -0.22765022702E+03  0.25937133344E+03  0.92173674336E+02 0.  0.
          5    1    3    3  502    0  0.32007053073E+02  0.91455535993E+01 -0.64569028268E+02  0.72796579649E+02  0.47000000000E+01 0. -1.
         -5    1    3    3    0  502  0.27552438844E+02  0.49211480490E+02  0.53488475238E+02  0.77871777182E+02  0.47000000000E+01 0. -1.
        -11    1    4    4    0    0 -0.14837434370E+02  0.20520159943E+02 -0.18343594210E+02  0.31268416514E+02  0.00000000000E+00 0.  1.
         11    1    4    4    0    0 -0.44722057548E+02 -0.78877194032E+02 -0.20930663281E+03  0.22810291692E+03  0.00000000000E+00 0. -1.
<mgrwt>
<rscale>  0 0.14329973E+03</rscale>
<asrwt>0</asrwt>
<pdfrwt beam="2">  1        3 0.49905421E-01 0.15026036E+03</pdfrwt>
<pdfrwt beam="1">  1       -3 0.13177609E-01 0.15026036E+03</pdfrwt>
<totfact> 0.43793011E+02</totfact>
</mgrwt>
</event>
<event>
 8    1  0.1154424E-005  0.1593251E+03  0.7546771E-02  0.1197239E+00
          2   -1    0    0  501    0  0.00000000000E+00  0.00000000000E+00  0.36225206118E+03  0.36225206118E+03  0.00000000000E+00 0. -1.
         -2   -1    0    0    0  501 -0.00000000000E+00 -0.00000000000E+00 -0.69051215324E+02  0.69051215324E+02  0.00000000000E+00 0.  1.
         23    2    1    2    0    0 -0.87905246153E+02  0.45077768243E+02  0.77414145208E+02  0.17713681092E+03  0.12500064966E+03 0.  0.
         23    2    1    2    0    0  0.87905246153E+02 -0.45077768243E+02  0.21578670065E+03  0.25416646558E+03  0.90979967899E+02 0.  0.
          5    1    3    3  502    0 -0.35360908295E+02 -0.71733190676E+01  0.94225355657E+02  0.10100672250E+03  0.47000000000E+01 0. -1.
         -5    1    3    3    0  502 -0.52544337858E+02  0.52251087310E+02 -0.16811210450E+02  0.76130088420E+02  0.47000000000E+01 0. -1.
        -11    1    4    4    0    0  0.63605609136E+01  0.25088817599E+02  0.53942650968E+02  0.59830720346E+02  0.00000000000E+00 0.  1.
         11    1    4    4    0    0  0.81544685239E+02 -0.70166585842E+02  0.16184404968E+03  0.19433574524E+03  0.00000000000E+00 0. -1.
<mgrwt>
<rscale>  0 0.15266267E+03</rscale>
<asrwt>0</asrwt>
<pdfrwt beam="1">  1        2 0.55731085E-01 0.15932514E+03</pdfrwt>
<pdfrwt beam="2">  1       -2 0.10623264E-01 0.15932514E+03</pdfrwt>
<totfact> 0.51910250E+03</totfact>
</mgrwt>
</event>
<event>
 8    1  0.1154424E-005  0.1569059E+03  0.7546771E-02  0.1199677E+00
         -1   -1    0    0    0  501 -0.00000000000E+00  0.00000000000E+00  0.49927143299E+02  0.49927143299E+02  0.00000000000E+00 0.  1.
          1   -1    0    0  501    0  0.00000000000E+00 -0.00000000000E+00 -0.42183848075E+03  0.42183848075E+03  0.00000000000E+00 0. -1.
         23    2    1    2    0    0 -0.18153052734E+02 -0.93085826107E+02 -0.19957796209E+03  0.25387168277E+03  0.12499985606E+03 0.  0.
         23    2    1    2    0    0  0.18153052734E+02  0.93085826107E+02 -0.17233337536E+03  0.21789394128E+03  0.93725519671E+02 0.  0.
          5    1    3    3  502    0 -0.50884357933E+02 -0.88447118925E+02 -0.80079291034E+02  0.12979558383E+03  0.47000000000E+01 0.  1.
         -5    1    3    3    0  502  0.32731305199E+02 -0.46387071815E+01 -0.11949867106E+03  0.12407609894E+03  0.47000000000E+01 0.  1.
        -11    1    4    4    0    0 -0.17869144778E+02  0.33599730498E+02 -0.72222230525E+01  0.38735109790E+02  0.00000000000E+00 0.  1.
         11    1    4    4    0    0  0.36022197511E+02  0.59486095609E+02 -0.16511115230E+03  0.17915883149E+03  0.00000000000E+00 0. -1.
<mgrwt>
<rscale>  0 0.15064955E+03</rscale>
<asrwt>0</asrwt>
<pdfrwt beam="2">  1        1 0.64898224E-01 0.15690592E+03</pdfrwt>
<pdfrwt beam="1">  1       -1 0.76810995E-02 0.15690592E+03</pdfrwt>
<totfact> 0.50246811E+03</totfact>
</mgrwt>
</event>
<event>
 8    1  0.1154424E-005  0.2289094E+03  0.7546771E-02  0.1130407E+00
         -2   -1    0    0    0  501 -0.00000000000E+00  0.00000000000E+00  0.31662568480E+03  0.31662568480E+03  0.00000000000E+00 0.  1.
          2   -1    0    0  501    0  0.00000000000E+00 -0.00000000000E+00 -0.16157616101E+03  0.16157616101E+03  0.00000000000E+00 0. -1.
         23    2    1    2    0    0  0.14915717088E+02 -0.19119700386E+03  0.13220190879E+03  0.26434232772E+03  0.12498299338E+03 0.  0.
         23    2    1    2    0    0 -0.14915717088E+02  0.19119700386E+03  0.22847614992E+02  0.21385951809E+03  0.91842838937E+02 0.  0.
          5    1    3    3  502    0  0.10898509432E+02 -0.19079681754E+03  0.72706427613E+02  0.20452510288E+03  0.47000000000E+01 0. -1.
         -5    1    3    3    0  502  0.40172076560E+01 -0.40018631981E+00  0.59495481181E+02  0.59817224839E+02  0.47000000000E+01 0. -1.
        -11    1    4    4    0    0 -0.10485993074E+02  0.13274710303E+03  0.58290273333E+02  0.14535991668E+03  0.00000000000E+00 0. -1.
         11    1    4    4    0    0 -0.44297240146E+01  0.58449900835E+02 -0.35442658341E+02  0.68499601406E+02  0.00000000000E+00 0.  1.
<mgrwt>
<rscale>  0 0.22472776E+03</rscale>
<asrwt>0</asrwt>
<pdfrwt beam="2">  1        2 0.24857871E-01 0.22890942E+03</pdfrwt>
<pdfrwt beam="1">  1       -2 0.48711644E-01 0.22890942E+03</pdfrwt>
<totfact> 0.87471417E+02</totfact>
</mgrwt>
</event>
<event>
 8    1  0.1154424E-005  0.1407813E+03  0.7546771E-02  0.1220638E+00
         -1   -1    0    0    0  501 -0.00000000000E+00  0.00000000000E+00  0.11600460061E+03  0.11600460061E+03  0.00000000000E+00 0.  1.
          1   -1    0    0  501    0  0.00000000000E+00 -0.00000000000E+00 -0.27260730498E+03  0.27260730498E+03  0.00000000000E+00 0. -1.
         23    2    1    2    0    0 -0.15772268939E+02 -0.76345301239E+02  0.51067886306E+02  0.14975750164E+03  0.11722632297E+03 0.  0.
         23    2    1    2    0    0  0.15772268939E+02  0.76345301239E+02 -0.20767059068E+03  0.23885440395E+03  0.88583195714E+02 0.  0.
          5    1    3    3  502    0  0.44088334893E+02 -0.63451210907E+01  0.96168952172E+00  0.44800186183E+02  0.47000000000E+01 0. -1.
         -5    1    3    3    0  502 -0.59860603832E+02 -0.70000180148E+02  0.50106196785E+02  0.10495731546E+03  0.47000000000E+01 0.  1.
        -11    1    4    4    0    0  0.40065294397E+01 -0.13100926091E+02 -0.14661241604E+01  0.13778100836E+02  0.00000000000E+00 0.  1.
         11    1    4    4    0    0  0.11765739499E+02  0.89446227330E+02 -0.20620446652E+03  0.22507630311E+03  0.00000000000E+00 0. -1.
<mgrwt>
<rscale>  0 0.13470405E+03</rscale>
<asrwt>0</asrwt>
<pdfrwt beam="2">  1        1 0.41939585E-01 0.14078132E+03</pdfrwt>
<pdfrwt beam="1">  1       -1 0.17846862E-01 0.14078132E+03</pdfrwt>
<totfact> 0.23440895E+03</totfact>
</mgrwt>
</event>
<event>
 8    1  0.1154424E-005  0.1715326E+03  0.7546771E-02  0.1181316E+00
          1   -1    0    0  501    0  0.00000000000E+00  0.00000000000E+00  0.20597467989E+02  0.20597467989E+02  0.00000000000E+00 0. -1.
         -1   -1    0    0    0  501 -0.00000000000E+00 -0.00000000000E+00 -0.12960732907E+04  0.12960732907E+04  0.00000000000E+00 0.  1.
         23    2    1    2    0    0  0.11679439186E+03  0.12285627245E+02 -0.74935939726E+03  0.76874114703E+03  0.12502631030E+03 0.  0.
         23    2    1    2    0    0 -0.11679439186E+03 -0.12285627245E+02 -0.52611642543E+03  0.54792961164E+03  0.98165674238E+02 0.  0.
          5    1    3    3  502    0  0.10489021384E+03  0.15276268190E+02 -0.28361953843E+03  0.30281587460E+03  0.47000000000E+01 0. -1.
         -5    1    3    3    0  502  0.11904178018E+02 -0.29906409456E+01 -0.46573985883E+03  0.46592527243E+03  0.47000000000E+01 0. -1.
        -11    1    4    4    0    0 -0.21150705847E+02 -0.41322826024E+02 -0.10003618132E+03  0.11028221018E+03  0.00000000000E+00 0. -1.
         11    1    4    4    0    0 -0.95643686009E+02  0.29037198779E+02 -0.42608024411E+03  0.43764740146E+03  0.00000000000E+00 0.  1.
<mgrwt>
<rscale>  0 0.16671621E+03</rscale>
<asrwt>0</asrwt>
<pdfrwt beam="1">  1        1 0.31688399E-02 0.17153264E+03</pdfrwt>
<pdfrwt beam="2">  1       -1 0.19939598E+00 0.17153264E+03</pdfrwt>
<totfact> 0.52946079E+02</totfact>
</mgrwt>
</event>
<event>
 8    1  0.1154424E-005  0.1851991E+03  0.7546771E-02  0.1168137E+00
          1   -1    0    0  501    0  0.00000000000E+00  0.00000000000E+00  0.21987943520E+03  0.21987943520E+03  0.00000000000E+00 0. -1.
         -1   -1    0    0    0  501 -0.00000000000E+00 -0.00000000000E+00 -0.23617082598E+03  0.23617082598E+03  0.00000000000E+00 0.  1.
         23    2    1    2    0    0 -0.30079241348E+02  0.13328266565E+03 -0.15480852918E+03  0.24138016288E+03  0.12501868901E+03 0.  0.
         23    2    1    2    0    0  0.30079241348E+02 -0.13328266565E+03  0.13851713840E+03  0.21467009830E+03  0.90704044830E+02 0.  0.
          5    1    3    3  502    0  0.61539233832E+01  0.35037463363E+02  0.17322748299E+02  0.39845479299E+02  0.47000000000E+01 0.  1.
         -5    1    3    3    0  502 -0.36233164731E+02  0.98245202292E+02 -0.17213127748E+03  0.20153468358E+03  0.47000000000E+01 0.  1.
        -11    1    4    4    0    0 -0.19015109792E+02 -0.63096663543E+02  0.10227133099E+03  0.12166424493E+03  0.00000000000E+00 0. -1.
         11    1    4    4    0    0  0.49094351140E+02 -0.70186002112E+02  0.36245807401E+02  0.93005853367E+02  0.00000000000E+00 0.  1.
<mgrwt>
<rscale>  0 0.17965554E+03</rscale>
<asrwt>0</asrwt>
<pdfrwt beam="1">  1        1 0.33827606E-01 0.18519909E+03</pdfrwt>
<pdfrwt beam="2">  1       -1 0.36333973E-01 0.18519909E+03</pdfrwt>
<totfact> 0.94934946E+02</totfact>
</mgrwt>
</event>
<event>
 7    1  0.1154424E-005  0.2727415E+03  0.7546771E-02  0.1131427E+00
          3   -1    0    0  501    0  0.00000000000E+00  0.00000000000E+00  0.64859831611E+02  0.64859831611E+02  0.00000000000E+00 0. -1.
         -3   -1    0    0    0  501 -0.00000000000E+00 -0.00000000000E+00 -0.11030782629E+04  0.11030782629E+04  0.00000000000E+00 0.  1.
         23    2    1    2    0    0 -0.98600079656E+01 -0.72569575846E+02 -0.33843503172E+02  0.12718985154E+03  0.98327577681E+02 0.  0.
          5    1    1    2  502    0  0.11255583140E+03 -0.34193982067E+02 -0.33270966756E+03  0.35292471786E+03  0.47000000000E+01 0. -1.
         -5    1    1    2    0  502 -0.10269582343E+03  0.10676355791E+03 -0.67166526059E+03  0.68782352513E+03  0.47000000000E+01 0.  1.
        -11    1    3    3    0    0  0.61313216706E+01  0.20910794643E+02 -0.23081520698E+02  0.31742889531E+02  0.00000000000E+00 0.  1.
         11    1    3    3    0    0 -0.15991329636E+02 -0.93480370489E+02 -0.10761982474E+02  0.95446962011E+02  0.00000000000E+00 0. -1.
<mgrwt>
<rscale>  0 0.22332638E+03</rscale>
<asrwt>0</asrwt>
<pdfrwt beam="1">  1        3 0.99784363E-02 0.27274147E+03</pdfrwt>
<pdfrwt beam="2">  1       -3 0.16970434E+00 0.27274147E+03</pdfrwt>
<totfact> 0.45991441E+01</totfact>
</mgrwt>
</event>
<event>
 8    1  0.1154424E-005  0.1337723E+03  0.7546771E-02  0.1232822E+00
          4   -1    0    0  501    0  0.00000000000E+00  0.00000000000E+00  0.41400964392E+02  0.41400964392E+02  0.00000000000E+00 0. -1.
         -4   -1    0    0    0  501 -0.00000000000E+00 -0.00000000000E+00 -0.35297591108E+03  0.35297591108E+03  0.00000000000E+00 0.  1.
         23    2    1    2    0    0  0.47622514821E+02 -0.15251332175E+01 -0.19260198091E+03  0.23450066717E+03  0.12499923962E+03 0.  0.
         23    2    1    2    0    0 -0.47622514821E+02  0.15251332175E+01 -0.11897296578E+03  0.15987620830E+03  0.95580361183E+02 0.  0.
          5    1    3    3  502    0  0.50317912428E+02  0.52329206591E+02 -0.14581822825E+03  0.16295792053E+03  0.47000000000E+01 0. -1.
         -5    1    3    3    0  502 -0.26953976076E+01 -0.53854339808E+02 -0.46783752652E+02  0.71542746639E+02  0.47000000000E+01 0. -1.
        -11    1    4    4    0    0 -0.28115166971E+02  0.41445729152E+01 -0.13281007212E+03  0.13581662400E+03  0.00000000000E+00 0.  1.
         11    1    4    4    0    0 -0.19507347850E+02 -0.26194396977E+01  0.13837106342E+02  0.24059584294E+02  0.00000000000E+00 0. -1.
<mgrwt>
<rscale>  0 0.12644907E+03</rscale>
<asrwt>0</asrwt>
<pdfrwt beam="1">  1        4 0.63693791E-02 0.13377234E+03</pdfrwt>
<pdfrwt beam="2">  1       -4 0.54303986E-01 0.13377234E+03</pdfrwt>
<totfact> 0.86828405E+02</totfact>
</mgrwt>
</event>
<event>
 8    1  0.1154424E-005  0.1382218E+03  0.7546771E-02  0.1227473E+00
          2   -1    0    0  501    0  0.00000000000E+00  0.00000000000E+00  0.15277467329E+02  0.15277467329E+02  0.00000000000E+00 0. -1.
         -2   -1    0    0    0  501 -0.00000000000E+00 -0.00000000000E+00 -0.11926999629E+04  0.11926999629E+04  0.00000000000E+00 0.  1.
         23    2    1    2    0    0 -0.31522842848E+02  0.49887961477E+02 -0.89421463924E+03  0.90483429466E+03  0.12499112544E+03 0.  0.
         23    2    1    2    0    0  0.31522842848E+02 -0.49887961477E+02 -0.28320785631E+03  0.30314313555E+03  0.90590134305E+02 0.  0.
          5    1    3    3  502    0 -0.49525724807E+02 -0.76187590857E+01 -0.15100783133E+03  0.15917379819E+03  0.47000000000E+01 0. -1.
         -5    1    3    3    0  502  0.18002881959E+02  0.57506720563E+02 -0.74320680791E+03  0.74566049647E+03  0.47000000000E+01 0. -1.
        -11    1    4    4    0    0  0.59013786311E+02 -0.41127957299E+02 -0.24452156037E+03  0.25488218716E+03  0.00000000000E+00 0.  1.
         11    1    4    4    0    0 -0.27490943463E+02 -0.87600041777E+01 -0.38686295935E+02  0.48260948383E+02  0.00000000000E+00 0. -1.
<mgrwt>
<rscale>  0 0.12998853E+03</rscale>
<asrwt>0</asrwt>
<pdfrwt beam="1">  1        2 0.23503792E-02 0.13822185E+03</pdfrwt>
<pdfrwt beam="2">  1       -2 0.18349233E+00 0.13822185E+03</pdfrwt>
<totfact> 0.78547847E+02</totfact>
</mgrwt>
</event>
<event>
 8    1  0.1154424E-005  0.1357804E+03  0.7546771E-02  0.1229973E+00
          3   -1    0    0  501    0  0.00000000000E+00  0.00000000000E+00  0.11311911469E+03  0.11311911469E+03  0.00000000000E+00 0. -1.
         -3   -1    0    0    0  501 -0.00000000000E+00 -0.00000000000E+00 -0.13947965300E+03  0.13947965300E+03  0.00000000000E+00 0.  1.
         23    2    1    2    0    0  0.89529678215E+01 -0.52238573350E+02 -0.44292381125E+02  0.14282205365E+03  0.12500919888E+03 0.  0.
         23    2    1    2    0    0 -0.89529678215E+01  0.52238573350E+02  0.17931842817E+02  0.10977671404E+03  0.94447613947E+02 0.  0.
          5    1    3    3  502    0  0.27486889456E+02  0.78387554610E+00 -0.74017107883E+02  0.79099720684E+02  0.47000000000E+01 0.  1.
         -5    1    3    3    0  502 -0.18533921634E+02 -0.53022448896E+02  0.29724726759E+02  0.63722332969E+02  0.47000000000E+01 0.  1.
        -11    1    4    4    0    0 -0.29069464085E+02  0.70080906723E+02  0.28273275487E+02  0.80967557306E+02  0.00000000000E+00 0. -1.
         11    1    4    4    0    0  0.20116496264E+02 -0.17842333373E+02 -0.10341432670E+02  0.28809156735E+02  0.00000000000E+00 0.  1.
<mgrwt>
<rscale>  0 0.12831790E+03</rscale>
<asrwt>0</asrwt>
<pdfrwt beam="1">  1        3 0.17402941E-01 0.13578043E+03</pdfrwt>
<pdfrwt beam="2">  1       -3 0.21458408E-01 0.13578043E+03</pdfrwt>
<totfact> 0.13060437E+03</totfact>
</mgrwt>
</event>
<event>
 8    1  0.1154424E-005  0.1260609E+03  0.7546771E-02  0.1250884E+00
          1   -1    0    0  501    0  0.00000000000E+00  0.00000000000E+00  0.12171923407E+03  0.12171923407E+03  0.00000000000E+00 0.  1.
         -1   -1    0    0    0  501 -0.00000000000E+00 -0.00000000000E+00 -0.96285407778E+02  0.96285407778E+02  0.00000000000E+00 0. -1.
         23    2    1    2    0    0 -0.16087329058E+02 -0.27209774671E+01  0.61539820496E+00  0.12606240912E+03  0.12500058562E+03 0.  0.
         23    2    1    2    0    0  0.16087329058E+02  0.27209774671E+01  0.24818428091E+02  0.91942232729E+02  0.87012722700E+02 0.  0.
          5    1    3    3  502    0  0.36991005942E+02 -0.23297896251E+02  0.37734185851E+02  0.57940359614E+02  0.47000000000E+01 0. -1.
         -5    1    3    3    0  502 -0.53078335000E+02  0.20576918784E+02 -0.37118787646E+02  0.68122049510E+02  0.47000000000E+01 0. -1.
        -11    1    4    4    0    0  0.31871555641E+02  0.31628534138E+02 -0.78154250617E+01  0.45576760521E+02  0.00000000000E+00 0. -1.
         11    1    4    4    0    0 -0.15784226582E+02 -0.28907556671E+02  0.32633853153E+02  0.46365472208E+02  0.00000000000E+00 0.  1.
<mgrwt>
<rscale>  0 0.11540031E+03</rscale>
<asrwt>0</asrwt>
<pdfrwt beam="1">  1        1 0.18726036E-01 0.12606091E+03</pdfrwt>
<pdfrwt beam="2">  1       -1 0.14813140E-01 0.12606091E+03</pdfrwt>
<totfact> 0.85580064E+03</totfact>
</mgrwt>
</event>
<event>
 8    1  0.1154424E-005  0.3916926E+03  0.7546771E-02  0.1047547E+00
         -2   -1    0    0    0  501 -0.00000000000E+00  0.00000000000E+00  0.10398982840E+03  0.10398982840E+03  0.00000000000E+00 0.  1.
          2   -1    0    0  501    0  0.00000000000E+00 -0.00000000000E+00 -0.14763699757E+04  0.14763699757E+04  0.00000000000E+00 0. -1.
         23    2    1    2    0    0  0.29385440097E+03  0.22681493785E+03 -0.57027800903E+03  0.69183818616E+03  0.12501057252E+03 0.  0.
         23    2    1    2    0    0 -0.29385440097E+03 -0.22681493785E+03 -0.80210213824E+03  0.88852161791E+03  0.91144941320E+02 0.  0.
          5    1    3    3  502    0  0.22184122533E+03  0.22682599126E+03 -0.43392656210E+03  0.53756665713E+03  0.47000000000E+01 0.  1.
         -5    1    3    3    0  502  0.72013175639E+02 -0.11053406770E-01 -0.13635144693E+03  0.15427152902E+03  0.47000000000E+01 0.  1.
        -11    1    4    4    0    0 -0.40058546011E+02 -0.40313276651E+02 -0.61535097072E+02  0.83764046909E+02  0.00000000000E+00 0.  1.
         11    1    4    4    0    0 -0.25379585495E+03 -0.18650166120E+03 -0.74056704117E+03  0.80475757100E+03  0.00000000000E+00 0. -1.
<mgrwt>
<rscale>  0 0.38930620E+03</rscale>
<asrwt>0</asrwt>
<pdfrwt beam="2">  1        2 0.22713385E+00 0.39169257E+03</pdfrwt>
<pdfrwt beam="1">  1       -2 0.15998435E-01 0.39169257E+03</pdfrwt>
<totfact> 0.42763897E+02</totfact>
</mgrwt>
</event>
<event>
 8    1  0.1154424E-005  0.1607283E+03  0.7546771E-02  0.1195111E+00
         -2   -1    0    0    0  501 -0.00000000000E+00  0.00000000000E+00  0.42121431570E+02  0.42121431570E+02  0.00000000000E+00 0.  1.
          2   -1    0    0  501    0  0.00000000000E+00 -0.00000000000E+00 -0.53495791977E+03  0.53495791977E+03  0.00000000000E+00 0. -1.
         23    2    1    2    0    0 -0.52551488381E+02  0.86297208425E+02 -0.22903312764E+03  0.27980307772E+03  0.12499888653E+03 0.  0.
         23    2    1    2    0    0  0.52551488381E+02 -0.86297208425E+02 -0.26380336056E+03  0.29727627362E+03  0.92585650618E+02 0.  0.
          5    1    3    3  502    0  0.29393273370E+02  0.71109650243E+02 -0.10360027490E+03  0.12913424734E+03  0.47000000000E+01 0. -1.
         -5    1    3    3    0  502 -0.81944761751E+02  0.15187558181E+02 -0.12543285274E+03  0.15066883038E+03  0.47000000000E+01 0. -1.
        -11    1    4    4    0    0  0.69040627567E+02 -0.81771974843E+02 -0.25783912702E+03  0.27916711760E+03  0.00000000000E+00 0. -1.
         11    1    4    4    0    0 -0.16489139186E+02 -0.45252335822E+01 -0.59642335392E+01  0.18109156021E+02  0.00000000000E+00 0.  1.
<mgrwt>
<rscale>  0 0.15444862E+03</rscale>
<asrwt>0</asrwt>
<pdfrwt beam="2">  1        2 0.82301219E-01 0.16072831E+03</pdfrwt>
<pdfrwt beam="1">  1       -2 0.64802202E-02 0.16072831E+03</pdfrwt>
<totfact> 0.73312940E+03</totfact>
</mgrwt>
</event>
<event>
 8    1  0.1154424E-005  0.1325687E+03  0.7546771E-02  0.1237644E+00
         -2   -1    0    0    0  501 -0.00000000000E+00  0.00000000000E+00  0.32101831531E+03  0.32101831531E+03  0.00000000000E+00 0.  1.
          2   -1    0    0  501    0  0.00000000000E+00 -0.00000000000E+00 -0.11029252143E+03  0.11029252143E+03  0.00000000000E+00 0. -1.
         23    2    1    2    0    0 -0.33033483082E+02  0.15000700898E+02  0.28023012077E+03  0.31000545726E+03  0.12750776805E+03 0.  0.
         23    2    1    2    0    0  0.33033483082E+02 -0.15000700898E+02 -0.69504326892E+02  0.12130537948E+03  0.92563014223E+02 0.  0.
          5    1    3    3  502    0  0.17902055064E+02  0.58360862369E+02  0.95092417306E+02  0.11309788531E+03  0.47000000000E+01 0. -1.
         -5    1    3    3    0  502 -0.50935538146E+02 -0.43360161470E+02  0.18513770346E+03  0.19690757195E+03  0.47000000000E+01 0.  1.
        -11    1    4    4    0    0  0.47050532241E+02 -0.43395671976E+02 -0.61225447153E+02  0.88574783711E+02  0.00000000000E+00 0.  1.
         11    1    4    4    0    0 -0.14017049160E+02  0.28394971077E+02 -0.82788797393E+01  0.32730595769E+02  0.00000000000E+00 0. -1.
<mgrwt>
<rscale>  0 0.12336676E+03</rscale>
<asrwt>0</asrwt>
<pdfrwt beam="2">  1        2 0.16968080E-01 0.13256871E+03</pdfrwt>
<pdfrwt beam="1">  1       -2 0.49387433E-01 0.13256871E+03</pdfrwt>
<totfact> 0.12938560E+03</totfact>
</mgrwt>
</event>
<event>
 8    1  0.1154424E-005  0.1279625E+03  0.7546771E-02  0.1252209E+00
          2   -1    0    0  501    0  0.00000000000E+00  0.00000000000E+00  0.28199665014E+03  0.28199665014E+03  0.00000000000E+00 0. -1.
         -2   -1    0    0    0  501 -0.00000000000E+00 -0.00000000000E+00 -0.40356609263E+02  0.40356609263E+02  0.00000000000E+00 0.  1.
         23    2    1    2    0    0 -0.26543340096E+02  0.74813564201E+01  0.12010058392E+03  0.17549513470E+03  0.12495548187E+03 0.  0.
         23    2    1    2    0    0  0.26543340096E+02 -0.74813564201E+01  0.12153945695E+03  0.14685812469E+03  0.77684938022E+02 0.  0.
          5    1    3    3  502    0  0.58892350961E+01  0.41639862795E+02 -0.41633072792E+01  0.42520399706E+02  0.47000000000E+01 0.  1.
         -5    1    3    3    0  502 -0.32432575193E+02 -0.34158506375E+02  0.12426389120E+03  0.13297473500E+03  0.47000000000E+01 0.  1.
        -11    1    4    4    0    0 -0.13120661300E+02 -0.14537421187E+02  0.82686066877E+00  0.19600307811E+02  0.00000000000E+00 0.  1.
         11    1    4    4    0    0  0.39664001396E+02  0.70560647672E+01  0.12071259628E+03  0.12725781688E+03  0.00000000000E+00 0. -1.
<mgrwt>
<rscale>  0 0.11464084E+03</rscale>
<asrwt>0</asrwt>
<pdfrwt beam="1">  1        2 0.43384099E-01 0.12796246E+03</pdfrwt>
<pdfrwt beam="2">  1       -2 0.62087093E-02 0.12796246E+03</pdfrwt>
<totfact> 0.15326569E+04</totfact>
</mgrwt>
</event>
<event>
 8    1  0.1154424E-005  0.1281376E+03  0.7546771E-02  0.1245604E+00
         -1   -1    0    0    0  501 -0.00000000000E+00  0.00000000000E+00  0.48907162643E+02  0.48907162643E+02  0.00000000000E+00 0.  1.
          1   -1    0    0  501    0  0.00000000000E+00 -0.00000000000E+00 -0.25256178478E+03  0.25256178478E+03  0.00000000000E+00 0. -1.
         23    2    1    2    0    0  0.27993662701E+02  0.30920809054E+01 -0.10818530840E+03  0.16770003483E+03  0.12500413838E+03 0.  0.
         23    2    1    2    0    0 -0.27993662701E+02 -0.30920809054E+01 -0.95469313741E+02  0.13376891260E+03  0.89367365390E+02 0.  0.
          5    1    3    3  502    0  0.71626983156E+02 -0.14522519443E+02 -0.92277452231E+02  0.11780724289E+03  0.47000000000E+01 0. -1.
         -5    1    3    3    0  502 -0.43633320455E+02  0.17614600348E+02 -0.15907856170E+02  0.49892791937E+02  0.47000000000E+01 0. -1.
        -11    1    4    4    0    0 -0.25307207994E+02  0.25988189740E+02 -0.25451712450E+01  0.36363700019E+02  0.00000000000E+00 0.  1.
         11    1    4    4    0    0 -0.26864547073E+01 -0.29080270646E+02 -0.92924142496E+02  0.97405212583E+02  0.00000000000E+00 0. -1.
<mgrwt>
<rscale>  0 0.11849296E+03</rscale>
<asrwt>0</asrwt>
<pdfrwt beam="2">  1        1 0.38855658E-01 0.12813759E+03</pdfrwt>
<pdfrwt beam="1">  1       -1 0.75241791E-02 0.12813759E+03</pdfrwt>
<totfact> 0.97005112E+03</totfact>
</mgrwt>
</event>
<event>
 8    1  0.1154424E-005  0.1858859E+03  0.7546771E-02  0.1166447E+00
          3   -1    0    0  501    0  0.00000000000E+00  0.00000000000E+00  0.15091320235E+03  0.15091320235E+03  0.00000000000E+00 0. -1.
         -3   -1    0    0    0  501 -0.00000000000E+00 -0.00000000000E+00 -0.22430951826E+03  0.22430951826E+03  0.00000000000E+00 0.  1.
         23    2    1    2    0    0 -0.12501173364E+03 -0.57442836787E+02 -0.88609307268E+02  0.20592521855E+03  0.12500389295E+03 0.  0.
         23    2    1    2    0    0  0.12501173364E+03  0.57442836787E+02  0.15212991362E+02  0.16929750206E+03  0.97481260009E+02 0.  0.
          5    1    3    3  502    0 -0.79922921273E+02 -0.46135031451E+02 -0.11864441709E+03  0.15038185455E+03  0.47000000000E+01 0.  1.
         -5    1    3    3    0  502 -0.45088812366E+02 -0.11307805336E+02  0.30035109820E+02  0.55543363996E+02  0.47000000000E+01 0.  1.
        -11    1    4    4    0    0  0.92352353072E+02  0.45249137069E+02 -0.34592220512E+02  0.10850374760E+03  0.00000000000E+00 0.  1.
         11    1    4    4    0    0  0.32659380567E+02  0.12193699718E+02  0.49805211874E+02  0.60793754462E+02  0.00000000000E+00 0. -1.
<mgrwt>
<rscale>  0 0.18140842E+03</rscale>
<asrwt>0</asrwt>
<pdfrwt beam="1">  1        3 0.23217416E-01 0.18588595E+03</pdfrwt>
<pdfrwt beam="2">  1       -3 0.34509157E-01 0.18588595E+03</pdfrwt>
<totfact> 0.34308099E+02</totfact>
</mgrwt>
</event>
<event>
 8    1  0.1154424E-005  0.1607809E+03  0.7546771E-02  0.1195077E+00
         -1   -1    0    0    0  501 -0.00000000000E+00  0.00000000000E+00  0.57547904376E+02  0.57547904376E+02  0.00000000000E+00 0.  1.
          1   -1    0    0  501    0  0.00000000000E+00 -0.00000000000E+00 -0.40290471270E+03  0.40290471270E+03  0.00000000000E+00 0. -1.
         23    2    1    2    0    0 -0.22728187952E+02 -0.98511535996E+02 -0.13780217301E+03  0.21175442485E+03  0.12501761598E+03 0.  0.
         23    2    1    2    0    0  0.22728187952E+02  0.98511535996E+02 -0.20755463532E+03  0.24869819223E+03  0.92470378632E+02 0.  0.
          5    1    3    3  502    0 -0.57554998543E+02 -0.10632343861E+03 -0.12385845028E+03  0.17314807871E+03  0.47000000000E+01 0. -1.
         -5    1    3    3    0  502  0.34826810591E+02  0.78119026188E+01 -0.13943722728E+02  0.38606346136E+02  0.47000000000E+01 0. -1.
        -11    1    4    4    0    0  0.54248168864E+01  0.39439151300E+02 -0.17419291544E+03  0.17868421050E+03  0.00000000000E+00 0. -1.
         11    1    4    4    0    0  0.17303371065E+02  0.59072384696E+02 -0.33361719877E+02  0.70013981726E+02  0.00000000000E+00 0.  1.
<mgrwt>
<rscale>  0 0.15447716E+03</rscale>
<asrwt>0</asrwt>
<pdfrwt beam="2">  1        1 0.61985338E-01 0.16078090E+03</pdfrwt>
<pdfrwt beam="1">  1       -1 0.88535242E-02 0.16078090E+03</pdfrwt>
<totfact> 0.42996179E+03</totfact>
</mgrwt>
</event>
<event>
 8    1  0.1154424E-005  0.1303470E+03  0.7546771E-02  0.1240004E+00
         -1   -1    0    0    0  501 -0.00000000000E+00  0.00000000000E+00  0.22209277979E+02  0.22209277979E+02  0.00000000000E+00 0.  1.
          1   -1    0    0  501    0  0.00000000000E+00 -0.00000000000E+00 -0.61709952199E+03  0.61709952199E+03  0.00000000000E+00 0. -1.
         23    2    1    2    0    0  0.36953517072E+02  0.12632999830E+01 -0.27661429414E+03  0.30578720359E+03  0.12499275102E+03 0.  0.
         23    2    1    2    0    0 -0.36953517072E+02 -0.12632999830E+01 -0.31827594987E+03  0.33352159638E+03  0.92573844215E+02 0.  0.
          5    1    3    3  502    0  0.42708385925E+02  0.55242291371E+02 -0.19907036553E+03  0.21101378490E+03  0.47000000000E+01 0. -1.
         -5    1    3    3    0  502 -0.57548688530E+01 -0.53978991388E+02 -0.77543928609E+02  0.94773418694E+02  0.47000000000E+01 0. -1.
        -11    1    4    4    0    0 -0.32957588583E+02 -0.39508169123E+02 -0.24927661615E+03  0.25453080252E+03  0.00000000000E+00 0. -1.
         11    1    4    4    0    0 -0.39959284892E+01  0.38244869140E+02 -0.68999333715E+02  0.78990793851E+02  0.00000000000E+00 0.  1.
<mgrwt>
<rscale>  0 0.12189423E+03</rscale>
<asrwt>0</asrwt>
<pdfrwt beam="2">  1        1 0.94938386E-01 0.13034702E+03</pdfrwt>
<pdfrwt beam="1">  1       -1 0.34168121E-02 0.13034702E+03</pdfrwt>
<totfact> 0.10020838E+04</totfact>
</mgrwt>
</event>
<event>
 8    1  0.1154424E-005  0.1926304E+03  0.7546771E-02  0.1160901E+00
          2   -1    0    0  501    0  0.00000000000E+00  0.00000000000E+00  0.41820978867E+03  0.41820978867E+03  0.00000000000E+00 0. -1.
         -2   -1    0    0    0  501 -0.00000000000E+00 -0.00000000000E+00 -0.89500099247E+02  0.89500099247E+02  0.00000000000E+00 0.  1.
         23    2    1    2    0    0  0.14512774679E+03  0.20489847758E+02  0.88154868496E+02  0.21184370481E+03  0.12499831070E+03 0.  0.
         23    2    1    2    0    0 -0.14512774679E+03 -0.20489847758E+02  0.24055482093E+03  0.29586618311E+03  0.90489113646E+02 0.  0.
          5    1    3    3  502    0  0.18946598016E+02  0.47864104791E+02  0.60752717551E+02  0.79767968469E+02  0.47000000000E+01 0. -1.
         -5    1    3    3    0  502  0.12618114877E+03 -0.27374257033E+02  0.27402150946E+02  0.13207573634E+03  0.47000000000E+01 0. -1.
        -11    1    4    4    0    0 -0.50420718630E+02  0.35892633782E+02  0.80849995532E+02  0.10181970244E+03  0.00000000000E+00 0. -1.
         11    1    4    4    0    0 -0.94707028155E+02 -0.56382481540E+02  0.15970482540E+03  0.19404648067E+03  0.00000000000E+00 0.  1.
<mgrwt>
<rscale>  0 0.18731979E+03</rscale>
<asrwt>0</asrwt>
<pdfrwt beam="1">  1        2 0.64339966E-01 0.19263041E+03</pdfrwt>
<pdfrwt beam="2">  1       -2 0.13769246E-01 0.19263041E+03</pdfrwt>
<totfact> 0.29549682E+03</totfact>
</mgrwt>
</event>
<event>
 8    1  0.1154424E-005  0.1266422E+03  0.7546771E-02  0.1248135E+00
          2   -1    0    0  501    0  0.00000000000E+00  0.00000000000E+00  0.83139879610E+02  0.83139879610E+02  0.00000000000E+00 0. -1.
         -2   -1    0    0    0  501 -0.00000000000E+00 -0.00000000000E+00 -0.14824657529E+03  0.14824657529E+03  0.00000000000E+00 0.  1.
         23    2    1    2    0    0  0.10025325835E+02 -0.17680865243E+02 -0.56695461253E+02  0.13875382900E+03  0.12500051833E+03 0.  0.
         23    2    1    2    0    0 -0.10025325835E+02  0.17680865243E+02 -0.84112344230E+01  0.92632625896E+02  0.89982967066E+02 0.  0.
          5    1    3    3  502    0  0.76544384102E+01  0.25358788178E+02  0.30926484705E+02  0.40990194211E+02  0.47000000000E+01 0.  1.
         -5    1    3    3    0  502  0.23708874250E+01 -0.43039653421E+02 -0.87621945958E+02  0.97763634790E+02  0.47000000000E+01 0.  1.
        -11    1    4    4    0    0 -0.40736930699E+02 -0.16728069622E+02  0.56898149921E+01  0.44403826757E+02  0.00000000000E+00 0.  1.
         11    1    4    4    0    0  0.30711604864E+02  0.34408934865E+02 -0.14101049415E+02  0.48228799139E+02  0.00000000000E+00 0. -1.
<mgrwt>
<rscale>  0 0.11699718E+03</rscale>
<asrwt>0</asrwt>
<pdfrwt beam="1">  1        2 0.12790751E-01 0.12664221E+03</pdfrwt>
<pdfrwt beam="2">  1       -2 0.22807165E-01 0.12664221E+03</pdfrwt>
<totfact> 0.74224293E+03</totfact>
</mgrwt>
</event>
<event>
 8    1  0.1154424E-005  0.2549928E+03  0.7546771E-02  0.1112224E+00
         -2   -1    0    0    0  501 -0.00000000000E+00  0.00000000000E+00  0.17883717855E+03  0.17883717855E+03  0.00000000000E+00 0.  1.
          2   -1    0    0  501    0  0.00000000000E+00 -0.00000000000E+00 -0.36255392453E+03  0.36255392453E+03  0.00000000000E+00 0. -1.
         23    2    1    2    0    0 -0.79063935007E+02  0.20770976499E+03 -0.35412929424E+02  0.25744009179E+03  0.12500749177E+03 0.  0.
         23    2    1    2    0    0  0.79063935007E+02 -0.20770976499E+03 -0.14830381655E+03  0.28395101129E+03  0.96123371336E+02 0.  0.
          5    1    3    3  502    0 -0.93310297970E+01  0.48750289843E+02  0.44000635218E+02  0.66496652370E+02  0.47000000000E+01 0. -1.
         -5    1    3    3    0  502 -0.69732905210E+02  0.15895947515E+03 -0.79413564642E+02  0.19094343942E+03  0.47000000000E+01 0. -1.
        -11    1    4    4    0    0  0.23623208245E+02 -0.15565979067E+03 -0.13362198072E+03  0.20650147731E+03  0.00000000000E+00 0.  1.
         11    1    4    4    0    0  0.55440726762E+02 -0.52049974318E+02 -0.14681835837E+02  0.77449533981E+02  0.00000000000E+00 0. -1.
<mgrwt>
<rscale>  0 0.25171829E+03</rscale>
<asrwt>0</asrwt>
<pdfrwt beam="2">  1        2 0.55777527E-01 0.25499279E+03</pdfrwt>
<pdfrwt beam="1">  1       -2 0.27513412E-01 0.25499279E+03</pdfrwt>
<totfact> 0.10648851E+03</totfact>
</mgrwt>
</event>
<event>
 8    1  0.1154424E-005  0.1375517E+03  0.7546771E-02  0.1228529E+00
         -2   -1    0    0    0  501 -0.00000000000E+00  0.00000000000E+00  0.64735564777E+02  0.64735564777E+02  0.00000000000E+00 0.  1.
          2   -1    0    0  501    0  0.00000000000E+00 -0.00000000000E+00 -0.24290962308E+03  0.24290962308E+03  0.00000000000E+00 0. -1.
         23    2    1    2    0    0  0.17540175700E+02 -0.54660268515E+02 -0.66597373423E+02  0.15282564654E+03  0.12500026151E+03 0.  0.
         23    2    1    2    0    0 -0.17540175700E+02  0.54660268515E+02 -0.11157668488E+03  0.15481954132E+03  0.90688097602E+02 0.  0.
          5    1    3    3  502    0 -0.77624853111E+00 -0.90173819701E+02 -0.67243203352E+02  0.11258622792E+03  0.47000000000E+01 0. -1.
         -5    1    3    3    0  502  0.18316424231E+02  0.35513551185E+02  0.64582992912E+00  0.40239418618E+02  0.47000000000E+01 0. -1.
        -11    1    4    4    0    0  0.13663598617E+02  0.67078020357E+02 -0.95722419753E+02  0.11768150401E+03  0.00000000000E+00 0. -1.
         11    1    4    4    0    0 -0.31203774317E+02 -0.12417751842E+02 -0.15854265130E+02  0.37138037310E+02  0.00000000000E+00 0.  1.
<mgrwt>
<rscale>  0 0.12927953E+03</rscale>
<asrwt>0</asrwt>
<pdfrwt beam="2">  1        2 0.37370712E-01 0.13755169E+03</pdfrwt>
<pdfrwt beam="1">  1       -2 0.99593176E-02 0.13755169E+03</pdfrwt>
<totfact> 0.87141556E+03</totfact>
</mgrwt>
</event>
<event>
 8    1  0.1154424E-005  0.1283048E+03  0.7546771E-02  0.1244038E+00
         -4   -1    0    0    0  501 -0.00000000000E+00  0.00000000000E+00  0.43322978313E+02  0.43322978313E+02  0.00000000000E+00 0.  1.
          4   -1    0    0  501    0  0.00000000000E+00 -0.00000000000E+00 -0.31162542444E+03  0.31162542444E+03  0.00000000000E+00 0. -1.
         23    2    1    2    0    0  0.28185620622E+02 -0.64860739539E+01 -0.10697063532E+03  0.16704742075E+03  0.12500250234E+03 0.  0.
         23    2    1    2    0    0 -0.28185620622E+02  0.64860739539E+01 -0.16133181081E+03  0.18790098201E+03  0.91882139155E+02 0.  0.
          5    1    3    3  502    0  0.46171746717E+02 -0.57561663871E+02 -0.60603150201E+02  0.95603384651E+02  0.47000000000E+01 0. -1.
         -5    1    3    3    0  502 -0.17986126095E+02  0.51075589917E+02 -0.46367485120E+02  0.71444036096E+02  0.47000000000E+01 0. -1.
        -11    1    4    4    0    0  0.11134730654E+02 -0.25311548978E+02 -0.11826880560E+02  0.30075435860E+02  0.00000000000E+00 0.  1.
         11    1    4    4    0    0 -0.39320351276E+02  0.31797622931E+02 -0.14950493024E+03  0.15782554615E+03  0.00000000000E+00 0. -1.
<mgrwt>
<rscale>  0 0.11943148E+03</rscale>
<asrwt>0</asrwt>
<pdfrwt beam="2">  1        4 0.47942373E-01 0.12830481E+03</pdfrwt>
<pdfrwt beam="1">  1       -4 0.66650736E-02 0.12830481E+03</pdfrwt>
<totfact> 0.10306858E+03</totfact>
</mgrwt>
</event>
<event>
 8    1  0.1154424E-005  0.1308286E+03  0.7546771E-02  0.1240711E+00
          2   -1    0    0  501    0  0.00000000000E+00  0.00000000000E+00  0.20319143675E+03  0.20319143675E+03  0.00000000000E+00 0.  1.
         -2   -1    0    0    0  501 -0.00000000000E+00 -0.00000000000E+00 -0.63969464584E+02  0.63969464584E+02  0.00000000000E+00 0. -1.
         23    2    1    2    0    0  0.16759439958E+02  0.34779455233E+02  0.79041175148E+02  0.15285168537E+03  0.12500256405E+03 0.  0.
         23    2    1    2    0    0 -0.16759439958E+02 -0.34779455233E+02  0.60180797015E+02  0.11430921596E+03  0.89187326395E+02 0.  0.
          5    1    3    3  502    0  0.25972301365E+02  0.32650229200E+01 -0.29286364324E+02  0.39560105513E+02  0.47000000000E+01 0. -1.
         -5    1    3    3    0  502 -0.92128614079E+01  0.31514432313E+02  0.10832753947E+03  0.11329157986E+03  0.47000000000E+01 0. -1.
        -11    1    4    4    0    0  0.96042903528E+01  0.17658257433E+02  0.51109467448E+02  0.54920252289E+02  0.00000000000E+00 0.  1.
         11    1    4    4    0    0 -0.26363730310E+02 -0.52437712666E+02  0.90713295679E+01  0.59388963668E+02  0.00000000000E+00 0. -1.
<mgrwt>
<rscale>  0 0.12145813E+03</rscale>
<asrwt>0</asrwt>
<pdfrwt beam="1">  1        2 0.31260221E-01 0.13082863E+03</pdfrwt>
<pdfrwt beam="2">  1       -2 0.98414562E-02 0.13082863E+03</pdfrwt>
<totfact> 0.10711612E+04</totfact>
</mgrwt>
</event>
<event>
 8    1  0.1154424E-005  0.1388172E+03  0.7546771E-02  0.1225884E+00
         -1   -1    0    0    0  501 -0.00000000000E+00  0.00000000000E+00  0.41777062564E+02  0.41777062564E+02  0.00000000000E+00 0.  1.
          1   -1    0    0  501    0  0.00000000000E+00 -0.00000000000E+00 -0.40408021037E+03  0.40408021037E+03  0.00000000000E+00 0. -1.
         23    2    1    2    0    0 -0.16476428651E+02 -0.58080218679E+02 -0.13719250448E+03  0.19517174251E+03  0.12500176513E+03 0.  0.
         23    2    1    2    0    0  0.16476428651E+02  0.58080218679E+02 -0.22511064333E+03  0.25068553043E+03  0.92323609788E+02 0.  0.
          5    1    3    3  502    0  0.11594462358E+02 -0.92203258558E+02 -0.79744482062E+02  0.12254446077E+03  0.47000000000E+01 0.  1.
         -5    1    3    3    0  502 -0.28070891009E+02  0.34123039880E+02 -0.57448022422E+02  0.72627281740E+02  0.47000000000E+01 0.  1.
        -11    1    4    4    0    0  0.34229159558E+01 -0.18345501973E+02 -0.82920442525E+01  0.20421356325E+02  0.00000000000E+00 0.  1.
         11    1    4    4    0    0  0.13053512695E+02  0.76425720651E+02 -0.21681859907E+03  0.23026417410E+03  0.00000000000E+00 0. -1.
<mgrwt>
<rscale>  0 0.13106505E+03</rscale>
<asrwt>0</asrwt>
<pdfrwt beam="2">  1        1 0.62166184E-01 0.13881724E+03</pdfrwt>
<pdfrwt beam="1">  1       -1 0.64272406E-02 0.13881724E+03</pdfrwt>
<totfact> 0.68881956E+03</totfact>
</mgrwt>
</event>
<event>
 8    1  0.1154424E-005  0.1292939E+03  0.7546771E-02  0.1241888E+00
         -1   -1    0    0    0  501 -0.00000000000E+00  0.00000000000E+00  0.30395101305E+02  0.30395101305E+02  0.00000000000E+00 0.  1.
          1   -1    0    0  501    0  0.00000000000E+00 -0.00000000000E+00 -0.42696874857E+03  0.42696874857E+03  0.00000000000E+00 0. -1.
         23    2    1    2    0    0 -0.39346352981E+01  0.32979720926E+02 -0.21495949472E+03  0.25084756558E+03  0.12495508570E+03 0.  0.
         23    2    1    2    0    0  0.39346352981E+01 -0.32979720926E+02 -0.18161415255E+03  0.20651628429E+03  0.92531788726E+02 0.  0.
          5    1    3    3  502    0  0.44724628592E+02 -0.12429089604E+02 -0.15240971280E+03  0.15939129596E+03  0.47000000000E+01 0.  1.
         -5    1    3    3    0  502 -0.48659263890E+02  0.45408810530E+02 -0.62549781916E+02  0.91456269625E+02  0.47000000000E+01 0.  1.
        -11    1    4    4    0    0 -0.37324847743E+02 -0.34345037371E+02 -0.13519044471E+03  0.14439245892E+03  0.00000000000E+00 0. -1.
         11    1    4    4    0    0  0.41259483041E+02  0.13653164454E+01 -0.46423707834E+02  0.62123825372E+02  0.00000000000E+00 0.  1.
<mgrwt>
<rscale>  0 0.12073560E+03</rscale>
<asrwt>0</asrwt>
<pdfrwt beam="2">  1        1 0.65687497E-01 0.12929392E+03</pdfrwt>
<pdfrwt beam="1">  1       -1 0.46761697E-02 0.12929392E+03</pdfrwt>
<totfact> 0.10249741E+04</totfact>
</mgrwt>
</event>
<event>
 8    1  0.1154424E-005  0.1318812E+03  0.7546771E-02  0.1237842E+00
         -4   -1    0    0    0  501 -0.00000000000E+00  0.00000000000E+00  0.20092139487E+03  0.20092139487E+03  0.00000000000E+00 0.  1.
          4   -1    0    0  501    0  0.00000000000E+00 -0.00000000000E+00 -0.68095546083E+02  0.68095546083E+02  0.00000000000E+00 0. -1.
         23    2    1    2    0    0 -0.27579368435E+02 -0.31700936886E+02  0.90228694649E+02  0.15979320168E+03  0.12500831574E+03 0.  0.
         23    2    1    2    0    0  0.27579368435E+02  0.31700936886E+02  0.42597154136E+02  0.10922373927E+03  0.91376893776E+02 0.  0.
          5    1    3    3  502    0 -0.70410178618E+02 -0.35920794379E+02  0.85027153891E+02  0.11618779463E+03  0.47000000000E+01 0. -1.
         -5    1    3    3    0  502  0.42830810184E+02  0.42198574925E+01  0.52015407574E+01  0.43605407056E+02  0.47000000000E+01 0. -1.
        -11    1    4    4    0    0 -0.22089068644E+02 -0.13662680232E+01  0.44310695260E+02  0.49530105556E+02  0.00000000000E+00 0.  1.
         11    1    4    4    0    0  0.49668437079E+02  0.33067204910E+02 -0.17135411248E+01  0.59693633711E+02  0.00000000000E+00 0. -1.
<mgrwt>
<rscale>  0 0.12324223E+03</rscale>
<asrwt>0</asrwt>
<pdfrwt beam="2">  1        4 0.10476238E-01 0.13188120E+03</pdfrwt>
<pdfrwt beam="1">  1       -4 0.30910983E-01 0.13188120E+03</pdfrwt>
<totfact> 0.11544211E+03</totfact>
</mgrwt>
</event>
<event>
 8    1  0.1154424E-005  0.1499664E+03  0.7546771E-02  0.1211209E+00
         -2   -1    0    0    0  501 -0.00000000000E+00  0.00000000000E+00  0.31505681083E+02  0.31505681083E+02  0.00000000000E+00 0.  1.
          2   -1    0    0  501    0  0.00000000000E+00 -0.00000000000E+00 -0.67022376037E+03  0.67022376037E+03  0.00000000000E+00 0. -1.
         23    2    1    2    0    0 -0.56752712690E+02  0.60370885453E+02 -0.21900693835E+03  0.26543166400E+03  0.12499765996E+03 0.  0.
         23    2    1    2    0    0  0.56752712690E+02 -0.60370885453E+02 -0.41971114093E+03  0.43629777746E+03  0.85631738175E+02 0.  0.
          5    1    3    3  502    0 -0.96793688001E+02  0.41603265692E+02 -0.15667194866E+03  0.18885984023E+03  0.47000000000E+01 0. -1.
         -5    1    3    3    0  502  0.40040975312E+02  0.18767619761E+02 -0.62334989691E+02  0.76571823768E+02  0.47000000000E+01 0. -1.
        -11    1    4    4    0    0  0.45713802221E+02 -0.81290887511E+02 -0.36431365685E+03  0.37606169796E+03  0.00000000000E+00 0.  1.
         11    1    4    4    0    0  0.11038910469E+02  0.20920002057E+02 -0.55397484085E+02  0.60236079499E+02  0.00000000000E+00 0. -1.
<mgrwt>
<rscale>  0 0.14158756E+03</rscale>
<asrwt>0</asrwt>
<pdfrwt beam="2">  1        2 0.10311135E+00 0.14996643E+03</pdfrwt>
<pdfrwt beam="1">  1       -2 0.48470279E-02 0.14996643E+03</pdfrwt>
<totfact> 0.87604557E+03</totfact>
</mgrwt>
</event>
<event>
 8    1  0.1154424E-005  0.1317222E+03  0.7546771E-02  0.1238443E+00
          3   -1    0    0  501    0  0.00000000000E+00  0.00000000000E+00  0.54625120833E+02  0.54625120833E+02  0.00000000000E+00 0. -1.
         -3   -1    0    0    0  501 -0.00000000000E+00 -0.00000000000E+00 -0.27451262881E+03  0.27451262881E+03  0.00000000000E+00 0.  1.
         23    2    1    2    0    0  0.25827004309E+02  0.32548984059E+02 -0.17690093974E+03  0.22055540241E+03  0.12499709012E+03 0.  0.
         23    2    1    2    0    0 -0.25827004309E+02 -0.32548984059E+02 -0.42986568237E+02  0.10858234723E+03  0.90641108592E+02 0.  0.
          5    1    3    3  502    0 -0.20473262742E+02  0.69102168033E+02 -0.89537499200E+02  0.11503615900E+03  0.47000000000E+01 0. -1.
         -5    1    3    3    0  502  0.46300267051E+02 -0.36553183974E+02 -0.87363440541E+02  0.10551924341E+03  0.47000000000E+01 0. -1.
        -11    1    4    4    0    0 -0.41141354026E+01 -0.15819708820E+02  0.28036486040E+02  0.32453564469E+02  0.00000000000E+00 0. -1.
         11    1    4    4    0    0 -0.21712868906E+02 -0.16729275239E+02 -0.71023054277E+02  0.76128782763E+02  0.00000000000E+00 0.  1.
<mgrwt>
<rscale>  0 0.12286552E+03</rscale>
<asrwt>0</asrwt>
<pdfrwt beam="1">  1        3 0.84038649E-02 0.13172222E+03</pdfrwt>
<pdfrwt beam="2">  1       -3 0.42232711E-01 0.13172222E+03</pdfrwt>
<totfact> 0.12589215E+03</totfact>
</mgrwt>
</event>
<event>
 8    1  0.1154424E-005  0.1309847E+03  0.7546771E-02  0.1239647E+00
          2   -1    0    0  501    0  0.00000000000E+00  0.00000000000E+00  0.41907776272E+03  0.41907776272E+03  0.00000000000E+00 0. -1.
         -2   -1    0    0    0  501 -0.00000000000E+00 -0.00000000000E+00 -0.31542366012E+02  0.31542366012E+02  0.00000000000E+00 0.  1.
         23    2    1    2    0    0  0.23835039952E+02 -0.31035703968E+02  0.21880435134E+03  0.25501438451E+03  0.12500267234E+03 0.  0.
         23    2    1    2    0    0 -0.23835039952E+02  0.31035703968E+02  0.16873104536E+03  0.19560574422E+03  0.90885188287E+02 0.  0.
          5    1    3    3  502    0 -0.53837844154E+01  0.15865259812E+02 -0.96691260369E+01  0.19906622060E+02  0.47000000000E+01 0.  1.
         -5    1    3    3    0  502  0.29218824367E+02 -0.46900963780E+02  0.22847347738E+03  0.23510776245E+03  0.47000000000E+01 0.  1.
        -11    1    4    4    0    0 -0.37798082326E+02  0.57507195865E+02  0.11164672224E+03  0.13115168009E+03  0.00000000000E+00 0.  1.
         11    1    4    4    0    0  0.13963042374E+02 -0.26471491896E+02  0.57084323124E+02  0.64454064124E+02  0.00000000000E+00 0. -1.
<mgrwt>
<rscale>  0 0.12211563E+03</rscale>
<asrwt>0</asrwt>
<pdfrwt beam="1">  1        2 0.64473498E-01 0.13098470E+03</pdfrwt>
<pdfrwt beam="2">  1       -2 0.48526720E-02 0.13098470E+03</pdfrwt>
<totfact> 0.14621853E+04</totfact>
</mgrwt>
</event>
<event>
 7    1  0.1154424E-005  0.2418386E+03  0.7546771E-02  0.1152105E+00
         -1   -1    0    0    0  501 -0.00000000000E+00  0.00000000000E+00  0.78172822652E+02  0.78172822652E+02  0.00000000000E+00 0.  1.
          1   -1    0    0  501    0  0.00000000000E+00 -0.00000000000E+00 -0.52294752800E+03  0.52294752800E+03  0.00000000000E+00 0. -1.
         23    2    1    2    0    0  0.51866957598E+02 -0.24605336383E+02 -0.30176509903E+03  0.32016186645E+03  0.90254317713E+02 0.  0.
          5    1    1    2  502    0 -0.57132083370E+02 -0.42378307360E+02  0.42915297358E+02  0.83209426342E+02  0.47000000000E+01 0. -1.
         -5    1    1    2    0  502  0.52651257714E+01  0.66983643743E+02 -0.18592490368E+03  0.19774905786E+03  0.47000000000E+01 0.  1.
        -11    1    3    3    0    0  0.33967952039E+02 -0.57056625417E+02 -0.15184877578E+03  0.16573270943E+03  0.00000000000E+00 0. -1.
         11    1    3    3    0    0  0.17899005559E+02  0.32451289034E+02 -0.14991632325E+03  0.15442915701E+03  0.00000000000E+00 0.  1.
<mgrwt>
<rscale>  0 0.19722155E+03</rscale>
<asrwt>0</asrwt>
<pdfrwt beam="2">  1        1 0.80453468E-01 0.24183863E+03</pdfrwt>
<pdfrwt beam="1">  1       -1 0.12026588E-01 0.24183863E+03</pdfrwt>
<totfact> 0.19334740E+03</totfact>
</mgrwt>
</event>
<event>
 8    1  0.1154424E-005  0.1429295E+03  0.7546771E-02  0.1219000E+00
         -1   -1    0    0    0  501 -0.00000000000E+00  0.00000000000E+00  0.24326072493E+03  0.24326072493E+03  0.00000000000E+00 0.  1.
          1   -1    0    0  501    0  0.00000000000E+00 -0.00000000000E+00 -0.10482172993E+03  0.10482172993E+03  0.00000000000E+00 0. -1.
         23    2    1    2    0    0 -0.67625446852E+02 -0.15168093543E+02  0.17484286178E+03  0.22582929013E+03  0.12500227935E+03 0.  0.
         23    2    1    2    0    0  0.67625446852E+02  0.15168093543E+02 -0.36403866779E+02  0.12225316473E+03  0.93900599816E+02 0.  0.
          5    1    3    3  502    0 -0.76717253478E+02 -0.18590640697E+02  0.36549464913E+02  0.87115453785E+02  0.47000000000E+01 0.  1.
         -5    1    3    3    0  502  0.90918066261E+01  0.34225471540E+01  0.13829339687E+03  0.13871383635E+03  0.47000000000E+01 0.  1.
        -11    1    4    4    0    0  0.80055690587E+02  0.91652901183E+01  0.28642242556E+01  0.80629522626E+02  0.00000000000E+00 0.  1.
         11    1    4    4    0    0 -0.12430243735E+02  0.60028034246E+01 -0.39268091035E+02  0.41623642102E+02  0.00000000000E+00 0. -1.
<mgrwt>
<rscale>  0 0.13586760E+03</rscale>
<asrwt>0</asrwt>
<pdfrwt beam="2">  1        1 0.16126420E-01 0.14292950E+03</pdfrwt>
<pdfrwt beam="1">  1       -1 0.37424727E-01 0.14292950E+03</pdfrwt>
<totfact> 0.22899803E+03</totfact>
</mgrwt>
</event>
<event>
 8    1  0.1154424E-005  0.1429246E+03  0.7546771E-02  0.1219620E+00
         -1   -1    0    0    0  501 -0.00000000000E+00  0.00000000000E+00  0.17403724877E+03  0.17403724877E+03  0.00000000000E+00 0.  1.
          1   -1    0    0  501    0  0.00000000000E+00 -0.00000000000E+00 -0.97232326632E+02  0.97232326632E+02  0.00000000000E+00 0. -1.
         23    2    1    2    0    0  0.60561289785E+02 -0.33802579851E+02  0.59305652054E+02  0.15474042521E+03  0.12496861447E+03 0.  0.
         23    2    1    2    0    0 -0.60561289785E+02  0.33802579851E+02  0.17499270085E+02  0.11652915019E+03  0.91992033167E+02 0.  0.
          5    1    3    3  502    0  0.83342133441E+02  0.16830332126E+02  0.48449210412E+02  0.97972380167E+02  0.47000000000E+01 0.  1.
         -5    1    3    3    0  502 -0.22780843656E+02 -0.50632911977E+02  0.10856441642E+02  0.56768045044E+02  0.47000000000E+01 0.  1.
        -11    1    4    4    0    0 -0.47881984138E+02 -0.15742971634E+02 -0.18820054594E+02  0.53802602314E+02  0.00000000000E+00 0. -1.
         11    1    4    4    0    0 -0.12679305648E+02  0.49545551486E+02  0.36319324679E+02  0.62726547879E+02  0.00000000000E+00 0.  1.
<mgrwt>
<rscale>  0 0.13542555E+03</rscale>
<asrwt>0</asrwt>
<pdfrwt beam="2">  1        1 0.14958819E-01 0.14292459E+03</pdfrwt>
<pdfrwt beam="1">  1       -1 0.26774961E-01 0.14292459E+03</pdfrwt>
<totfact> 0.44519783E+03</totfact>
</mgrwt>
</event>
<event>
 8    1  0.1154424E-005  0.1431091E+03  0.7546771E-02  0.1220150E+00
          2   -1    0    0  501    0  0.00000000000E+00  0.00000000000E+00  0.59534373030E+03  0.59534373030E+03  0.00000000000E+00 0.  1.
         -2   -1    0    0    0  501 -0.00000000000E+00 -0.00000000000E+00 -0.37893477360E+02  0.37893477360E+02  0.00000000000E+00 0. -1.
         23    2    1    2    0    0 -0.53100680118E+02 -0.45127070902E+02  0.13838181467E+03  0.19907219939E+03  0.12499631667E+03 0.  0.
         23    2    1    2    0    0  0.53100680118E+02  0.45127070902E+02  0.41906843826E+03  0.43416500827E+03  0.89581045422E+02 0.  0.
          5    1    3    3  502    0 -0.14771137910E+02 -0.44548785226E+02 -0.78579658830E+01  0.47818598977E+02  0.47000000000E+01 0. -1.
         -5    1    3    3    0  502 -0.38329542208E+02 -0.57828567522E+00  0.14623978056E+03  0.15125360041E+03  0.47000000000E+01 0. -1.
        -11    1    4    4    0    0  0.72290901917E+02  0.54597215627E+02  0.30767642708E+03  0.32073605073E+03  0.00000000000E+00 0. -1.
         11    1    4    4    0    0 -0.19190221799E+02 -0.94701447256E+01  0.11139201118E+03  0.11342895754E+03  0.00000000000E+00 0.  1.
<mgrwt>
<rscale>  0 0.13504972E+03</rscale>
<asrwt>0</asrwt>
<pdfrwt beam="1">  1        2 0.91591336E-01 0.14310910E+03</pdfrwt>
<pdfrwt beam="2">  1       -2 0.58297662E-02 0.14310910E+03</pdfrwt>
<totfact> 0.75833357E+03</totfact>
</mgrwt>
</event>
<event>
 8    1  0.1154424E-005  0.1536908E+03  0.7546771E-02  0.1204065E+00
         -1   -1    0    0    0  501 -0.00000000000E+00  0.00000000000E+00  0.38621098419E+02  0.38621098419E+02  0.00000000000E+00 0.  1.
          1   -1    0    0  501    0  0.00000000000E+00 -0.00000000000E+00 -0.51858107133E+03  0.51858107133E+03  0.00000000000E+00 0. -1.
         23    2    1    2    0    0 -0.50297166353E+02  0.73920746897E+02 -0.27422474804E+03  0.31435660939E+03  0.12500713446E+03 0.  0.
         23    2    1    2    0    0  0.50297166353E+02 -0.73920746897E+02 -0.20573522488E+03  0.24284556036E+03  0.93020974336E+02 0.  0.
          5    1    3    3  502    0 -0.51599956495E+02 -0.20733575158E+02 -0.13344374639E+03  0.14464356225E+03  0.47000000000E+01 0.  1.
         -5    1    3    3    0  502  0.13027901423E+01  0.94654322055E+02 -0.14078100165E+03  0.16971304714E+03  0.47000000000E+01 0.  1.
        -11    1    4    4    0    0  0.47005076517E+02  0.18568409726E+01 -0.11704704831E+03  0.12614648863E+03  0.00000000000E+00 0.  1.
         11    1    4    4    0    0  0.32920898363E+01 -0.75777587870E+02 -0.88688176567E+02  0.11669907173E+03  0.00000000000E+00 0. -1.
<mgrwt>
<rscale>  0 0.14711362E+03</rscale>
<asrwt>0</asrwt>
<pdfrwt beam="2">  1        1 0.79781695E-01 0.15369081E+03</pdfrwt>
<pdfrwt beam="1">  1       -1 0.59417081E-02 0.15369081E+03</pdfrwt>
<totfact> 0.56493258E+03</totfact>
</mgrwt>
</event>
<event>
 8    1  0.1154424E-005  0.1332040E+03  0.7546771E-02  0.1235797E+00
          3   -1    0    0  501    0  0.00000000000E+00  0.00000000000E+00  0.91541342368E+02  0.91541342368E+02  0.00000000000E+00 0. -1.
         -3   -1    0    0    0  501 -0.00000000000E+00 -0.00000000000E+00 -0.18785282482E+03  0.18785282482E+03  0.00000000000E+00 0.  1.
         23    2    1    2    0    0 -0.42909866174E+02 -0.16634482465E+02 -0.11493400979E+03  0.17593502902E+03  0.12500138082E+03 0.  0.
         23    2    1    2    0    0  0.42909866174E+02  0.16634482465E+02  0.18622527333E+02  0.10345913818E+03  0.90769114384E+02 0.  0.
          5    1    3    3  502    0  0.33732474220E+02  0.27621155722E+01 -0.84399766158E+02  0.91054487133E+02  0.47000000000E+01 0. -1.
         -5    1    3    3    0  502 -0.76642340394E+02 -0.19396598037E+02 -0.30534243630E+02  0.84880541884E+02  0.47000000000E+01 0. -1.
        -11    1    4    4    0    0  0.67535814416E+02  0.79874469274E+01  0.30802464472E+02  0.74657065002E+02  0.00000000000E+00 0.  1.
         11    1    4    4    0    0 -0.24625948242E+02  0.86470355371E+01 -0.12179937140E+02  0.28802073174E+02  0.00000000000E+00 0. -1.
<mgrwt>
<rscale>  0 0.12453522E+03</rscale>
<asrwt>0</asrwt>
<pdfrwt beam="1">  1        3 0.14083283E-01 0.13320401E+03</pdfrwt>
<pdfrwt beam="2">  1       -3 0.28900435E-01 0.13320401E+03</pdfrwt>
<totfact> 0.10937841E+03</totfact>
</mgrwt>
</event>
<event>
 8    1  0.1154424E-005  0.1250793E+03  0.7546771E-02  0.1251236E+00
          1   -1    0    0  501    0  0.00000000000E+00  0.00000000000E+00  0.18166442637E+03  0.18166442637E+03  0.00000000000E+00 0. -1.
         -1   -1    0    0    0  501 -0.00000000000E+00 -0.00000000000E+00 -0.64806070206E+02  0.64806070206E+02  0.00000000000E+00 0.  1.
         23    2    1    2    0    0 -0.93680978045E+00  0.43238505059E+01  0.83982155388E+02  0.15065800147E+03  0.12500103075E+03 0.  0.
         23    2    1    2    0    0  0.93680978045E+00 -0.43238505059E+01  0.32876200781E+02  0.95812495109E+02  0.89886686142E+02 0.  0.
          5    1    3    3  502    0 -0.92112692596E+01 -0.59534635284E+02  0.43452094040E+02  0.74427110358E+02  0.47000000000E+01 0.  1.
         -5    1    3    3    0  502  0.82744594791E+01  0.63858485790E+02  0.40530061349E+02  0.76230891114E+02  0.47000000000E+01 0.  1.
        -11    1    4    4    0    0 -0.36219175929E+02  0.18230833075E+02 -0.12232759748E+01  0.40567084979E+02  0.00000000000E+00 0.  1.
         11    1    4    4    0    0  0.37155985709E+02 -0.22554683581E+02  0.34099476756E+02  0.55245410130E+02  0.00000000000E+00 0. -1.
<mgrwt>
<rscale>  0 0.11519782E+03</rscale>
<asrwt>0</asrwt>
<pdfrwt beam="1">  1        1 0.27948373E-01 0.12507930E+03</pdfrwt>
<pdfrwt beam="2">  1       -1 0.99701647E-02 0.12507930E+03</pdfrwt>
<totfact> 0.95126130E+03</totfact>
</mgrwt>
</event>
<event>
 7    1  0.1154424E-005  0.3290901E+03  0.7546771E-02  0.1071540E+00
          1   -1    0    0  501    0  0.00000000000E+00  0.00000000000E+00  0.92362074204E+03  0.92362074204E+03  0.00000000000E+00 0. -1.
         -1   -1    0    0    0  501 -0.00000000000E+00 -0.00000000000E+00 -0.29314057636E+02  0.29314057636E+02  0.00000000000E+00 0.  1.
         23    2    1    2    0    0 -0.32484412473E+02 -0.19405307402E+02  0.17421169648E+03  0.21773205762E+03  0.12500292284E+03 0.  0.
          5    1    3    3  502    0 -0.34079436552E+02 -0.50296327340E+02  0.25995151476E+02  0.66249275014E+02  0.47000000000E+01 0.  1.
         -5    1    3    3    0  502  0.15950240790E+01  0.30891019938E+02  0.14821654500E+03  0.15148278261E+03  0.47000000000E+01 0.  1.
        -11    1    1    2    0    0  0.72239770800E+02 -0.35410974485E+02  0.40510753143E+03  0.41301892646E+03  0.00000000000E+00 0.  1.
         11    1    1    2    0    0 -0.39755358327E+02  0.54816281887E+02  0.31498745650E+03  0.32218381559E+03  0.00000000000E+00 0. -1.
<mgrwt>
<rscale>  0 0.32909009E+03</rscale>
<asrwt>0</asrwt>
<pdfrwt beam="1">  1        1 0.14209548E+00 0.32909009E+03</pdfrwt>
<pdfrwt beam="2">  1       -1 0.45098557E-02 0.32909009E+03</pdfrwt>
<totfact> 0.37700585E+03</totfact>
</mgrwt>
</event>
<event>
 8    1  0.1154424E-005  0.1503389E+03  0.7546771E-02  0.1209549E+00
          1   -1    0    0  501    0  0.00000000000E+00  0.00000000000E+00  0.54256745857E+02  0.54256745857E+02  0.00000000000E+00 0. -1.
         -1   -1    0    0    0  501 -0.00000000000E+00 -0.00000000000E+00 -0.41279128483E+03  0.41279128483E+03  0.00000000000E+00 0.  1.
         23    2    1    2    0    0 -0.75322646136E+02  0.36097455480E+02 -0.28998703070E+03  0.32664086285E+03  0.12500099197E+03 0.  0.
         23    2    1    2    0    0  0.75322646136E+02 -0.36097455480E+02 -0.68547508275E+02  0.14040716784E+03  0.89659826999E+02 0.  0.
          5    1    3    3  502    0 -0.17261192523E+02  0.73908871720E+02 -0.19225258491E+03  0.20674529376E+03  0.47000000000E+01 0. -1.
         -5    1    3    3    0  502 -0.58061453613E+02 -0.37811416240E+02 -0.97734445794E+02  0.11989556909E+03  0.47000000000E+01 0. -1.
        -11    1    4    4    0    0 -0.10832294747E+02 -0.34718925110E+02 -0.20702683338E+02  0.41849055756E+02  0.00000000000E+00 0. -1.
         11    1    4    4    0    0  0.86154940883E+02 -0.13785303702E+01 -0.47844824937E+02  0.98558112085E+02  0.00000000000E+00 0.  1.
<mgrwt>
<rscale>  0 0.14284683E+03</rscale>
<asrwt>0</asrwt>
<pdfrwt beam="1">  1        1 0.83471916E-02 0.15033887E+03</pdfrwt>
<pdfrwt beam="2">  1       -1 0.63506352E-01 0.15033887E+03</pdfrwt>
<totfact> 0.20821200E+03</totfact>
</mgrwt>
</event>
<event>
 7    1  0.1154424E-005  0.7762407E+03  0.7546771E-02  0.9595059E-01
         -2   -1    0    0    0  501 -0.00000000000E+00  0.00000000000E+00  0.17868968952E+03  0.17868968952E+03  0.00000000000E+00 0.  1.
          2   -1    0    0  501    0  0.00000000000E+00 -0.00000000000E+00 -0.84301119994E+03  0.84301119994E+03  0.00000000000E+00 0. -1.
         23    2    1    2    0    0 -0.25510338654E+03  0.11153596526E+02 -0.20263085648E+03  0.33825445155E+03  0.90303208434E+02 0.  0.
          5    1    1    2  502    0  0.24553780680E+03  0.11639752959E+03 -0.48249647378E+03  0.55377083408E+03  0.47000000000E+01 0. -1.
         -5    1    1    2    0  502  0.95655797433E+01 -0.12755112612E+03  0.20805819839E+02  0.12967560383E+03  0.47000000000E+01 0.  1.
        -11    1    3    3    0    0 -0.21132369804E+03 -0.26604626491E+02 -0.15697873970E+03  0.26458993976E+03  0.00000000000E+00 0. -1.
         11    1    3    3    0    0 -0.43779688507E+02  0.37758223017E+02 -0.45652116778E+02  0.73664511791E+02  0.00000000000E+00 0.  1.
<mgrwt>
<rscale>  0 0.77624071E+03</rscale>
<asrwt>0</asrwt>
<pdfrwt beam="2">  1        2 0.12969403E+00 0.77624071E+03</pdfrwt>
<pdfrwt beam="1">  1       -2 0.27490722E-01 0.77624071E+03</pdfrwt>
<totfact> 0.38879432E+02</totfact>
</mgrwt>
</event>
<event>
 8    1  0.1154424E-005  0.1604330E+03  0.7546771E-02  0.1193495E+00
          1   -1    0    0  501    0  0.00000000000E+00  0.00000000000E+00  0.24259072357E+03  0.24259072357E+03  0.00000000000E+00 0. -1.
         -1   -1    0    0    0  501 -0.00000000000E+00 -0.00000000000E+00 -0.13701431985E+03  0.13701431985E+03  0.00000000000E+00 0.  1.
         23    2    1    2    0    0 -0.68517110386E+02  0.73616025249E+02 -0.50389376491E+02  0.16816015927E+03  0.12499934525E+03 0.  0.
         23    2    1    2    0    0  0.68517110386E+02 -0.73616025249E+02  0.15596578021E+03  0.21144488415E+03  0.10133953250E+03 0.  0.
          5    1    3    3  502    0 -0.23805927183E+02  0.64491731480E+02 -0.85918671429E+02  0.11013634141E+03  0.47000000000E+01 0. -1.
         -5    1    3    3    0  502 -0.44711183203E+02  0.91242937694E+01  0.35529294938E+02  0.58023817859E+02  0.47000000000E+01 0. -1.
        -11    1    4    4    0    0  0.29901700864E+02 -0.90097481377E+02  0.13354656356E+03  0.16384856577E+03  0.00000000000E+00 0. -1.
         11    1    4    4    0    0  0.38615409522E+02  0.16481456128E+02  0.22419216656E+02  0.47596318388E+02  0.00000000000E+00 0.  1.
<mgrwt>
<rscale>  0 0.15582260E+03</rscale>
<asrwt>0</asrwt>
<pdfrwt beam="1">  1        1 0.37321650E-01 0.16043301E+03</pdfrwt>
<pdfrwt beam="2">  1       -1 0.21079126E-01 0.16043301E+03</pdfrwt>
<totfact> 0.20835493E+03</totfact>
</mgrwt>
</event>
<event>
 8    1  0.1154424E-005  0.2105073E+03  0.7546771E-02  0.1145110E+00
         -2   -1    0    0    0  501 -0.00000000000E+00  0.00000000000E+00  0.12268112974E+03  0.12268112974E+03  0.00000000000E+00 0.  1.
          2   -1    0    0  501    0  0.00000000000E+00 -0.00000000000E+00 -0.41195799441E+03  0.41195799441E+03  0.00000000000E+00 0. -1.
         23    2    1    2    0    0 -0.10110179320E+03 -0.13601815165E+03 -0.30492563209E+02  0.21270431671E+03  0.12486320422E+03 0.  0.
         23    2    1    2    0    0  0.10110179320E+03  0.13601815165E+03 -0.25878430146E+03  0.32193480744E+03  0.89163868210E+02 0.  0.
          5    1    3    3  502    0 -0.10602578493E+03 -0.46721064979E+02 -0.39956130754E+02  0.12264953064E+03  0.47000000000E+01 0.  1.
         -5    1    3    3    0  502  0.49239917246E+01 -0.89297086671E+02  0.94635675442E+01  0.90054786065E+02  0.47000000000E+01 0.  1.
        -11    1    4    4    0    0  0.69674818210E+02  0.25026606214E+02 -0.12506445151E+03  0.14533419536E+03  0.00000000000E+00 0.  1.
         11    1    4    4    0    0  0.31426974994E+02  0.11099154544E+03 -0.13371984995E+03  0.17660061208E+03  0.00000000000E+00 0. -1.
<mgrwt>
<rscale>  0 0.20558587E+03</rscale>
<asrwt>0</asrwt>
<pdfrwt beam="2">  1        2 0.63378152E-01 0.21050732E+03</pdfrwt>
<pdfrwt beam="1">  1       -2 0.18874020E-01 0.21050732E+03</pdfrwt>
<totfact> 0.17826022E+03</totfact>
</mgrwt>
</event>
<event>
 8    1  0.1154424E-005  0.1313166E+03  0.7546771E-02  0.1239689E+00
         -1   -1    0    0    0  501 -0.00000000000E+00  0.00000000000E+00  0.56066206219E+02  0.56066206219E+02  0.00000000000E+00 0.  1.
          1   -1    0    0  501    0  0.00000000000E+00 -0.00000000000E+00 -0.31245558965E+03  0.31245558965E+03  0.00000000000E+00 0. -1.
         23    2    1    2    0    0 -0.22354888581E+02  0.33464417088E+02 -0.50951596529E+02  0.14085497735E+03  0.12499780479E+03 0.  0.
         23    2    1    2    0    0  0.22354888581E+02 -0.33464417088E+02 -0.20543778690E+03  0.22766681852E+03  0.89486801884E+02 0.  0.
          5    1    3    3  502    0 -0.10344593043E+02 -0.32456396577E+02  0.22675783109E+02  0.41191132828E+02  0.47000000000E+01 0. -1.
         -5    1    3    3    0  502 -0.12010295538E+02  0.65920813665E+02 -0.73627379639E+02  0.99663844526E+02  0.47000000000E+01 0. -1.
        -11    1    4    4    0    0  0.38019445693E+02  0.75001794551E+01 -0.36878670621E+02  0.53495488496E+02  0.00000000000E+00 0.  1.
         11    1    4    4    0    0 -0.15664557112E+02 -0.40964596543E+02 -0.16855911628E+03  0.17417133002E+03  0.00000000000E+00 0. -1.
<mgrwt>
<rscale>  0 0.12208969E+03</rscale>
<asrwt>0</asrwt>
<pdfrwt beam="2">  1        1 0.48070092E-01 0.13131664E+03</pdfrwt>
<pdfrwt beam="1">  1       -1 0.86255700E-02 0.13131664E+03</pdfrwt>
<totfact> 0.60816090E+03</totfact>
</mgrwt>
</event>
<event>
 7    1  0.1154424E-005  0.5440924E+03  0.7546771E-02  0.1053031E+00
          2   -1    0    0  501    0  0.00000000000E+00  0.00000000000E+00  0.61310170611E+03  0.61310170611E+03  0.00000000000E+00 0. -1.
         -2   -1    0    0    0  501 -0.00000000000E+00 -0.00000000000E+00 -0.19090171977E+03  0.19090171977E+03  0.00000000000E+00 0.  1.
         23    2    1    2    0    0  0.45346749187E+02 -0.75039424958E+02  0.15675461730E+03  0.19861280081E+03  0.84780844783E+02 0.  0.
          5    1    1    2  502    0 -0.46107219623E+02  0.18435071980E+03  0.39347017766E+03  0.43698047359E+03  0.47000000000E+01 0. -1.
         -5    1    1    2    0  502  0.76047043594E+00 -0.10931129485E+03 -0.12802480862E+03  0.16841015147E+03  0.47000000000E+01 0.  1.
        -11    1    3    3    0    0  0.62003078551E+02 -0.21979879002E+02  0.94414908246E+02  0.11507246295E+03  0.00000000000E+00 0. -1.
         11    1    3    3    0    0 -0.16656329364E+02 -0.53059545956E+02  0.62339709054E+02  0.83540337861E+02  0.00000000000E+00 0.  1.
<mgrwt>
<rscale>  0 0.37437924E+03</rscale>
<asrwt>0</asrwt>
<pdfrwt beam="1">  1        2 0.94323338E-01 0.54409242E+03</pdfrwt>
<pdfrwt beam="2">  1       -2 0.29369496E-01 0.54409242E+03</pdfrwt>
<totfact> 0.52054144E+02</totfact>
</mgrwt>
</event>
<event>
 8    1  0.1154424E-005  0.1748965E+03  0.7546771E-02  0.1178093E+00
          2   -1    0    0  501    0  0.00000000000E+00  0.00000000000E+00  0.44274635708E+03  0.44274635708E+03  0.00000000000E+00 0. -1.
         -2   -1    0    0    0  501 -0.00000000000E+00 -0.00000000000E+00 -0.64643500268E+02  0.64643500268E+02  0.00000000000E+00 0.  1.
         23    2    1    2    0    0  0.32726024120E+02  0.11786762078E+03  0.14433668926E+03  0.22676393224E+03  0.12500012966E+03 0.  0.
         23    2    1    2    0    0 -0.32726024120E+02 -0.11786762078E+03  0.23376616756E+03  0.28062592512E+03  0.95606067117E+02 0.  0.
          5    1    3    3  502    0  0.86860132093E+00 -0.26523973103E+02  0.21542005903E+02  0.34502516369E+02  0.47000000000E+01 0.  1.
         -5    1    3    3    0  502  0.31857422799E+02  0.14439159388E+03  0.12279468335E+03  0.19226141587E+03  0.47000000000E+01 0.  1.
        -11    1    4    4    0    0  0.97491715403E+01 -0.10901183429E+03  0.18817201715E+03  0.21768632111E+03  0.00000000000E+00 0. -1.
         11    1    4    4    0    0 -0.42475195661E+02 -0.88557864890E+01  0.45594150409E+02  0.62939604004E+02  0.00000000000E+00 0.  1.
<mgrwt>
<rscale>  0 0.16976483E+03</rscale>
<asrwt>0</asrwt>
<pdfrwt beam="1">  1        2 0.68114822E-01 0.17489654E+03</pdfrwt>
<pdfrwt beam="2">  1       -2 0.99451541E-02 0.17489654E+03</pdfrwt>
<totfact> 0.46630085E+03</totfact>
</mgrwt>
</event>
<event>
 8    1  0.1154424E-005  0.1338003E+03  0.7546771E-02  0.1236487E+00
          2   -1    0    0  501    0  0.00000000000E+00  0.00000000000E+00  0.15849104521E+03  0.15849104521E+03  0.00000000000E+00 0. -1.
         -2   -1    0    0    0  501 -0.00000000000E+00 -0.00000000000E+00 -0.86809680377E+02  0.86809680377E+02  0.00000000000E+00 0.  1.
         23    2    1    2    0    0  0.19785272776E+02 -0.43425910941E+02  0.26186250688E+02  0.13633868219E+03  0.12500099910E+03 0.  0.
         23    2    1    2    0    0 -0.19785272776E+02  0.43425910941E+02  0.45495114144E+02  0.10896204340E+03  0.86750531587E+02 0.  0.
          5    1    3    3  502    0  0.12685902077E+02 -0.81168871216E+02 -0.10578534083E+02  0.82965734791E+02  0.47000000000E+01 0.  1.
         -5    1    3    3    0  502  0.70993706987E+01  0.37742960275E+02  0.36764784771E+02  0.53372947398E+02  0.47000000000E+01 0.  1.
        -11    1    4    4    0    0  0.13336286278E+02  0.39450660873E+01  0.54849930349E+02  0.56585642502E+02  0.00000000000E+00 0. -1.
         11    1    4    4    0    0 -0.33121559054E+02  0.39480844854E+02 -0.93548162048E+01  0.52376400896E+02  0.00000000000E+00 0.  1.
<mgrwt>
<rscale>  0 0.12409727E+03</rscale>
<asrwt>0</asrwt>
<pdfrwt beam="1">  1        2 0.24383238E-01 0.13380029E+03</pdfrwt>
<pdfrwt beam="2">  1       -2 0.13355335E-01 0.13380029E+03</pdfrwt>
<totfact> 0.86616299E+03</totfact>
</mgrwt>
</event>
<event>
 8    1  0.1154424E-005  0.1453505E+03  0.7546771E-02  0.1216479E+00
          1   -1    0    0  501    0  0.00000000000E+00  0.00000000000E+00  0.21141411112E+03  0.21141411112E+03  0.00000000000E+00 0. -1.
         -1   -1    0    0    0  501 -0.00000000000E+00 -0.00000000000E+00 -0.81718769832E+02  0.81718769832E+02  0.00000000000E+00 0.  1.
         23    2    1    2    0    0 -0.64002509640E+02 -0.37472872683E+02  0.80809748967E+02  0.16630392664E+03  0.12500497215E+03 0.  0.
         23    2    1    2    0    0  0.64002509640E+02  0.37472872683E+02  0.48885592316E+02  0.12682895430E+03  0.90527592955E+02 0.  0.
          5    1    3    3  502    0 -0.55617733244E+02 -0.28563452372E+02  0.11428484947E+03  0.13035459286E+03  0.47000000000E+01 0. -1.
         -5    1    3    3    0  502 -0.83847763959E+01 -0.89094203108E+01 -0.33475100503E+02  0.35949333779E+02  0.47000000000E+01 0. -1.
        -11    1    4    4    0    0  0.58783621160E+02  0.33283804610E+01 -0.88605616879E+01  0.59540757357E+02  0.00000000000E+00 0.  1.
         11    1    4    4    0    0  0.52188884801E+01  0.34144492222E+02  0.57746154004E+02  0.67288196947E+02  0.00000000000E+00 0. -1.
<mgrwt>
<rscale>  0 0.13768475E+03</rscale>
<asrwt>0</asrwt>
<pdfrwt beam="1">  1        1 0.32525248E-01 0.14535054E+03</pdfrwt>
<pdfrwt beam="2">  1       -1 0.12572119E-01 0.14535054E+03</pdfrwt>
<totfact> 0.55755233E+03</totfact>
</mgrwt>
</event>
<event>
 8    1  0.1154424E-005  0.2057757E+03  0.7546771E-02  0.1149408E+00
         -1   -1    0    0    0  501 -0.00000000000E+00  0.00000000000E+00  0.65092190360E+02  0.65092190360E+02  0.00000000000E+00 0.  1.
          1   -1    0    0  501    0  0.00000000000E+00 -0.00000000000E+00 -0.59997865767E+03  0.59997865767E+03  0.00000000000E+00 0. -1.
         23    2    1    2    0    0 -0.13064998727E+03 -0.98245572442E+02 -0.23193251797E+03  0.31005860951E+03  0.12498814646E+03 0.  0.
         23    2    1    2    0    0  0.13064998727E+03  0.98245572442E+02 -0.30295394934E+03  0.35501223853E+03  0.86781233037E+02 0.  0.
          5    1    3    3  502    0 -0.13579827316E+02 -0.17701930561E+02  0.13442347467E+02  0.26468032812E+02  0.47000000000E+01 0.  1.
         -5    1    3    3    0  502 -0.11707015995E+03 -0.80543641881E+02 -0.24537486544E+03  0.28359057669E+03  0.47000000000E+01 0.  1.
        -11    1    4    4    0    0  0.57200638063E+02  0.24083955002E+01 -0.55828817872E+02  0.79966056979E+02  0.00000000000E+00 0.  1.
         11    1    4    4    0    0  0.73449349205E+02  0.95837176942E+02 -0.24712513147E+03  0.27504618155E+03  0.00000000000E+00 0. -1.
<mgrwt>
<rscale>  0 0.20039288E+03</rscale>
<asrwt>0</asrwt>
<pdfrwt beam="2">  1        1 0.92304405E-01 0.20577572E+03</pdfrwt>
<pdfrwt beam="1">  1       -1 0.10014184E-01 0.20577572E+03</pdfrwt>
<totfact> 0.21245599E+03</totfact>
</mgrwt>
</event>
<event>
 8    1  0.1154424E-005  0.1323978E+03  0.7546771E-02  0.1233297E+00
          2   -1    0    0  501    0  0.00000000000E+00  0.00000000000E+00  0.37065675021E+03  0.37065675021E+03  0.00000000000E+00 0. -1.
         -2   -1    0    0    0  501 -0.00000000000E+00 -0.00000000000E+00 -0.60393778623E+02  0.60393778623E+02  0.00000000000E+00 0.  1.
         23    2    1    2    0    0 -0.28288009972E+02 -0.51748737552E+02  0.37995468444E+02  0.13774187916E+03  0.11853702504E+03 0.  0.
         23    2    1    2    0    0  0.28288009972E+02  0.51748737552E+02  0.27226750314E+03  0.29330864967E+03  0.91772693978E+02 0.  0.
          5    1    3    3  502    0 -0.26359966330E+02  0.34954795320E+02  0.30962813705E+01  0.44140259391E+02  0.47000000000E+01 0. -1.
         -5    1    3    3    0  502 -0.19280436420E+01 -0.86703532871E+02  0.34899187074E+02  0.93601619767E+02  0.47000000000E+01 0.  1.
        -11    1    4    4    0    0 -0.33585887558E+02  0.20572488351E+02  0.86622459109E+02  0.95156132446E+02  0.00000000000E+00 0.  1.
         11    1    4    4    0    0  0.61873897529E+02  0.31176249201E+02  0.18564504403E+03  0.19815251723E+03  0.00000000000E+00 0. -1.
<mgrwt>
<rscale>  0 0.12614080E+03</rscale>
<asrwt>0</asrwt>
<pdfrwt beam="1">  1        2 0.57024114E-01 0.13239777E+03</pdfrwt>
<pdfrwt beam="2">  1       -2 0.92913508E-02 0.13239777E+03</pdfrwt>
<totfact> 0.61881482E+03</totfact>
</mgrwt>
</event>
<event>
 7    1  0.1154424E-005  0.5578961E+03  0.7546771E-02  0.1036127E+00
         -2   -1    0    0    0  501 -0.00000000000E+00  0.00000000000E+00  0.13261023296E+03  0.13261023296E+03  0.00000000000E+00 0.  1.
          2   -1    0    0  501    0  0.00000000000E+00 -0.00000000000E+00 -0.10383001487E+04  0.10383001487E+04  0.00000000000E+00 0. -1.
         23    2    1    2    0    0  0.36717752852E+02 -0.15394791992E+03 -0.21971486188E+03  0.28671026023E+03  0.94233737953E+02 0.  0.
          5    1    1    2  502    0  0.15724727058E+03  0.21375284600E+03 -0.61380121030E+03  0.66872340997E+03  0.47000000000E+01 0. -1.
         -5    1    1    2    0  502 -0.19396502343E+03 -0.59804926086E+02 -0.72173843614E+02  0.21547671150E+03  0.47000000000E+01 0.  1.
        -11    1    3    3    0    0  0.66697672237E+02 -0.89830279284E+02 -0.15215054637E+03  0.18885933210E+03  0.00000000000E+00 0. -1.
         11    1    3    3    0    0 -0.29979919384E+02 -0.64117640633E+02 -0.67564315503E+02  0.97850928131E+02  0.00000000000E+00 0.  1.
<mgrwt>
<rscale>  0 0.42289742E+03</rscale>
<asrwt>0</asrwt>
<pdfrwt beam="2">  1        2 0.15973848E+00 0.55789612E+03</pdfrwt>
<pdfrwt beam="1">  1       -2 0.20401574E-01 0.55789612E+03</pdfrwt>
<totfact> 0.49801528E+02</totfact>
</mgrwt>
</event>
<event>
 8    1  0.1154424E-005  0.2694003E+03  0.7546771E-02  0.1103699E+00
         -2   -1    0    0    0  501 -0.00000000000E+00  0.00000000000E+00  0.10543348812E+03  0.10543348812E+03  0.00000000000E+00 0.  1.
          2   -1    0    0  501    0  0.00000000000E+00 -0.00000000000E+00 -0.11348021269E+04  0.11348021269E+04  0.00000000000E+00 0. -1.
         23    2    1    2    0    0 -0.81533173576E+01  0.23848746527E+03 -0.11860217308E+03  0.29435185614E+03  0.12503516336E+03 0.  0.
         23    2    1    2    0    0  0.81533173576E+01 -0.23848746527E+03 -0.91076646570E+03  0.94588375889E+03  0.90872342369E+02 0.  0.
          5    1    3    3  502    0  0.28314688792E+02  0.11572708900E+01 -0.18474917397E+02  0.34153674035E+02  0.47000000000E+01 0. -1.
         -5    1    3    3    0  502 -0.36468006150E+02  0.23733019438E+03 -0.10012725569E+03  0.26019818210E+03  0.47000000000E+01 0. -1.
        -11    1    4    4    0    0  0.38546535206E+02 -0.20996480035E+03 -0.74806081619E+03  0.77792418492E+03  0.00000000000E+00 0.  1.
         11    1    4    4    0    0 -0.30393217848E+02 -0.28522664925E+02 -0.16270564951E+03  0.16795957397E+03  0.00000000000E+00 0. -1.
<mgrwt>
<rscale>  0 0.26581531E+03</rscale>
<asrwt>0</asrwt>
<pdfrwt beam="2">  1        2 0.17458494E+00 0.26940033E+03</pdfrwt>
<pdfrwt beam="1">  1       -2 0.16220537E-01 0.26940033E+03</pdfrwt>
<totfact> 0.65700468E+02</totfact>
</mgrwt>
</event>
<event>
 8    1  0.1154424E-005  0.1327911E+03  0.7546771E-02  0.1235676E+00
          3   -1    0    0  501    0  0.00000000000E+00  0.00000000000E+00  0.23785077154E+02  0.23785077154E+02  0.00000000000E+00 0. -1.
         -3   -1    0    0    0  501 -0.00000000000E+00 -0.00000000000E+00 -0.74670952415E+03  0.74670952415E+03  0.00000000000E+00 0.  1.
         23    2    1    2    0    0 -0.38327802433E+02  0.23215336266E+02 -0.57578775500E+03  0.59090186821E+03  0.12500202705E+03 0.  0.
         23    2    1    2    0    0  0.38327802433E+02 -0.23215336266E+02 -0.14713669200E+03  0.17959273310E+03  0.92716618640E+02 0.  0.
          5    1    3    3  502    0  0.39461640448E+02 -0.16091890640E+02 -0.13835193132E+03  0.14484307685E+03  0.47000000000E+01 0.  1.
         -5    1    3    3    0  502 -0.77789442881E+02  0.39307226906E+02 -0.43743582368E+03  0.44605879136E+03  0.47000000000E+01 0.  1.
        -11    1    4    4    0    0  0.40845318739E+02  0.25378844057E+01 -0.14814850891E+03  0.15369697984E+03  0.00000000000E+00 0.  1.
         11    1    4    4    0    0 -0.25175163062E+01 -0.25753220671E+02  0.10118169101E+01  0.25895753257E+02  0.00000000000E+00 0. -1.
<mgrwt>
<rscale>  0 0.12461268E+03</rscale>
<asrwt>0</asrwt>
<pdfrwt beam="1">  1        3 0.36592428E-02 0.13279111E+03</pdfrwt>
<pdfrwt beam="2">  1       -3 0.11487838E+00 0.13279111E+03</pdfrwt>
<totfact> 0.56623447E+02</totfact>
</mgrwt>
</event>
<event>
 8    1  0.1154424E-005  0.1337954E+03  0.7546771E-02  0.1234605E+00
         -1   -1    0    0    0  501 -0.00000000000E+00  0.00000000000E+00  0.98208999007E+02  0.98208999007E+02  0.00000000000E+00 0.  1.
          1   -1    0    0  501    0  0.00000000000E+00 -0.00000000000E+00 -0.14831996144E+03  0.14831996144E+03  0.00000000000E+00 0. -1.
         23    2    1    2    0    0 -0.13915390299E+02 -0.45649440910E+02 -0.42449591790E+01  0.13386271171E+03  0.12499478535E+03 0.  0.
         23    2    1    2    0    0  0.13915390299E+02  0.45649440910E+02 -0.45866003250E+02  0.11266624874E+03  0.91172823843E+02 0.  0.
          5    1    3    3  502    0 -0.64936185013E+02 -0.31461051290E+02  0.20589563242E+02  0.75183282628E+02  0.47000000000E+01 0.  1.
         -5    1    3    3    0  502  0.51020794714E+02 -0.14188389621E+02 -0.24834522421E+02  0.58679429080E+02  0.47000000000E+01 0.  1.
        -11    1    4    4    0    0 -0.35224401600E+02  0.35224511608E+02 -0.36029356880E+02  0.61478770671E+02  0.00000000000E+00 0.  1.
         11    1    4    4    0    0  0.49139791899E+02  0.10424929302E+02 -0.98366463704E+01  0.51187478065E+02  0.00000000000E+00 0. -1.
<mgrwt>
<rscale>  0 0.12529762E+03</rscale>
<asrwt>0</asrwt>
<pdfrwt beam="2">  1        1 0.22818455E-01 0.13379539E+03</pdfrwt>
<pdfrwt beam="1">  1       -1 0.15109077E-01 0.13379539E+03</pdfrwt>
<totfact> 0.64879899E+03</totfact>
</mgrwt>
</event>
<event>
 8    1  0.1154424E-005  0.1315853E+03  0.7546771E-02  0.1238705E+00
          2   -1    0    0  501    0  0.00000000000E+00  0.00000000000E+00  0.86490148866E+03  0.86490148866E+03  0.00000000000E+00 0. -1.
         -2   -1    0    0    0  501 -0.00000000000E+00 -0.00000000000E+00 -0.15499015958E+02  0.15499015958E+02  0.00000000000E+00 0.  1.
         23    2    1    2    0    0 -0.10547856673E+00  0.41106278369E+02  0.51162397172E+03  0.52827434451E+03  0.12499982953E+03 0.  0.
         23    2    1    2    0    0  0.10547856673E+00 -0.41106278369E+02  0.33777850099E+03  0.35212616011E+03  0.90602315965E+02 0.  0.
          5    1    3    3  502    0  0.37228195734E+02  0.48330016883E+02  0.11922366944E+03  0.13400784471E+03  0.47000000000E+01 0. -1.
         -5    1    3    3    0  502 -0.37333674301E+02 -0.72237385139E+01  0.39240030228E+03  0.39426649980E+03  0.47000000000E+01 0. -1.
        -11    1    4    4    0    0 -0.30138348362E+02  0.11527380948E+02  0.18385087165E+03  0.18666103921E+03  0.00000000000E+00 0.  1.
         11    1    4    4    0    0  0.30243826929E+02 -0.52633659318E+02  0.15392762934E+03  0.16546512090E+03  0.00000000000E+00 0. -1.
<mgrwt>
<rscale>  0 0.12270205E+03</rscale>
<asrwt>0</asrwt>
<pdfrwt beam="1">  1        2 0.13306173E+00 0.13158531E+03</pdfrwt>
<pdfrwt beam="2">  1       -2 0.23844647E-02 0.13158531E+03</pdfrwt>
<totfact> 0.18139083E+04</totfact>
</mgrwt>
</event>
<event>
 8    1  0.1154424E-005  0.1321124E+03  0.7546771E-02  0.1236609E+00
         -1   -1    0    0    0  501 -0.00000000000E+00  0.00000000000E+00  0.44028475511E+03  0.44028475511E+03  0.00000000000E+00 0.  1.
          1   -1    0    0  501    0  0.00000000000E+00 -0.00000000000E+00 -0.32438472814E+02  0.32438472814E+02  0.00000000000E+00 0. -1.
         23    2    1    2    0    0 -0.40565228557E+02 -0.13539541505E+02  0.27297228707E+03  0.30326151179E+03  0.12499927230E+03 0.  0.
         23    2    1    2    0    0  0.40565228557E+02  0.13539541505E+02  0.13487399523E+03  0.16946171614E+03  0.93259968335E+02 0.  0.
          5    1    3    3  502    0  0.36811267819E+02  0.22415936284E+02  0.12603486040E+03  0.13328323103E+03  0.47000000000E+01 0.  1.
         -5    1    3    3    0  502 -0.77376496376E+02 -0.35955477790E+02  0.14693742666E+03  0.16997828076E+03  0.47000000000E+01 0.  1.
        -11    1    4    4    0    0  0.47112281147E+02  0.37558997703E+02  0.42348414638E+02  0.73645322769E+02  0.00000000000E+00 0. -1.
         11    1    4    4    0    0 -0.65470525895E+01 -0.24019456198E+02  0.92525580595E+02  0.95816393368E+02  0.00000000000E+00 0.  1.
<mgrwt>
<rscale>  0 0.12402006E+03</rscale>
<asrwt>0</asrwt>
<pdfrwt beam="2">  1        1 0.49905346E-02 0.13211236E+03</pdfrwt>
<pdfrwt beam="1">  1       -1 0.67736112E-01 0.13211236E+03</pdfrwt>
<totfact> 0.36633534E+03</totfact>
</mgrwt>
</event>
<event>
 8    1  0.1154424E-005  0.2482624E+03  0.7546771E-02  0.1116892E+00
          2   -1    0    0  501    0  0.00000000000E+00  0.00000000000E+00  0.10611181279E+04  0.10611181279E+04  0.00000000000E+00 0.  1.
         -2   -1    0    0    0  501 -0.00000000000E+00 -0.00000000000E+00 -0.60766444410E+02  0.60766444410E+02  0.00000000000E+00 0. -1.
         23    2    1    2    0    0  0.16470576276E+03 -0.13734589415E+03  0.33580797360E+03  0.41761374240E+03  0.12506941984E+03 0.  0.
         23    2    1    2    0    0 -0.16470576276E+03  0.13734589415E+03  0.66454370991E+03  0.70427082992E+03  0.91581529691E+02 0.  0.
          5    1    3    3  502    0  0.61860854658E+02 -0.85417604991E+02  0.25730499137E+03  0.27812026385E+03  0.47000000000E+01 0.  1.
         -5    1    3    3    0  502  0.10284490811E+03 -0.51928289161E+02  0.78502982234E+02  0.13949347855E+03  0.47000000000E+01 0.  1.
        -11    1    4    4    0    0 -0.63810871515E+02  0.42185751354E+02  0.11972103906E+03  0.14207248902E+03  0.00000000000E+00 0.  1.
         11    1    4    4    0    0 -0.10089489125E+03  0.95160142797E+02  0.54482267084E+03  0.56219834091E+03  0.00000000000E+00 0. -1.
<mgrwt>
<rscale>  0 0.24440621E+03</rscale>
<asrwt>0</asrwt>
<pdfrwt beam="1">  1        2 0.16324893E+00 0.24826245E+03</pdfrwt>
<pdfrwt beam="2">  1       -2 0.93486845E-02 0.24826245E+03</pdfrwt>
<totfact> 0.17800191E+03</totfact>
</mgrwt>
</event>
<event>
 8    1  0.1154424E-005  0.1363010E+03  0.7546771E-02  0.1230640E+00
          1   -1    0    0  501    0  0.00000000000E+00  0.00000000000E+00  0.95411060257E+03  0.95411060257E+03  0.00000000000E+00 0. -1.
         -1   -1    0    0    0  501 -0.00000000000E+00 -0.00000000000E+00 -0.16023896063E+02  0.16023896063E+02  0.00000000000E+00 0.  1.
         23    2    1    2    0    0  0.52439945992E+02  0.14277181663E+02  0.62593496262E+03  0.64060326479E+03  0.12499671823E+03 0.  0.
         23    2    1    2    0    0 -0.52439945992E+02 -0.14277181663E+02  0.31215174389E+03  0.32953123385E+03  0.90544668641E+02 0.  0.
          5    1    3    3  502    0  0.22062727218E+02 -0.26117861868E+02  0.53772162600E+03  0.53882793516E+03  0.47000000000E+01 0. -1.
         -5    1    3    3    0  502  0.30377218774E+02  0.40395043531E+02  0.88213336625E+02  0.10177532963E+03  0.47000000000E+01 0. -1.
        -11    1    4    4    0    0 -0.77234928181E+02 -0.53224814751E+00  0.23093617306E+03  0.24350982208E+03  0.00000000000E+00 0.  1.
         11    1    4    4    0    0  0.24794982189E+02 -0.13744933515E+02  0.81215570823E+02  0.86021411772E+02  0.00000000000E+00 0. -1.
<mgrwt>
<rscale>  0 0.12787746E+03</rscale>
<asrwt>0</asrwt>
<pdfrwt beam="1">  1        1 0.14678620E+00 0.13630101E+03</pdfrwt>
<pdfrwt beam="2">  1       -1 0.24652155E-02 0.13630101E+03</pdfrwt>
<totfact> 0.84456217E+03</totfact>
</mgrwt>
</event>
<event>
 7    1  0.1154424E-005  0.1670051E+03  0.7546771E-02  0.1189645E+00
         -1   -1    0    0    0  501 -0.00000000000E+00  0.00000000000E+00  0.12142841634E+03  0.12142841634E+03  0.00000000000E+00 0.  1.
          1   -1    0    0  501    0  0.00000000000E+00 -0.00000000000E+00 -0.44053427468E+03  0.44053427468E+03  0.00000000000E+00 0. -1.
         23    2    1    2    0    0  0.45035648445E+02 -0.93654409563E+02 -0.36385394686E+03  0.38906650638E+03  0.90463769982E+02 0.  0.
          5    1    1    2  502    0  0.16956070835E+02 -0.26110947419E+02  0.14207795974E+02  0.34543326124E+02  0.47000000000E+01 0. -1.
         -5    1    1    2    0  502 -0.61991719280E+02  0.11976535698E+03  0.30540292538E+02  0.13835285852E+03  0.47000000000E+01 0.  1.
        -11    1    3    3    0    0  0.59481605828E+02 -0.35429732781E+02 -0.12604581170E+03  0.14380846304E+03  0.00000000000E+00 0.  1.
         11    1    3    3    0    0 -0.14445957383E+02 -0.58224676782E+02 -0.23780813516E+03  0.24525804333E+03  0.00000000000E+00 0. -1.
<mgrwt>
<rscale>  0 0.15916333E+03</rscale>
<asrwt>0</asrwt>
<pdfrwt beam="2">  1        1 0.67774504E-01 0.16700509E+03</pdfrwt>
<pdfrwt beam="1">  1       -1 0.18681295E-01 0.16700509E+03</pdfrwt>
<totfact> 0.11988078E+03</totfact>
</mgrwt>
</event>
<event>
 8    1  0.1154424E-005  0.1435773E+03  0.7546771E-02  0.1219337E+00
         -2   -1    0    0    0  501 -0.00000000000E+00  0.00000000000E+00  0.48326549640E+02  0.48326549640E+02  0.00000000000E+00 0.  1.
          2   -1    0    0  501    0  0.00000000000E+00 -0.00000000000E+00 -0.34474394142E+03  0.34474394142E+03  0.00000000000E+00 0. -1.
         23    2    1    2    0    0 -0.10354706040E+02  0.69868203742E+02 -0.17357607777E+03  0.22526226099E+03  0.12500258246E+03 0.  0.
         23    2    1    2    0    0  0.10354706040E+02 -0.69868203742E+02 -0.12284131402E+03  0.16780823007E+03  0.89893424787E+02 0.  0.
          5    1    3    3  502    0 -0.12994244329E+02  0.89526672365E+02 -0.57244496222E+02  0.10715828385E+03  0.47000000000E+01 0.  1.
         -5    1    3    3    0  502  0.26395382892E+01 -0.19658468623E+02 -0.11633158155E+03  0.11810397714E+03  0.47000000000E+01 0.  1.
        -11    1    4    4    0    0  0.45841013662E+02 -0.60957198002E+02 -0.69915070811E+02  0.10346639864E+03  0.00000000000E+00 0.  1.
         11    1    4    4    0    0 -0.35486307623E+02 -0.89110057407E+01 -0.52926243206E+02  0.64341831431E+02  0.00000000000E+00 0. -1.
<mgrwt>
<rscale>  0 0.13562730E+03</rscale>
<asrwt>0</asrwt>
<pdfrwt beam="2">  1        2 0.53037530E-01 0.14357727E+03</pdfrwt>
<pdfrwt beam="1">  1       -2 0.74348537E-02 0.14357727E+03</pdfrwt>
<totfact> 0.94912260E+03</totfact>
</mgrwt>
</event>
<event>
 8    1  0.1154424E-005  0.1316957E+03  0.7546771E-02  0.1234038E+00
          2   -1    0    0  501    0  0.00000000000E+00  0.00000000000E+00  0.62447850342E+03  0.62447850342E+03  0.00000000000E+00 0. -1.
         -2   -1    0    0    0  501 -0.00000000000E+00 -0.00000000000E+00 -0.23303159952E+02  0.23303159952E+02  0.00000000000E+00 0.  1.
         23    2    1    2    0    0 -0.42035416558E+02  0.37876360062E+02  0.31003227707E+03  0.33684382004E+03  0.11892077771E+03 0.  0.
         23    2    1    2    0    0  0.42035416558E+02 -0.37876360062E+02  0.29114306639E+03  0.31093784333E+03  0.93361996614E+02 0.  0.
          5    1    3    3  502    0 -0.78744806378E+02  0.50228922049E+00  0.17655757407E+03  0.19337958472E+03  0.47000000000E+01 0. -1.
         -5    1    3    3    0  502  0.36709389820E+02  0.37374070841E+02  0.13347470300E+03  0.14346423531E+03  0.47000000000E+01 0.  1.
        -11    1    4    4    0    0  0.70633677776E+02 -0.34086204122E+02  0.23622109577E+03  0.24890036528E+03  0.00000000000E+00 0.  1.
         11    1    4    4    0    0 -0.28598261217E+02 -0.37901559392E+01  0.54921970618E+02  0.62037478053E+02  0.00000000000E+00 0. -1.
<mgrwt>
<rscale>  0 0.12566209E+03</rscale>
<asrwt>0</asrwt>
<pdfrwt beam="1">  1        2 0.96073603E-01 0.13169566E+03</pdfrwt>
<pdfrwt beam="2">  1       -2 0.35851020E-02 0.13169566E+03</pdfrwt>
<totfact> 0.14777838E+04</totfact>
</mgrwt>
</event>
<event>
 8    1  0.1154424E-005  0.1264270E+03  0.7546771E-02  0.1248231E+00
          1   -1    0    0  501    0  0.00000000000E+00  0.00000000000E+00  0.40731622608E+02  0.40731622608E+02  0.00000000000E+00 0. -1.
         -1   -1    0    0    0  501 -0.00000000000E+00 -0.00000000000E+00 -0.35960848896E+03  0.35960848896E+03  0.00000000000E+00 0.  1.
         23    2    1    2    0    0 -0.11978933506E+02 -0.14648480102E+02 -0.26409759521E+03  0.29279913020E+03  0.12500287210E+03 0.  0.
         23    2    1    2    0    0  0.11978933506E+02  0.14648480102E+02 -0.54779271148E+02  0.10754098137E+03  0.90588196303E+02 0.  0.
          5    1    3    3  502    0  0.29818043100E+02 -0.30631637351E+02 -0.25503195650E+02  0.49999158887E+02  0.47000000000E+01 0.  1.
         -5    1    3    3    0  502 -0.41796976606E+02  0.15983157249E+02 -0.23859439956E+03  0.24279997131E+03  0.47000000000E+01 0.  1.
        -11    1    4    4    0    0 -0.31422378881E+02 -0.19176167435E+02 -0.15537767798E+02  0.39956395235E+02  0.00000000000E+00 0.  1.
         11    1    4    4    0    0  0.43401312387E+02  0.33824647537E+02 -0.39241503350E+02  0.67584586136E+02  0.00000000000E+00 0. -1.
<mgrwt>
<rscale>  0 0.11694088E+03</rscale>
<asrwt>0</asrwt>
<pdfrwt beam="1">  1        1 0.62664034E-02 0.12642702E+03</pdfrwt>
<pdfrwt beam="2">  1       -1 0.55324384E-01 0.12642702E+03</pdfrwt>
<totfact> 0.39432907E+03</totfact>
</mgrwt>
</event>
<event>
 8    1  0.1154424E-005  0.1313579E+03  0.7546771E-02  0.1249347E+00
         -2   -1    0    0    0  501 -0.00000000000E+00  0.00000000000E+00  0.23729739250E+03  0.23729739250E+03  0.00000000000E+00 0.  1.
          2   -1    0    0  501    0  0.00000000000E+00 -0.00000000000E+00 -0.82340556608E+02  0.82340556608E+02  0.00000000000E+00 0. -1.
         23    2    1    2    0    0 -0.39869543586E+02  0.64829415315E+01  0.19056015796E+03  0.23144778802E+03  0.12499318277E+03 0.  0.
         23    2    1    2    0    0  0.39869543586E+02 -0.64829415315E+01 -0.35603322069E+02  0.88190161090E+02  0.69844820381E+02 0.  0.
          5    1    3    3  502    0  0.41053575366E+02  0.20527030095E+02  0.46211144960E+02  0.65301722284E+02  0.47000000000E+01 0. -1.
         -5    1    3    3    0  502 -0.80923118952E+02 -0.14044088563E+02  0.14434901300E+03  0.16614606573E+03  0.47000000000E+01 0. -1.
        -11    1    4    4    0    0  0.22278927395E+02  0.29247764910E+02 -0.33074576312E+01  0.36915059719E+02  0.00000000000E+00 0.  1.
         11    1    4    4    0    0  0.17590616191E+02 -0.35730706441E+02 -0.32295864438E+02  0.51275101370E+02  0.00000000000E+00 0. -1.
<mgrwt>
<rscale>  0 0.11628912E+03</rscale>
<asrwt>0</asrwt>
<pdfrwt beam="2">  1        2 0.12667778E-01 0.13135793E+03</pdfrwt>
<pdfrwt beam="1">  1       -2 0.36507291E-01 0.13135793E+03</pdfrwt>
<totfact> 0.32488683E+03</totfact>
</mgrwt>
</event>
<event>
 8    1  0.1154424E-005  0.1359937E+03  0.7546771E-02  0.1230452E+00
         -2   -1    0    0    0  501 -0.00000000000E+00  0.00000000000E+00  0.14768367821E+03  0.14768367821E+03  0.00000000000E+00 0.  1.
          2   -1    0    0  501    0  0.00000000000E+00 -0.00000000000E+00 -0.17301195592E+03  0.17301195592E+03  0.00000000000E+00 0. -1.
         23    2    1    2    0    0 -0.52796504575E+02 -0.91324617994E+01  0.90372767553E+02  0.16328352790E+03  0.12499360229E+03 0.  0.
         23    2    1    2    0    0  0.52796504575E+02  0.91324617994E+01 -0.11570104526E+03  0.15741210623E+03  0.92309081662E+02 0.  0.
          5    1    3    3  502    0  0.19488513544E+02 -0.26152505833E+02 -0.13414525004E+02  0.35578015720E+02  0.47000000000E+01 0. -1.
         -5    1    3    3    0  502 -0.72285018119E+02  0.17020044033E+02  0.10378729256E+03  0.12770551218E+03  0.47000000000E+01 0. -1.
        -11    1    4    4    0    0  0.10301305870E+02 -0.14313566291E+02 -0.10657908318E+03  0.10802821879E+03  0.00000000000E+00 0. -1.
         11    1    4    4    0    0  0.42495198705E+02  0.23446028090E+02 -0.91219620817E+01  0.49383887437E+02  0.00000000000E+00 0.  1.
<mgrwt>
<rscale>  0 0.12800095E+03</rscale>
<asrwt>0</asrwt>
<pdfrwt beam="2">  1        2 0.26617224E-01 0.13599365E+03</pdfrwt>
<pdfrwt beam="1">  1       -2 0.22720566E-01 0.13599365E+03</pdfrwt>
<totfact> 0.32517898E+03</totfact>
</mgrwt>
</event>
<event>
 8    1  0.1154424E-005  0.1611887E+03  0.7546771E-02  0.1194922E+00
          4   -1    0    0  501    0  0.00000000000E+00  0.00000000000E+00  0.94370188436E+03  0.94370188436E+03  0.00000000000E+00 0. -1.
         -4   -1    0    0    0  501 -0.00000000000E+00 -0.00000000000E+00 -0.23490687848E+02  0.23490687848E+02  0.00000000000E+00 0.  1.
         23    2    1    2    0    0 -0.59342324021E+02  0.82677280894E+02  0.51393042725E+03  0.53861514917E+03  0.12499900267E+03 0.  0.
         23    2    1    2    0    0  0.59342324021E+02 -0.82677280894E+02  0.40628076926E+03  0.42857742303E+03  0.90870786655E+02 0.  0.
          5    1    3    3  502    0 -0.17857028462E+02 -0.33104944825E+02  0.10989922222E+03  0.11625291344E+03  0.47000000000E+01 0. -1.
         -5    1    3    3    0  502 -0.41485295559E+02  0.11578222572E+03  0.40403120503E+03  0.42236223574E+03  0.47000000000E+01 0. -1.
        -11    1    4    4    0    0  0.42174717399E+02  0.89608236866E+01  0.13567039789E+03  0.14235680529E+03  0.00000000000E+00 0.  1.
         11    1    4    4    0    0  0.17167606622E+02 -0.91638104580E+02  0.27061037137E+03  0.28622061774E+03  0.00000000000E+00 0. -1.
<mgrwt>
<rscale>  0 0.15460818E+03</rscale>
<asrwt>0</asrwt>
<pdfrwt beam="1">  1        4 0.14518488E+00 0.16118869E+03</pdfrwt>
<pdfrwt beam="2">  1       -4 0.36139527E-02 0.16118869E+03</pdfrwt>
<totfact> 0.23924030E+02</totfact>
</mgrwt>
</event>
<event>
 8    1  0.1154424E-005  0.1405745E+03  0.7546771E-02  0.1224375E+00
         -2   -1    0    0    0  501 -0.00000000000E+00  0.00000000000E+00  0.36712980141E+02  0.36712980141E+02  0.00000000000E+00 0.  1.
          2   -1    0    0  501    0  0.00000000000E+00 -0.00000000000E+00 -0.69085677612E+03  0.69085677612E+03  0.00000000000E+00 0. -1.
         23    2    1    2    0    0  0.38412011801E+02  0.51586897502E+02 -0.12796754209E+03  0.19009706789E+03  0.12499805097E+03 0.  0.
         23    2    1    2    0    0 -0.38412011801E+02 -0.51586897502E+02 -0.52617625389E+03  0.53747268838E+03  0.88762322774E+02 0.  0.
          5    1    3    3  502    0  0.75100420653E+02  0.41247342656E+02 -0.41157368794E+02  0.95170559862E+02  0.47000000000E+01 0.  1.
         -5    1    3    3    0  502 -0.36688408852E+02  0.10339554846E+02 -0.86810173297E+02  0.94926508028E+02  0.47000000000E+01 0.  1.
        -11    1    4    4    0    0 -0.64603289519E+02 -0.37646447969E+02 -0.44058394707E+03  0.44688371471E+03  0.00000000000E+00 0. -1.
         11    1    4    4    0    0  0.26191277718E+02 -0.13940449532E+02 -0.85592306823E+02  0.90588973661E+02  0.00000000000E+00 0.  1.
<mgrwt>
<rscale>  0 0.13209838E+03</rscale>
<asrwt>0</asrwt>
<pdfrwt beam="2">  1        2 0.10628566E+00 0.14057455E+03</pdfrwt>
<pdfrwt beam="1">  1       -2 0.56481505E-02 0.14057455E+03</pdfrwt>
<totfact> 0.66878052E+03</totfact>
</mgrwt>
</event>
<event>
 7    1  0.1154424E-005  0.3961447E+03  0.7546771E-02  0.1046122E+00
          1   -1    0    0  501    0  0.00000000000E+00  0.00000000000E+00  0.88238370073E+03  0.88238370073E+03  0.00000000000E+00 0. -1.
         -1   -1    0    0    0  501 -0.00000000000E+00 -0.00000000000E+00 -0.20801297222E+03  0.20801297222E+03  0.00000000000E+00 0.  1.
         23    2    1    2    0    0  0.37091113969E+03 -0.51573246170E+02  0.55731382688E+03  0.67731925389E+03  0.89038176002E+02 0.  0.
          5    1    1    2  502    0 -0.19884904514E+03  0.10787577375E+02  0.12643809487E+03  0.23593642452E+03  0.47000000000E+01 0. -1.
         -5    1    1    2    0  502 -0.17206209455E+03  0.40785668794E+02 -0.93811932399E+01  0.17714099454E+03  0.47000000000E+01 0.  1.
        -11    1    3    3    0    0  0.38128923560E+02  0.21954704580E+02  0.69064345906E+02  0.81888385870E+02  0.00000000000E+00 0.  1.
         11    1    3    3    0    0  0.33278221613E+03 -0.73527950749E+02  0.48824948097E+03  0.59543086802E+03  0.00000000000E+00 0. -1.
<mgrwt>
<rscale>  0 0.39330797E+03</rscale>
<asrwt>0</asrwt>
<pdfrwt beam="1">  1        1 0.13575134E+00 0.39614472E+03</pdfrwt>
<pdfrwt beam="2">  1       -1 0.32001996E-01 0.39614472E+03</pdfrwt>
<totfact> 0.17906257E+02</totfact>
</mgrwt>
</event>
<event>
 8    1  0.1154424E-005  0.1311089E+03  0.7546771E-02  0.1240762E+00
         -1   -1    0    0    0  501 -0.00000000000E+00  0.00000000000E+00  0.31392930725E+03  0.31392930725E+03  0.00000000000E+00 0.  1.
          1   -1    0    0  501    0  0.00000000000E+00 -0.00000000000E+00 -0.50804550488E+02  0.50804550488E+02  0.00000000000E+00 0. -1.
         23    2    1    2    0    0 -0.18952884621E+02  0.34725511377E+02  0.22619344096E+03  0.26144409988E+03  0.12499788658E+03 0.  0.
         23    2    1    2    0    0  0.18952884621E+02 -0.34725511377E+02  0.36931315798E+02  0.10328975786E+03  0.87976013868E+02 0.  0.
          5    1    3    3  502    0 -0.45548340739E+02  0.35307009213E+02  0.22716946593E+03  0.23441265429E+03  0.47000000000E+01 0.  1.
         -5    1    3    3    0  502  0.26595456117E+02 -0.58149783610E+00 -0.97602496027E+00  0.27031445587E+02  0.47000000000E+01 0.  1.
        -11    1    4    4    0    0  0.29948305529E+02  0.10987597149E+02 -0.13233147309E+02  0.34536133004E+02  0.00000000000E+00 0.  1.
         11    1    4    4    0    0 -0.10995420907E+02 -0.45713108526E+02  0.50164463106E+02  0.68753624855E+02  0.00000000000E+00 0. -1.
<mgrwt>
<rscale>  0 0.12142632E+03</rscale>
<asrwt>0</asrwt>
<pdfrwt beam="2">  1        1 0.78160849E-02 0.13110890E+03</pdfrwt>
<pdfrwt beam="1">  1       -1 0.48296815E-01 0.13110890E+03</pdfrwt>
<totfact> 0.37658372E+03</totfact>
</mgrwt>
</event>
<event>
 8    1  0.1154424E-005  0.1563511E+03  0.7546771E-02  0.1201201E+00
          2   -1    0    0  501    0  0.00000000000E+00  0.00000000000E+00  0.59817648644E+03  0.59817648644E+03  0.00000000000E+00 0. -1.
         -2   -1    0    0    0  501 -0.00000000000E+00 -0.00000000000E+00 -0.34367421293E+02  0.34367421293E+02  0.00000000000E+00 0.  1.
         23    2    1    2    0    0  0.90494247512E+02  0.25115641985E+02  0.30286407949E+03  0.34084058078E+03  0.12500258619E+03 0.  0.
         23    2    1    2    0    0 -0.90494247512E+02 -0.25115641985E+02  0.26094498565E+03  0.29170332695E+03  0.90435286873E+02 0.  0.
          5    1    3    3  502    0  0.19422861467E+02 -0.38312525906E+02  0.32271745397E+02  0.53931926907E+02  0.47000000000E+01 0.  1.
         -5    1    3    3    0  502  0.71071386046E+02  0.63428167892E+02  0.27059233409E+03  0.28690865387E+03  0.47000000000E+01 0.  1.
        -11    1    4    4    0    0 -0.15170107485E+02 -0.46722243412E+02  0.13164032409E+03  0.14050720663E+03  0.00000000000E+00 0.  1.
         11    1    4    4    0    0 -0.75324140027E+02  0.21606601427E+02  0.12930466157E+03  0.15119612032E+03  0.00000000000E+00 0. -1.
<mgrwt>
<rscale>  0 0.14940911E+03</rscale>
<asrwt>0</asrwt>
<pdfrwt beam="1">  1        2 0.92027144E-01 0.15635105E+03</pdfrwt>
<pdfrwt beam="2">  1       -2 0.52872960E-02 0.15635105E+03</pdfrwt>
<totfact> 0.87895749E+03</totfact>
</mgrwt>
</event>
<event>
 8    1  0.1154424E-005  0.1374477E+03  0.7546771E-02  0.1227500E+00
          1   -1    0    0  501    0  0.00000000000E+00  0.00000000000E+00  0.12171924261E+03  0.12171924261E+03  0.00000000000E+00 0. -1.
         -1   -1    0    0    0  501 -0.00000000000E+00 -0.00000000000E+00 -0.12622349623E+03  0.12622349623E+03  0.00000000000E+00 0.  1.
         23    2    1    2    0    0  0.51812509448E+02 -0.24141076030E+02 -0.10800998655E+02  0.13787147365E+03  0.12499821593E+03 0.  0.
         23    2    1    2    0    0 -0.51812509448E+02  0.24141076030E+02  0.62967450275E+01  0.11007126519E+03  0.93854710783E+02 0.  0.
          5    1    3    3  502    0 -0.40542194610E+02 -0.10689344188E+02  0.69330028802E+01  0.42756147533E+02  0.47000000000E+01 0.  1.
         -5    1    3    3    0  502  0.92354704058E+02 -0.13451731842E+02 -0.17734001536E+02  0.95115326113E+02  0.47000000000E+01 0.  1.
        -11    1    4    4    0    0 -0.49151483552E+02  0.42197344658E+02  0.36815911131E+02  0.74511043101E+02  0.00000000000E+00 0. -1.
         11    1    4    4    0    0 -0.26610258960E+01 -0.18056268628E+02 -0.30519166103E+02  0.35560222092E+02  0.00000000000E+00 0.  1.
<mgrwt>
<rscale>  0 0.12997019E+03</rscale>
<asrwt>0</asrwt>
<pdfrwt beam="1">  1        1 0.18726037E-01 0.13744774E+03</pdfrwt>
<pdfrwt beam="2">  1       -1 0.19419000E-01 0.13744774E+03</pdfrwt>
<totfact> 0.56124766E+03</totfact>
</mgrwt>
</event>
<event>
 6    1  0.1154424E-005  0.2530769E+03  0.7546771E-02  0.1124892E+00
         -2   -1    0    0    0  501 -0.00000000000E+00  0.00000000000E+00  0.30275912156E+03  0.30275912156E+03  0.00000000000E+00 0.  1.
          2   -1    0    0  501    0  0.00000000000E+00 -0.00000000000E+00 -0.32737777894E+03  0.32737777894E+03  0.00000000000E+00 0. -1.
          5    1    1    2  502    0 -0.45323593431E+02 -0.13115572078E+03  0.30132120712E+02  0.14207774601E+03  0.47000000000E+01 0. -1.
         -5    1    1    2    0  502  0.20876532772E+02 -0.40225151739E+02  0.18362261577E+03  0.18919103434E+03  0.47000000000E+01 0.  1.
        -11    1    1    2    0    0  0.10624904128E+02  0.16084171188E+03 -0.20100293475E+03  0.25765310913E+03  0.00000000000E+00 0. -1.
         11    1    1    2    0    0  0.13822156531E+02  0.10539160636E+02 -0.37370459109E+02  0.41215011005E+02  0.00000000000E+00 0.  1.
<mgrwt>
<rscale>  0 0.23250124E+03</rscale>
<asrwt>0</asrwt>
<pdfrwt beam="2">  1        2 0.50365812E-01 0.25307690E+03</pdfrwt>
<pdfrwt beam="1">  1       -2 0.46578326E-01 0.25307690E+03</pdfrwt>
<totfact> 0.44222919E+02</totfact>
</mgrwt>
</event>
<event>
 8    1  0.1154424E-005  0.1361214E+03  0.7546771E-02  0.1230673E+00
         -1   -1    0    0    0  501 -0.00000000000E+00  0.00000000000E+00  0.22789380262E+02  0.22789380262E+02  0.00000000000E+00 0.  1.
          1   -1    0    0  501    0  0.00000000000E+00 -0.00000000000E+00 -0.64359872754E+03  0.64359872754E+03  0.00000000000E+00 0. -1.
         23    2    1    2    0    0  0.40564444923E+01  0.53724560152E+02 -0.36050138431E+03  0.38534437869E+03  0.12500503588E+03 0.  0.
         23    2    1    2    0    0 -0.40564444923E+01 -0.53724560152E+02 -0.26030796297E+03  0.28104372911E+03  0.91228060272E+02 0.  0.
          5    1    3    3  502    0 -0.26108461674E+02 -0.34283520719E+01 -0.28327781061E+03  0.28453789440E+03  0.47000000000E+01 0.  1.
         -5    1    3    3    0  502  0.30164906167E+02  0.57152912224E+02 -0.77223573704E+02  0.10080648429E+03  0.47000000000E+01 0.  1.
        -11    1    4    4    0    0 -0.30025889062E+02  0.10081650112E+02 -0.12818339338E+03  0.13203853991E+03  0.00000000000E+00 0. -1.
         11    1    4    4    0    0  0.25969444570E+02 -0.63806210264E+02 -0.13212456960E+03  0.14900518921E+03  0.00000000000E+00 0.  1.
<mgrwt>
<rscale>  0 0.12785562E+03</rscale>
<asrwt>0</asrwt>
<pdfrwt beam="2">  1        1 0.99015188E-01 0.13612142E+03</pdfrwt>
<pdfrwt beam="1">  1       -1 0.35060585E-02 0.13612142E+03</pdfrwt>
<totfact> 0.91324160E+03</totfact>
</mgrwt>
</event>
<event>
 8    1  0.1154424E-005  0.1326395E+03  0.7546771E-02  0.1235710E+00
          3   -1    0    0  501    0  0.00000000000E+00  0.00000000000E+00  0.65813843605E+02  0.65813843605E+02  0.00000000000E+00 0. -1.
         -3   -1    0    0    0  501 -0.00000000000E+00 -0.00000000000E+00 -0.21688199329E+03  0.21688199329E+03  0.00000000000E+00 0.  1.
         23    2    1    2    0    0 -0.35412160416E+02  0.26802308421E+02 -0.10703444886E+03  0.17043943857E+03  0.12498337544E+03 0.  0.
         23    2    1    2    0    0  0.35412160416E+02 -0.26802308421E+02 -0.44033700824E+02  0.11225639832E+03  0.93220959628E+02 0.  0.
          5    1    3    3  502    0 -0.64597675640E+02  0.59927323234E+02 -0.71668049765E+02  0.11367736417E+03  0.47000000000E+01 0. -1.
         -5    1    3    3    0  502  0.29185515224E+02 -0.33125014813E+02 -0.35366399097E+02  0.56762074401E+02  0.47000000000E+01 0. -1.
        -11    1    4    4    0    0 -0.22636108293E+02 -0.37016369555E+02 -0.26163317291E+02  0.50666795688E+02  0.00000000000E+00 0.  1.
         11    1    4    4    0    0  0.58048268709E+02  0.10214061134E+02 -0.17870383534E+02  0.61589602634E+02  0.00000000000E+00 0. -1.
<mgrwt>
<rscale>  0 0.12459113E+03</rscale>
<asrwt>0</asrwt>
<pdfrwt beam="1">  1        3 0.10125207E-01 0.13263947E+03</pdfrwt>
<pdfrwt beam="2">  1       -3 0.33366461E-01 0.13263947E+03</pdfrwt>
<totfact> 0.14549421E+03</totfact>
</mgrwt>
</event>
<event>
 8    1  0.1183947E-005  0.1369732E+03  0.7546771E-02  0.1225665E+00
          4   -1    0    0  501    0  0.00000000000E+00  0.00000000000E+00  0.32517847107E+03  0.32517847107E+03  0.00000000000E+00 0. -1.
         -4   -1    0    0    0  501 -0.00000000000E+00 -0.00000000000E+00 -0.48952532862E+02  0.48952532862E+02  0.00000000000E+00 0.  1.
         23    2    1    2    0    0  0.55969918760E+02  0.18896016906E+01  0.15170848044E+03  0.20439451844E+03  0.12500181491E+03 0.  0.
         23    2    1    2    0    0 -0.55969918760E+02 -0.18896016906E+01  0.12451745778E+03  0.16973648550E+03  0.10084480561E+03 0.  0.
          5    1    3    3  502    0 -0.12132919441E+02  0.50550189366E+02  0.46811080621E+02  0.70113455542E+02  0.47000000000E+01 0. -1.
         -5    1    3    3    0  502  0.68102838201E+02 -0.48660587676E+02  0.10489739981E+03  0.13428106289E+03  0.47000000000E+01 0. -1.
        -11    1    4    4    0    0 -0.68551336167E+01 -0.22286327887E+02  0.11292360500E+03  0.11530574068E+03  0.00000000000E+00 0. -1.
         11    1    4    4    0    0 -0.49114785143E+02  0.20396726196E+02  0.11593852772E+02  0.54430744817E+02  0.00000000000E+00 0.  1.
<mgrwt>
<rscale>  0 0.13121459E+03</rscale>
<asrwt>0</asrwt>
<pdfrwt beam="1">  1        4 0.50027456E-01 0.13697319E+03</pdfrwt>
<pdfrwt beam="2">  1       -4 0.75311591E-02 0.13697319E+03</pdfrwt>
<totfact> 0.78419604E+02</totfact>
</mgrwt>
</event>
<event>
 8    1  0.1154424E-005  0.1345421E+03  0.7546771E-02  0.1233469E+00
         -2   -1    0    0    0  501 -0.00000000000E+00  0.00000000000E+00  0.38940876621E+02  0.38940876621E+02  0.00000000000E+00 0.  1.
          2   -1    0    0  501    0  0.00000000000E+00 -0.00000000000E+00 -0.37426057333E+03  0.37426057333E+03  0.00000000000E+00 0. -1.
         23    2    1    2    0    0 -0.31106068448E+02  0.38837122992E+02 -0.15502284664E+03  0.20526484294E+03  0.12500265257E+03 0.  0.
         23    2    1    2    0    0  0.31106068448E+02 -0.38837122992E+02 -0.18029685007E+03  0.20793660701E+03  0.90855758069E+02 0.  0.
          5    1    3    3  502    0 -0.10456089015E+02 -0.20812975417E+02 -0.13756692260E+03  0.13960393239E+03  0.47000000000E+01 0. -1.
         -5    1    3    3    0  502 -0.20649979433E+02  0.59650098409E+02 -0.17455924038E+02  0.65660910554E+02  0.47000000000E+01 0. -1.
        -11    1    4    4    0    0 -0.18751839740E+02 -0.48462587592E+02 -0.77908388345E+02  0.93648122588E+02  0.00000000000E+00 0. -1.
         11    1    4    4    0    0  0.49857908188E+02  0.96254646001E+01 -0.10238846173E+03  0.11428848443E+03  0.00000000000E+00 0.  1.
<mgrwt>
<rscale>  0 0.12602944E+03</rscale>
<asrwt>0</asrwt>
<pdfrwt beam="2">  1        2 0.57578549E-01 0.13454209E+03</pdfrwt>
<pdfrwt beam="1">  1       -2 0.59909041E-02 0.13454209E+03</pdfrwt>
<totfact> 0.12036141E+04</totfact>
</mgrwt>
</event>
<event>
 8    1  0.1154424E-005  0.1317822E+03  0.7546771E-02  0.1237288E+00
          1   -1    0    0  501    0  0.00000000000E+00  0.00000000000E+00  0.49523424206E+03  0.49523424206E+03  0.00000000000E+00 0. -1.
         -1   -1    0    0    0  501 -0.00000000000E+00 -0.00000000000E+00 -0.27707094478E+02  0.27707094478E+02  0.00000000000E+00 0.  1.
         23    2    1    2    0    0  0.29338917984E+02 -0.29688341034E+02  0.24573817909E+03  0.27884368607E+03  0.12499751555E+03 0.  0.
         23    2    1    2    0    0 -0.29338917984E+02  0.29688341034E+02  0.22178896848E+03  0.24409765046E+03  0.93011540787E+02 0.  0.
          5    1    3    3  502    0  0.32893811230E+01  0.15549983811E+02 -0.89374164297E+01  0.18830545322E+02  0.47000000000E+01 0.  1.
         -5    1    3    3    0  502  0.26049536861E+02 -0.45238324845E+02  0.25467559552E+03  0.26001314075E+03  0.47000000000E+01 0.  1.
        -11    1    4    4    0    0  0.27422766995E+01 -0.31859742649E+02  0.58492406519E+02  0.66662769996E+02  0.00000000000E+00 0.  1.
         11    1    4    4    0    0 -0.32081194683E+02  0.61548083683E+02  0.16329656196E+03  0.17743488047E+03  0.00000000000E+00 0. -1.
<mgrwt>
<rscale>  0 0.12359100E+03</rscale>
<asrwt>0</asrwt>
<pdfrwt beam="1">  1        1 0.76189877E-01 0.13178220E+03</pdfrwt>
<pdfrwt beam="2">  1       -1 0.42626303E-02 0.13178220E+03</pdfrwt>
<totfact> 0.97239751E+03</totfact>
</mgrwt>
</event>
<event>
 8    1  0.1154424E-005  0.1293887E+03  0.7546771E-02  0.1248719E+00
         -1   -1    0    0    0  501 -0.00000000000E+00  0.00000000000E+00  0.97953173942E+02  0.97953173942E+02  0.00000000000E+00 0.  1.
          1   -1    0    0  501    0  0.00000000000E+00 -0.00000000000E+00 -0.11784983478E+03  0.11784983478E+03  0.00000000000E+00 0. -1.
         23    2    1    2    0    0 -0.10921765197E+02 -0.31613288562E+02 -0.12470615735E+02  0.12998831420E+03  0.12499104209E+03 0.  0.
         23    2    1    2    0    0  0.10921765197E+02  0.31613288562E+02 -0.74260451028E+01  0.85814694525E+02  0.78678654550E+02 0.  0.
          5    1    3    3  502    0 -0.52192643614E+02 -0.59510895240E+02 -0.95263197042E+01  0.79865258196E+02  0.47000000000E+01 0.  1.
         -5    1    3    3    0  502  0.41270878417E+02  0.27897606678E+02 -0.29442960304E+01  0.50123056000E+02  0.47000000000E+01 0.  1.
        -11    1    4    4    0    0 -0.13623212638E+02  0.50633218844E+02 -0.13568855013E+02  0.54161135508E+02  0.00000000000E+00 0. -1.
         11    1    4    4    0    0  0.24544977835E+02 -0.19019930282E+02  0.61428099106E+01  0.31653559017E+02  0.00000000000E+00 0.  1.
<mgrwt>
<rscale>  0 0.11665537E+03</rscale>
<asrwt>0</asrwt>
<pdfrwt beam="2">  1        1 0.18130744E-01 0.12938874E+03</pdfrwt>
<pdfrwt beam="1">  1       -1 0.15069719E-01 0.12938874E+03</pdfrwt>
<totfact> 0.86997908E+03</totfact>
</mgrwt>
</event>
<event>
 8    1  0.1154424E-005  0.2153442E+03  0.7546771E-02  0.1140412E+00
          1   -1    0    0  501    0  0.00000000000E+00  0.00000000000E+00  0.54952528706E+03  0.54952528706E+03  0.00000000000E+00 0. -1.
         -1   -1    0    0    0  501 -0.00000000000E+00 -0.00000000000E+00 -0.97375399478E+02  0.97375399478E+02  0.00000000000E+00 0.  1.
         23    2    1    2    0    0 -0.15831330524E+03  0.75391331640E+02  0.90645896414E+02  0.23364460057E+03  0.12500466126E+03 0.  0.
         23    2    1    2    0    0  0.15831330524E+03 -0.75391331640E+02  0.36150399117E+03  0.41325608597E+03  0.96687648944E+02 0.  0.
          5    1    3    3  502    0 -0.59451309041E+02  0.41592018800E+02 -0.25778705708E+02  0.77142633106E+02  0.47000000000E+01 0. -1.
         -5    1    3    3    0  502 -0.98861996197E+02  0.33799312840E+02  0.11642460212E+03  0.15650196746E+03  0.47000000000E+01 0. -1.
        -11    1    4    4    0    0  0.41144853498E+02  0.52965354715E+01  0.26316496328E+02  0.49127489620E+02  0.00000000000E+00 0.  1.
         11    1    4    4    0    0  0.11716845174E+03 -0.80687867112E+02  0.33518749484E+03  0.36412859635E+03  0.00000000000E+00 0. -1.
<mgrwt>
<rscale>  0 0.21146416E+03</rscale>
<asrwt>0</asrwt>
<pdfrwt beam="1">  1        1 0.84542350E-01 0.21534419E+03</pdfrwt>
<pdfrwt beam="2">  1       -1 0.14980831E-01 0.21534419E+03</pdfrwt>
<totfact> 0.12777197E+03</totfact>
</mgrwt>
</event>
<event>
 8    1  0.1154424E-005  0.1500232E+03  0.7546771E-02  0.1209611E+00
          1   -1    0    0  501    0  0.00000000000E+00  0.00000000000E+00  0.44266038284E+03  0.44266038284E+03  0.00000000000E+00 0. -1.
         -1   -1    0    0    0  501 -0.00000000000E+00 -0.00000000000E+00 -0.53294790859E+02  0.53294790859E+02  0.00000000000E+00 0.  1.
         23    2    1    2    0    0  0.78876989750E+02 -0.25696172176E+02  0.96838249430E+02  0.17856263791E+03  0.12500038531E+03 0.  0.
         23    2    1    2    0    0 -0.78876989750E+02  0.25696172176E+02  0.29252734255E+03  0.31739253579E+03  0.91015948383E+02 0.  0.
          5    1    3    3  502    0  0.75246161718E+02  0.29995012575E+02  0.20158532336E+02  0.83607069430E+02  0.47000000000E+01 0. -1.
         -5    1    3    3    0  502  0.36308280317E+01 -0.55691184751E+02  0.76679717094E+02  0.94955568477E+02  0.47000000000E+01 0. -1.
        -11    1    4    4    0    0 -0.68659237594E+01  0.42066655629E+02  0.61325421112E+02  0.74683008104E+02  0.00000000000E+00 0.  1.
         11    1    4    4    0    0 -0.72011065990E+02 -0.16370483453E+02  0.23120192143E+03  0.24270952768E+03  0.00000000000E+00 0. -1.
<mgrwt>
<rscale>  0 0.14279959E+03</rscale>
<asrwt>0</asrwt>
<pdfrwt beam="1">  1        1 0.68101595E-01 0.15002323E+03</pdfrwt>
<pdfrwt beam="2">  1       -1 0.81991989E-02 0.15002323E+03</pdfrwt>
<totfact> 0.42707799E+03</totfact>
</mgrwt>
</event>
<event>
 8    1  0.1154424E-005  0.1268271E+03  0.7546771E-02  0.1245956E+00
         -3   -1    0    0    0  501 -0.00000000000E+00  0.00000000000E+00  0.23457984541E+03  0.23457984541E+03  0.00000000000E+00 0.  1.
          3   -1    0    0  501    0  0.00000000000E+00 -0.00000000000E+00 -0.53096442517E+02  0.53096442517E+02  0.00000000000E+00 0. -1.
         23    2    1    2    0    0  0.14728560724E+02  0.15605554251E+02  0.11206733177E+03  0.16924599214E+03  0.12499862072E+03 0.  0.
         23    2    1    2    0    0 -0.14728560724E+02 -0.15605554251E+02  0.69416071124E+02  0.11843029579E+03  0.93523687936E+02 0.  0.
          5    1    3    3  502    0 -0.52551337128E+02 -0.87294530741E+01  0.34627720271E+02  0.63710402573E+02  0.47000000000E+01 0.  1.
         -5    1    3    3    0  502  0.67279897851E+02  0.24335007325E+02  0.77439611495E+02  0.10553558957E+03  0.47000000000E+01 0.  1.
        -11    1    4    4    0    0 -0.11831207752E+02  0.28776895726E+02 -0.52179236532E+01  0.31548596352E+02  0.00000000000E+00 0. -1.
         11    1    4    4    0    0 -0.28973529720E+01 -0.44382449977E+02  0.74633994777E+02  0.86881699434E+02  0.00000000000E+00 0.  1.
<mgrwt>
<rscale>  0 0.11828365E+03</rscale>
<asrwt>0</asrwt>
<pdfrwt beam="2">  1        3 0.81686835E-02 0.12682712E+03</pdfrwt>
<pdfrwt beam="1">  1       -3 0.36089207E-01 0.12682712E+03</pdfrwt>
<totfact> 0.17706292E+03</totfact>
</mgrwt>
</event>
<event>
 8    1  0.1154424E-005  0.1594720E+03  0.7546771E-02  0.1192767E+00
          4   -1    0    0  501    0  0.00000000000E+00  0.00000000000E+00  0.54189644419E+02  0.54189644419E+02  0.00000000000E+00 0. -1.
         -4   -1    0    0    0  501 -0.00000000000E+00 -0.00000000000E+00 -0.44042719212E+03  0.44042719212E+03  0.00000000000E+00 0.  1.
         23    2    1    2    0    0 -0.79241783054E+02 -0.59387955117E+02 -0.22699007645E+03  0.27740912172E+03  0.12500054644E+03 0.  0.
         23    2    1    2    0    0  0.79241783054E+02  0.59387955117E+02 -0.15924747125E+03  0.21720771482E+03  0.10960494918E+03 0.  0.
          5    1    3    3  502    0 -0.26906496643E+02  0.32192758110E+02 -0.11949117453E+03  0.12673028063E+03  0.47000000000E+01 0.  1.
         -5    1    3    3    0  502 -0.52335286411E+02 -0.91580713227E+02 -0.10749890192E+03  0.15067884109E+03  0.47000000000E+01 0.  1.
        -11    1    4    4    0    0  0.41928145188E+02 -0.23378153287E+02 -0.93530545015E+02  0.10513072938E+03  0.00000000000E+00 0. -1.
         11    1    4    4    0    0  0.37313637866E+02  0.82766108404E+02 -0.65716926236E+02  0.11207698544E+03  0.00000000000E+00 0.  1.
<mgrwt>
<rscale>  0 0.15644757E+03</rscale>
<asrwt>0</asrwt>
<pdfrwt beam="1">  1        4 0.83368686E-02 0.15947202E+03</pdfrwt>
<pdfrwt beam="2">  1       -4 0.67758028E-01 0.15947202E+03</pdfrwt>
<totfact> 0.36136501E+02</totfact>
</mgrwt>
</event>
<event>
 8    1  0.1154424E-005  0.1365200E+03  0.7546771E-02  0.1226937E+00
         -2   -1    0    0    0  501 -0.00000000000E+00  0.00000000000E+00  0.20379602501E+03  0.20379602501E+03  0.00000000000E+00 0.  1.
          2   -1    0    0  501    0  0.00000000000E+00 -0.00000000000E+00 -0.11172232109E+03  0.11172232109E+03  0.00000000000E+00 0. -1.
         23    2    1    2    0    0 -0.50608959119E+02 -0.21779087068E+02  0.13707037999E+03  0.19345802359E+03  0.12490845624E+03 0.  0.
         23    2    1    2    0    0  0.50608959119E+02  0.21779087068E+02 -0.44996676080E+02  0.12206032251E+03  0.99188840589E+02 0.  0.
          5    1    3    3  502    0 -0.23754629725E+02 -0.60211624243E+02  0.21038422715E+02  0.68223363723E+02  0.47000000000E+01 0. -1.
         -5    1    3    3    0  502 -0.26854329394E+02  0.38432537175E+02  0.11603195728E+03  0.12523465986E+03  0.47000000000E+01 0. -1.
        -11    1    4    4    0    0  0.80518863988E+01  0.73373532452E+01  0.31504922738E+02  0.33335113379E+02  0.00000000000E+00 0.  1.
         11    1    4    4    0    0  0.42557072720E+02  0.14441733823E+02 -0.76501598819E+02  0.88725209135E+02  0.00000000000E+00 0. -1.
<mgrwt>
<rscale>  0 0.13035016E+03</rscale>
<asrwt>0</asrwt>
<pdfrwt beam="2">  1        2 0.17188049E-01 0.13652003E+03</pdfrwt>
<pdfrwt beam="1">  1       -2 0.31353235E-01 0.13652003E+03</pdfrwt>
<totfact> 0.30100678E+03</totfact>
</mgrwt>
</event>
<event>
 8    1  0.1154424E-005  0.1430859E+03  0.7546771E-02  0.1220225E+00
          1   -1    0    0  501    0  0.00000000000E+00  0.00000000000E+00  0.44215905327E+03  0.44215905327E+03  0.00000000000E+00 0. -1.
         -1   -1    0    0    0  501 -0.00000000000E+00 -0.00000000000E+00 -0.42058645901E+02  0.42058645901E+02  0.00000000000E+00 0.  1.
         23    2    1    2    0    0 -0.69490752214E+02 -0.25832021487E+01  0.13863142994E+03  0.19922910251E+03  0.12505168668E+03 0.  0.
         23    2    1    2    0    0  0.69490752214E+02  0.25832021487E+01  0.26146897743E+03  0.28498859667E+03  0.89536788504E+02 0.  0.
          5    1    3    3  502    0  0.72998871864E+01 -0.87742858266E+01 -0.19607894823E+02  0.23169721277E+02  0.47000000000E+01 0. -1.
         -5    1    3    3    0  502 -0.76790639400E+02  0.61910836778E+01  0.15823932476E+03  0.17605938123E+03  0.47000000000E+01 0. -1.
        -11    1    4    4    0    0  0.83928788744E+01  0.13654018286E+02 -0.22520234135E+00  0.16028828630E+02  0.00000000000E+00 0.  1.
         11    1    4    4    0    0  0.61097873340E+02 -0.11070816137E+02  0.26169417977E+03  0.26895976804E+03  0.00000000000E+00 0. -1.
<mgrwt>
<rscale>  0 0.13499599E+03</rscale>
<asrwt>0</asrwt>
<pdfrwt beam="1">  1        1 0.68024467E-01 0.14308586E+03</pdfrwt>
<pdfrwt beam="2">  1       -1 0.64705612E-02 0.14308586E+03</pdfrwt>
<totfact> 0.60928097E+03</totfact>
</mgrwt>
</event>
<event>
 8    1  0.1154424E-005  0.1308907E+03  0.7546771E-02  0.1240254E+00
          1   -1    0    0  501    0  0.00000000000E+00  0.00000000000E+00  0.19032925934E+03  0.19032925934E+03  0.00000000000E+00 0. -1.
         -1   -1    0    0    0  501 -0.00000000000E+00 -0.00000000000E+00 -0.72934971729E+02  0.72934971729E+02  0.00000000000E+00 0.  1.
         23    2    1    2    0    0 -0.26080890584E+02 -0.28782552586E+02  0.35579915315E+02  0.13564035224E+03  0.12499490627E+03 0.  0.
         23    2    1    2    0    0  0.26080890584E+02  0.28782552586E+02  0.81814372292E+02  0.12762387883E+03  0.89920046413E+02 0.  0.
          5    1    3    3  502    0 -0.40256269462E+01  0.15707752915E+02 -0.40948358130E+02  0.44292179981E+02  0.47000000000E+01 0. -1.
         -5    1    3    3    0  502 -0.22055263638E+02 -0.44490305501E+02  0.76528273445E+02  0.91348172254E+02  0.47000000000E+01 0. -1.
        -11    1    4    4    0    0 -0.28412875751E+02  0.24731033650E+02  0.13212079127E+02  0.39918348772E+02  0.00000000000E+00 0.  1.
         11    1    4    4    0    0  0.54493766336E+02  0.40515189362E+01  0.68602293165E+02  0.87705530058E+02  0.00000000000E+00 0. -1.
<mgrwt>
<rscale>  0 0.12173993E+03</rscale>
<asrwt>0</asrwt>
<pdfrwt beam="1">  1        1 0.29281424E-01 0.13089070E+03</pdfrwt>
<pdfrwt beam="2">  1       -1 0.11220765E-01 0.13089070E+03</pdfrwt>
<totfact> 0.75195396E+03</totfact>
</mgrwt>
</event>
<event>
 8    1  0.1154424E-005  0.1782760E+03  0.7546771E-02  0.1175145E+00
         -3   -1    0    0    0  501 -0.00000000000E+00  0.00000000000E+00  0.10217858980E+04  0.10217858980E+04  0.00000000000E+00 0.  1.
          3   -1    0    0  501    0  0.00000000000E+00 -0.00000000000E+00 -0.28983314301E+02  0.28983314301E+02  0.00000000000E+00 0. -1.
         23    2    1    2    0    0 -0.29802668981E+02  0.12355581330E+03  0.64715637546E+03  0.67126276966E+03  0.12501237360E+03 0.  0.
         23    2    1    2    0    0  0.29802668981E+02 -0.12355581330E+03  0.34564620826E+03  0.37950644266E+03  0.91649335286E+02 0.  0.
          5    1    3    3  502    0  0.28676363103E+02 -0.26093045222E+01  0.48071907110E+02  0.56232913174E+02  0.47000000000E+01 0. -1.
         -5    1    3    3    0  502 -0.58479032084E+02  0.12616511783E+03  0.59908446836E+03  0.61502985649E+03  0.47000000000E+01 0. -1.
        -11    1    4    4    0    0  0.12563937023E+02 -0.56283830299E+02  0.51642636192E+02  0.77412427552E+02  0.00000000000E+00 0. -1.
         11    1    4    4    0    0  0.17238731958E+02 -0.67271983005E+02  0.29400357207E+03  0.30209401511E+03  0.00000000000E+00 0.  1.
<mgrwt>
<rscale>  0 0.17261740E+03</rscale>
<asrwt>0</asrwt>
<pdfrwt beam="2">  1        3 0.44589722E-02 0.17827600E+03</pdfrwt>
<pdfrwt beam="1">  1       -3 0.15719780E+00 0.17827600E+03</pdfrwt>
<totfact> 0.20089481E+02</totfact>
</mgrwt>
</event>
<event>
 8    1  0.1154424E-005  0.1280227E+03  0.7546771E-02  0.1245231E+00
         -1   -1    0    0    0  501 -0.00000000000E+00  0.00000000000E+00  0.48967593351E+02  0.48967593351E+02  0.00000000000E+00 0.  1.
          1   -1    0    0  501    0  0.00000000000E+00 -0.00000000000E+00 -0.27585217565E+03  0.27585217565E+03  0.00000000000E+00 0. -1.
         23    2    1    2    0    0 -0.13420367952E+02 -0.24175634258E+02 -0.82947903319E+02  0.15254558197E+03  0.12500092938E+03 0.  0.
         23    2    1    2    0    0  0.13420367952E+02  0.24175634258E+02 -0.14393667898E+03  0.17227418704E+03  0.90532095940E+02 0.  0.
          5    1    3    3  502    0  0.37802525320E+02 -0.55357247964E+02 -0.35942444704E+02  0.76206332769E+02  0.47000000000E+01 0. -1.
         -5    1    3    3    0  502 -0.51222893271E+02  0.31181613707E+02 -0.47005458615E+02  0.76339249197E+02  0.47000000000E+01 0. -1.
        -11    1    4    4    0    0 -0.30294935743E+02 -0.14978564358E+02 -0.35752343812E+02  0.49197262220E+02  0.00000000000E+00 0.  1.
         11    1    4    4    0    0  0.43715303695E+02  0.39154198615E+02 -0.10818433517E+03  0.12307692482E+03  0.00000000000E+00 0. -1.
<mgrwt>
<rscale>  0 0.11871550E+03</rscale>
<asrwt>0</asrwt>
<pdfrwt beam="2">  1        1 0.42438797E-01 0.12802265E+03</pdfrwt>
<pdfrwt beam="1">  1       -1 0.75334759E-02 0.12802265E+03</pdfrwt>
<totfact> 0.86839272E+03</totfact>
</mgrwt>
</event>
<event>
 8    1  0.1154424E-005  0.2178561E+03  0.7546771E-02  0.1139058E+00
         -3   -1    0    0    0  501 -0.00000000000E+00  0.00000000000E+00  0.18228600423E+03  0.18228600423E+03  0.00000000000E+00 0.  1.
          3   -1    0    0  501    0  0.00000000000E+00 -0.00000000000E+00 -0.24380503814E+03  0.24380503814E+03  0.00000000000E+00 0. -1.
         23    2    1    2    0    0 -0.11843285250E+03 -0.13345717299E+03 -0.29751818113E+01  0.21787639017E+03  0.12499644839E+03 0.  0.
         23    2    1    2    0    0  0.11843285250E+03  0.13345717299E+03 -0.58543852101E+02  0.20821465221E+03  0.89937762930E+02 0.  0.
          5    1    3    3  502    0 -0.39460331470E+02 -0.12319761788E+03  0.27750004745E+02  0.13238928799E+03  0.47000000000E+01 0. -1.
         -5    1    3    3    0  502 -0.78972521033E+02 -0.10259555111E+02 -0.30725186556E+02  0.85487102175E+02  0.47000000000E+01 0. -1.
        -11    1    4    4    0    0  0.65516358917E+02  0.17313231436E+02  0.77189971966E-01  0.67765383691E+02  0.00000000000E+00 0.  1.
         11    1    4    4    0    0  0.52916493585E+02  0.11614394156E+03 -0.58621042073E+02  0.14044926852E+03  0.00000000000E+00 0. -1.
<mgrwt>
<rscale>  0 0.21319852E+03</rscale>
<asrwt>0</asrwt>
<pdfrwt beam="2">  1        3 0.37508467E-01 0.21785608E+03</pdfrwt>
<pdfrwt beam="1">  1       -3 0.28044001E-01 0.21785608E+03</pdfrwt>
<totfact> 0.21083155E+02</totfact>
</mgrwt>
</event>
<event>
 8    1  0.1154424E-005  0.1277952E+03  0.7546771E-02  0.1245231E+00
          4   -1    0    0  501    0  0.00000000000E+00  0.00000000000E+00  0.28779402631E+02  0.28779402631E+02  0.00000000000E+00 0. -1.
         -4   -1    0    0    0  501 -0.00000000000E+00 -0.00000000000E+00 -0.45916621997E+03  0.45916621997E+03  0.00000000000E+00 0.  1.
         23    2    1    2    0    0  0.25546926701E+02 -0.72747695169E+01 -0.30372673463E+03  0.32951712946E+03  0.12500416612E+03 0.  0.
         23    2    1    2    0    0 -0.25546926701E+02  0.72747695169E+01 -0.12666008271E+03  0.15842849314E+03  0.91385136374E+02 0.  0.
          5    1    3    3  502    0 -0.49833826538E+02  0.47527965044E+01 -0.10048868790E+03  0.11236576764E+03  0.47000000000E+01 0.  1.
         -5    1    3    3    0  502  0.75380753239E+02 -0.12027566021E+02 -0.20323804673E+03  0.21715136182E+03  0.47000000000E+01 0.  1.
        -11    1    4    4    0    0 -0.27073269139E+02 -0.12956789093E+02 -0.13364264329E+03  0.13697151671E+03  0.00000000000E+00 0.  1.
         11    1    4    4    0    0  0.15263424375E+01  0.20231558610E+02  0.69825605782E+01  0.21456976424E+02  0.00000000000E+00 0. -1.
<mgrwt>
<rscale>  0 0.11871560E+03</rscale>
<asrwt>0</asrwt>
<pdfrwt beam="1">  1        4 0.44276005E-02 0.12779518E+03</pdfrwt>
<pdfrwt beam="2">  1       -4 0.70640956E-01 0.12779518E+03</pdfrwt>
<totfact> 0.88723760E+02</totfact>
</mgrwt>
</event>
<event>
 8    1  0.1154424E-005  0.1445464E+03  0.7546771E-02  0.1217825E+00
          1   -1    0    0  501    0  0.00000000000E+00  0.00000000000E+00  0.24495337884E+03  0.24495337884E+03  0.00000000000E+00 0. -1.
         -1   -1    0    0    0  501 -0.00000000000E+00 -0.00000000000E+00 -0.91755071175E+02  0.91755071175E+02  0.00000000000E+00 0.  1.
         23    2    1    2    0    0 -0.65663668549E+02  0.30961207137E+02 -0.25703633672E+00  0.14454667054E+03  0.12499344056E+03 0.  0.
         23    2    1    2    0    0  0.65663668549E+02 -0.30961207137E+02  0.15345534401E+03  0.19216177948E+03  0.90040508510E+02 0.  0.
          5    1    3    3  502    0 -0.29871584251E+02  0.42347895324E+02 -0.56462149522E+02  0.76783592732E+02  0.47000000000E+01 0.  1.
         -5    1    3    3    0  502 -0.35792084297E+02 -0.11386688187E+02  0.56205113186E+02  0.67763077811E+02  0.47000000000E+01 0.  1.
        -11    1    4    4    0    0 -0.14028822936E+02 -0.38749004150E+01  0.77283956151E+02  0.78642435139E+02  0.00000000000E+00 0. -1.
         11    1    4    4    0    0  0.79692491485E+02 -0.27086306722E+02  0.76171387855E+02  0.11351934434E+03  0.00000000000E+00 0.  1.
<mgrwt>
<rscale>  0 0.13671081E+03</rscale>
<asrwt>0</asrwt>
<pdfrwt beam="1">  1        1 0.37685135E-01 0.14454644E+03</pdfrwt>
<pdfrwt beam="2">  1       -1 0.14116165E-01 0.14454644E+03</pdfrwt>
<totfact> 0.38769856E+03</totfact>
</mgrwt>
</event>
<event>
 8    1  0.1154424E-005  0.1358890E+03  0.7546771E-02  0.1230723E+00
         -3   -1    0    0    0  501 -0.00000000000E+00  0.00000000000E+00  0.37424920384E+02  0.37424920384E+02  0.00000000000E+00 0.  1.
          3   -1    0    0  501    0  0.00000000000E+00 -0.00000000000E+00 -0.39237649663E+03  0.39237649663E+03  0.00000000000E+00 0. -1.
         23    2    1    2    0    0  0.52389871451E+02  0.97936477849E+01 -0.20479936620E+03  0.24578162987E+03  0.12500086007E+03 0.  0.
         23    2    1    2    0    0 -0.52389871451E+02 -0.97936477849E+01 -0.15015221005E+03  0.18401978714E+03  0.92070525742E+02 0.  0.
          5    1    3    3  502    0  0.51418518988E+00  0.51802597473E+01  0.16742405582E+02  0.18152069362E+02  0.47000000000E+01 0.  1.
         -5    1    3    3    0  502  0.51875686261E+02  0.46133880376E+01 -0.22154177178E+03  0.22762956051E+03  0.47000000000E+01 0.  1.
        -11    1    4    4    0    0 -0.42678082761E+02 -0.29444947574E+02 -0.26105115490E+02  0.58050846165E+02  0.00000000000E+00 0.  1.
         11    1    4    4    0    0 -0.97117886900E+01  0.19651299789E+02 -0.12404709456E+03  0.12596894098E+03  0.00000000000E+00 0. -1.
<mgrwt>
<rscale>  0 0.12782258E+03</rscale>
<asrwt>0</asrwt>
<pdfrwt beam="2">  1        3 0.60365617E-01 0.13588903E+03</pdfrwt>
<pdfrwt beam="1">  1       -3 0.57576799E-02 0.13588903E+03</pdfrwt>
<totfact> 0.11403561E+03</totfact>
</mgrwt>
</event>
<event>
 8    1  0.1154424E-005  0.1368339E+03  0.7546771E-02  0.1231488E+00
          2   -1    0    0  501    0  0.00000000000E+00  0.00000000000E+00  0.39528110240E+03  0.39528110240E+03  0.00000000000E+00 0.  1.
         -2   -1    0    0    0  501 -0.00000000000E+00 -0.00000000000E+00 -0.51182262003E+02  0.51182262003E+02  0.00000000000E+00 0. -1.
         23    2    1    2    0    0  0.30078817447E+02 -0.46821518194E+02  0.69784041466E+02  0.15360122197E+03  0.12500613234E+03 0.  0.
         23    2    1    2    0    0 -0.30078817447E+02  0.46821518194E+02  0.27431479893E+03  0.29286214243E+03  0.86154719735E+02 0.  0.
          5    1    3    3  502    0 -0.61179025529E+01 -0.30417979374E+02  0.99129088928E+02  0.10397763448E+03  0.47000000000E+01 0. -1.
         -5    1    3    3    0  502  0.36196720000E+02 -0.16403538820E+02 -0.29345047462E+02  0.49623587487E+02  0.47000000000E+01 0. -1.
        -11    1    4    4    0    0 -0.28316795906E+01  0.55756303525E+02  0.24710210534E+03  0.25333028689E+03  0.00000000000E+00 0.  1.
         11    1    4    4    0    0 -0.27247137856E+02 -0.89347853303E+01  0.27212693593E+02  0.39531855545E+02  0.00000000000E+00 0. -1.
<mgrwt>
<rscale>  0 0.12731963E+03</rscale>
<asrwt>0</asrwt>
<pdfrwt beam="1">  1        2 0.60812475E-01 0.13683392E+03</pdfrwt>
<pdfrwt beam="2">  1       -2 0.78741944E-02 0.13683392E+03</pdfrwt>
<totfact> 0.74852078E+03</totfact>
</mgrwt>
</event>
<event>
 8    1  0.1154424E-005  0.1591036E+03  0.7546771E-02  0.1197803E+00
         -2   -1    0    0    0  501 -0.00000000000E+00  0.00000000000E+00  0.22881110665E+03  0.22881110665E+03  0.00000000000E+00 0.  1.
          2   -1    0    0  501    0  0.00000000000E+00 -0.00000000000E+00 -0.17882973224E+03  0.17882973224E+03  0.00000000000E+00 0. -1.
         23    2    1    2    0    0  0.25457720310E+02 -0.95055500904E+02  0.16676318231E+03  0.23048623656E+03  0.12502120818E+03 0.  0.
         23    2    1    2    0    0 -0.25457720310E+02  0.95055500904E+02 -0.11678180790E+03  0.17715460232E+03  0.89789301663E+02 0.  0.
          5    1    3    3  502    0 -0.64132950704E+01 -0.19708409333E+01  0.12202679021E+03  0.12230143947E+03  0.47000000000E+01 0.  1.
         -5    1    3    3    0  502  0.31871015380E+02 -0.93084659971E+02  0.44736392100E+02  0.10818479709E+03  0.47000000000E+01 0.  1.
        -11    1    4    4    0    0 -0.45352767354E+02  0.10066183843E+03 -0.10877156905E+03  0.15498688156E+03  0.00000000000E+00 0. -1.
         11    1    4    4    0    0  0.19895047044E+02 -0.56063375265E+01 -0.80102388474E+01  0.22167720761E+02  0.00000000000E+00 0.  1.
<mgrwt>
<rscale>  0 0.15219374E+03</rscale>
<asrwt>0</asrwt>
<pdfrwt beam="2">  1        2 0.27512266E-01 0.15910357E+03</pdfrwt>
<pdfrwt beam="1">  1       -2 0.35201709E-01 0.15910357E+03</pdfrwt>
<totfact> 0.14447345E+03</totfact>
</mgrwt>
</event>
<event>
 8    1  0.1154424E-005  0.1416273E+03  0.7546771E-02  0.1220420E+00
          1   -1    0    0  501    0  0.00000000000E+00  0.00000000000E+00  0.13365449820E+03  0.13365449820E+03  0.00000000000E+00 0. -1.
         -1   -1    0    0    0  501 -0.00000000000E+00 -0.00000000000E+00 -0.51886254830E+03  0.51886254830E+03  0.00000000000E+00 0.  1.
         23    2    1    2    0    0  0.65384266411E+02  0.12629842433E+02 -0.48120562855E+03  0.50161452856E+03  0.12499465229E+03 0.  0.
         23    2    1    2    0    0 -0.65384266411E+02 -0.12629842433E+02  0.95997578455E+02  0.15090251793E+03  0.95506123550E+02 0.  0.
          5    1    3    3  502    0  0.11845104102E+02  0.40793112515E+02 -0.48365793202E+02  0.64542423815E+02  0.47000000000E+01 0.  1.
         -5    1    3    3    0  502  0.53539162310E+02 -0.28163270082E+02 -0.43283983535E+03  0.43707210475E+03  0.47000000000E+01 0.  1.
        -11    1    4    4    0    0  0.14513491261E+02 -0.12802145080E+01  0.61389640236E+02  0.63094915058E+02  0.00000000000E+00 0. -1.
         11    1    4    4    0    0 -0.79897757673E+02 -0.11349627925E+02  0.34607938219E+02  0.87807602877E+02  0.00000000000E+00 0.  1.
<mgrwt>
<rscale>  0 0.13485800E+03</rscale>
<asrwt>0</asrwt>
<pdfrwt beam="1">  1        1 0.20562231E-01 0.14162725E+03</pdfrwt>
<pdfrwt beam="2">  1       -1 0.79825007E-01 0.14162725E+03</pdfrwt>
<totfact> 0.40625809E+02</totfact>
</mgrwt>
</event>
<event>
 8    1  0.1154424E-005  0.1266002E+03  0.7546771E-02  0.1247870E+00
          2   -1    0    0  501    0  0.00000000000E+00  0.00000000000E+00  0.76660789531E+03  0.76660789531E+03  0.00000000000E+00 0. -1.
         -2   -1    0    0    0  501 -0.00000000000E+00 -0.00000000000E+00 -0.16108958114E+02  0.16108958114E+02  0.00000000000E+00 0.  1.
         23    2    1    2    0    0  0.19481557750E+02  0.47666137081E+01  0.37010781844E+03  0.39116160177E+03  0.12500139892E+03 0.  0.
         23    2    1    2    0    0 -0.19481557750E+02 -0.47666137081E+01  0.38039111876E+03  0.39155525166E+03  0.90641382213E+02 0.  0.
          5    1    3    3  502    0  0.45154191054E+01  0.63684487048E+02  0.15834226410E+03  0.17079363425E+03  0.47000000000E+01 0.  1.
         -5    1    3    3    0  502  0.14966138644E+02 -0.58917873340E+02  0.21176555433E+03  0.22036796752E+03  0.47000000000E+01 0.  1.
        -11    1    4    4    0    0  0.33873984719E+02 -0.14913987394E+02  0.18988027669E+03  0.19345385325E+03  0.00000000000E+00 0.  1.
         11    1    4    4    0    0 -0.53355542469E+02  0.10147373686E+02  0.19051084207E+03  0.19810139841E+03  0.00000000000E+00 0. -1.
<mgrwt>
<rscale>  0 0.11715268E+03</rscale>
<asrwt>0</asrwt>
<pdfrwt beam="1">  1        2 0.11793965E+00 0.12660016E+03</pdfrwt>
<pdfrwt beam="2">  1       -2 0.24783018E-02 0.12660016E+03</pdfrwt>
<totfact> 0.19877234E+04</totfact>
</mgrwt>
</event>
<event>
 8    1  0.1154424E-005  0.1573759E+03  0.7546771E-02  0.1200781E+00
         -2   -1    0    0    0  501 -0.00000000000E+00  0.00000000000E+00  0.56441370719E+02  0.56441370719E+02  0.00000000000E+00 0.  1.
          2   -1    0    0  501    0  0.00000000000E+00 -0.00000000000E+00 -0.37934160457E+03  0.37934160457E+03  0.00000000000E+00 0. -1.
         23    2    1    2    0    0  0.42848188343E+02  0.85471718528E+02 -0.13216557370E+03  0.20551137784E+03  0.12500322251E+03 0.  0.
         23    2    1    2    0    0 -0.42848188343E+02 -0.85471718528E+02 -0.19073466015E+03  0.23027159744E+03  0.86625147016E+02 0.  0.
          5    1    3    3  502    0  0.45553915667E+01  0.93240283426E+02 -0.33508394880E+02  0.99294534457E+02  0.47000000000E+01 0.  1.
         -5    1    3    3    0  502  0.38292796777E+02 -0.77685648974E+01 -0.98657178825E+02  0.10621684339E+03  0.47000000000E+01 0.  1.
        -11    1    4    4    0    0 -0.28015938081E+02 -0.45844849852E+02 -0.17822808134E+03  0.18615018674E+03  0.00000000000E+00 0. -1.
         11    1    4    4    0    0 -0.14832250263E+02 -0.39626868676E+02 -0.12506578802E+02  0.44121410701E+02  0.00000000000E+00 0.  1.
<mgrwt>
<rscale>  0 0.14974944E+03</rscale>
<asrwt>0</asrwt>
<pdfrwt beam="2">  1        2 0.58360246E-01 0.15737594E+03</pdfrwt>
<pdfrwt beam="1">  1       -2 0.86832879E-02 0.15737594E+03</pdfrwt>
<totfact> 0.67794227E+03</totfact>
</mgrwt>
</event>
<event>
 8    1  0.1154424E-005  0.1770722E+03  0.7546771E-02  0.1174632E+00
          2   -1    0    0  501    0  0.00000000000E+00  0.00000000000E+00  0.34700560944E+03  0.34700560944E+03  0.00000000000E+00 0. -1.
         -2   -1    0    0    0  501 -0.00000000000E+00 -0.00000000000E+00 -0.28278995264E+03  0.28278995264E+03  0.00000000000E+00 0.  1.
         23    2    1    2    0    0 -0.12542270849E+03  0.44650207106E+02 -0.23225270342E+03  0.29205457963E+03  0.11674785837E+03 0.  0.
         23    2    1    2    0    0  0.12542270849E+03 -0.44650207106E+02  0.29646836022E+03  0.33774098244E+03  0.91929243484E+02 0.  0.
          5    1    3    3  502    0 -0.47038216594E+02  0.33711970101E+02 -0.13827888825E+02  0.59685770983E+02  0.47000000000E+01 0. -1.
         -5    1    3    3    0  502 -0.78384491898E+02  0.10938237005E+02 -0.21842481460E+03  0.23236880865E+03  0.47000000000E+01 0.  1.
        -11    1    4    4    0    0  0.11793991121E+02 -0.35637948215E+02  0.30469133349E+02  0.48348005818E+02  0.00000000000E+00 0.  1.
         11    1    4    4    0    0  0.11362871737E+03 -0.90122588906E+01  0.26599922688E+03  0.28939297663E+03  0.00000000000E+00 0. -1.
<mgrwt>
<rscale>  0 0.17312094E+03</rscale>
<asrwt>0</asrwt>
<pdfrwt beam="1">  1        2 0.53385478E-01 0.17707219E+03</pdfrwt>
<pdfrwt beam="2">  1       -2 0.43506147E-01 0.17707219E+03</pdfrwt>
<totfact> 0.47485516E+02</totfact>
</mgrwt>
</event>
<event>
 7    1  0.1154424E-005  0.1597930E+03  0.7546771E-02  0.1202996E+00
          2   -1    0    0  501    0  0.00000000000E+00  0.00000000000E+00  0.54082264249E+03  0.54082264249E+03  0.00000000000E+00 0.  1.
         -2   -1    0    0    0  501 -0.00000000000E+00 -0.00000000000E+00 -0.92948145018E+02  0.92948145018E+02  0.00000000000E+00 0. -1.
         23    2    1    2    0    0 -0.66229476935E+02 -0.31657485341E+02  0.45880243988E+03  0.47360459207E+03  0.91722902257E+02 0.  0.
          5    1    1    2  502    0  0.49874640667E+02  0.27990642775E+02  0.62414842162E+02  0.84785956307E+02  0.47000000000E+01 0.  1.
         -5    1    1    2    0  502  0.16354836268E+02  0.36668425654E+01 -0.73342784567E+02  0.75380239133E+02  0.47000000000E+01 0. -1.
        -11    1    3    3    0    0  0.19679908481E+01 -0.37974851627E+02  0.78989033446E+02  0.87665442159E+02  0.00000000000E+00 0. -1.
         11    1    3    3    0    0 -0.68197467784E+02  0.63173662867E+01  0.37981340643E+03  0.38593914991E+03  0.00000000000E+00 0.  1.
<mgrwt>
<rscale>  0 0.14796518E+03</rscale>
<asrwt>0</asrwt>
<pdfrwt beam="1">  1        2 0.83203481E-01 0.15979296E+03</pdfrwt>
<pdfrwt beam="2">  1       -2 0.14299715E-01 0.15979296E+03</pdfrwt>
<totfact> 0.20812486E+03</totfact>
</mgrwt>
</event>
<event>
 8    1  0.1174735E-005  0.1305020E+03  0.7546771E-02  0.1246950E+00
          2   -1    0    0  501    0  0.00000000000E+00  0.00000000000E+00  0.27505107526E+03  0.27505107526E+03  0.00000000000E+00 0. -1.
         -2   -1    0    0    0  501 -0.00000000000E+00 -0.00000000000E+00 -0.42792875408E+02  0.42792875408E+02  0.00000000000E+00 0.  1.
         23    2    1    2    0    0  0.32772665493E+02 -0.18211049385E+02  0.13399896232E+03  0.18704677822E+03  0.12500034167E+03 0.  0.
         23    2    1    2    0    0 -0.32772665493E+02  0.18211049385E+02  0.98259237524E+02  0.13079717244E+03  0.77764597578E+02 0.  0.
          5    1    3    3  502    0 -0.16401623763E+02  0.42890642361E+02  0.77734622501E+02  0.90406758595E+02  0.47000000000E+01 0. -1.
         -5    1    3    3    0  502  0.49174289256E+02 -0.61101691746E+02  0.56264339823E+02  0.96640019628E+02  0.47000000000E+01 0. -1.
        -11    1    4    4    0    0  0.17255853496E+02 -0.79566964202E+01  0.18748514402E+01  0.19094202411E+02  0.00000000000E+00 0.  1.
         11    1    4    4    0    0 -0.50028518989E+02  0.26167745805E+02  0.96384386084E+02  0.11170297003E+03  0.00000000000E+00 0. -1.
<mgrwt>
<rscale>  0 0.11769404E+03</rscale>
<asrwt>0</asrwt>
<pdfrwt beam="1">  1        2 0.42315549E-01 0.13050201E+03</pdfrwt>
<pdfrwt beam="2">  1       -2 0.65835195E-02 0.13050201E+03</pdfrwt>
<totfact> 0.14419850E+04</totfact>
</mgrwt>
</event>
<event>
 8    1  0.1755175E-005  0.1558500E+03  0.7546771E-02  0.1201462E+00
          2   -1    0    0  501    0  0.00000000000E+00  0.00000000000E+00  0.10047188782E+04  0.10047188782E+04  0.00000000000E+00 0. -1.
         -2   -1    0    0    0  501 -0.00000000000E+00 -0.00000000000E+00 -0.20547507370E+02  0.20547507370E+02  0.00000000000E+00 0.  1.
         23    2    1    2    0    0 -0.92139078433E+02  0.13200285180E+02  0.56812442320E+03  0.58911339689E+03  0.12500150739E+03 0.  0.
         23    2    1    2    0    0  0.92139078433E+02 -0.13200285180E+02  0.41604694766E+03  0.43615298871E+03  0.92035371480E+02 0.  0.
          5    1    3    3  502    0 -0.20832675485E+02 -0.52598102341E+02  0.16662352674E+03  0.17602854996E+03  0.47000000000E+01 0.  1.
         -5    1    3    3    0  502 -0.71306402948E+02  0.65798387521E+02  0.40150089646E+03  0.41308484692E+03  0.47000000000E+01 0.  1.
        -11    1    4    4    0    0  0.15768140780E+02  0.29601554259E+02  0.53168308292E+02  0.62862988195E+02  0.00000000000E+00 0.  1.
         11    1    4    4    0    0  0.76370937653E+02 -0.42801839439E+02  0.36287863937E+03  0.37329000052E+03  0.00000000000E+00 0. -1.
<mgrwt>
<rscale>  0 0.14919824E+03</rscale>
<asrwt>0</asrwt>
<pdfrwt beam="1">  1        2 0.15457210E+00 0.15585004E+03</pdfrwt>
<pdfrwt beam="2">  1       -2 0.31611558E-02 0.15585004E+03</pdfrwt>
<totfact> 0.99276755E+03</totfact>
</mgrwt>
</event>
<event>
 8    1  0.1154424E-005  0.1389392E+03  0.7546771E-02  0.1226172E+00
         -2   -1    0    0    0  501 -0.00000000000E+00  0.00000000000E+00  0.34024817664E+02  0.34024817664E+02  0.00000000000E+00 0.  1.
          2   -1    0    0  501    0  0.00000000000E+00 -0.00000000000E+00 -0.47022982807E+03  0.47022982807E+03  0.00000000000E+00 0. -1.
         23    2    1    2    0    0 -0.56177584747E+02  0.22848918019E+02 -0.19520870235E+03  0.23960494618E+03  0.12500439464E+03 0.  0.
         23    2    1    2    0    0  0.56177584747E+02 -0.22848918019E+02 -0.24099630806E+03  0.26464969956E+03  0.91006861789E+02 0.  0.
          5    1    3    3  502    0 -0.46807789527E+02  0.58154820247E+02 -0.18764898892E+03  0.20200788430E+03  0.47000000000E+01 0. -1.
         -5    1    3    3    0  502 -0.93697952190E+01 -0.35305902228E+02 -0.75597134256E+01  0.37597061875E+02  0.47000000000E+01 0. -1.
        -11    1    4    4    0    0 -0.14755495008E+02  0.11399766923E+02 -0.11253537758E+02  0.21778921711E+02  0.00000000000E+00 0.  1.
         11    1    4    4    0    0  0.70933079755E+02 -0.34248684942E+02 -0.22974277031E+03  0.24287077785E+03  0.00000000000E+00 0. -1.
<mgrwt>
<rscale>  0 0.13086877E+03</rscale>
<asrwt>0</asrwt>
<pdfrwt beam="2">  1        2 0.72343050E-01 0.13893917E+03</pdfrwt>
<pdfrwt beam="1">  1       -2 0.52345874E-02 0.13893917E+03</pdfrwt>
<totfact> 0.11575394E+04</totfact>
</mgrwt>
</event>
<event>
 6    1  0.1970755E-005  0.2144814E+03  0.7546771E-02  0.1211172E+00
          2   -1    0    0  501    0  0.00000000000E+00  0.00000000000E+00  0.56693809782E+02  0.56693809782E+02  0.00000000000E+00 0. -1.
         -2   -1    0    0    0  501 -0.00000000000E+00 -0.00000000000E+00 -0.31056281487E+03  0.31056281487E+03  0.00000000000E+00 0.  1.
          5    1    1    2  502    0  0.17955595905E+02 -0.12080252677E+02  0.37033576750E+02  0.43149875272E+02  0.47000000000E+01 0. -1.
         -5    1    1    2    0  502  0.97423023184E+01  0.12194990626E+02 -0.28188793404E+03  0.28235886316E+03  0.47000000000E+01 0.  1.
        -11    1    1    2    0    0 -0.22662666997E+02 -0.13450486093E+02 -0.41049330917E+01  0.26671380302E+02  0.00000000000E+00 0.  1.
         11    1    1    2    0    0 -0.50352312269E+01  0.13335748144E+02 -0.49097147100E+01  0.15076505915E+02  0.00000000000E+00 0. -1.
<mgrwt>
<rscale>  0 0.14161485E+03</rscale>
<asrwt>0</asrwt>
<pdfrwt beam="1">  1        2 0.87221246E-02 0.21448143E+03</pdfrwt>
<pdfrwt beam="2">  1       -2 0.47778895E-01 0.21448143E+03</pdfrwt>
<totfact> 0.31516622E+03</totfact>
</mgrwt>
</event>
<event>
 8    1  0.1154424E-005  0.3027722E+03  0.7546771E-02  0.1085361E+00
         -2   -1    0    0    0  501 -0.00000000000E+00  0.00000000000E+00  0.96507207143E+03  0.96507207143E+03  0.00000000000E+00 0. -1.
          2   -1    0    0  501    0  0.00000000000E+00 -0.00000000000E+00 -0.11353873692E+03  0.11353873692E+03  0.00000000000E+00 0.  1.
         23    2    1    2    0    0  0.26505661345E+03  0.76080299151E+02  0.67125622880E+03  0.73638026923E+03  0.12501102332E+03 0.  0.
         23    2    1    2    0    0 -0.26505661345E+03 -0.76080299151E+02  0.18027710571E+03  0.34223053911E+03  0.92621200620E+02 0.  0.
          5    1    3    3  502    0  0.15976564609E+03  0.10766501456E+03  0.43233908710E+03  0.47334553263E+03  0.47000000000E+01 0. -1.
         -5    1    3    3    0  502  0.10529096737E+03 -0.31584715413E+02  0.23891714171E+03  0.26303473660E+03  0.47000000000E+01 0. -1.
        -11    1    4    4    0    0 -0.17842729103E+03 -0.19184676910E+02  0.15100041550E+03  0.23453246149E+03  0.00000000000E+00 0. -1.
         11    1    4    4    0    0 -0.86629322427E+02 -0.56895622241E+02  0.29276690211E+02  0.10769807763E+03  0.00000000000E+00 0.  1.
<mgrwt>
<rscale>  0 0.29975905E+03</rscale>
<asrwt>0</asrwt>
<pdfrwt beam="2">  1        2 0.17467499E-01 0.30277215E+03</pdfrwt>
<pdfrwt beam="1">  1       -2 0.14847262E+00 0.30277215E+03</pdfrwt>
<totfact> 0.10605630E+02</totfact>
</mgrwt>
</event>
<event>
 7    1  0.1154424E-005  0.2172822E+03  0.7546771E-02  0.1171216E+00
          2   -1    0    0  501    0  0.00000000000E+00  0.00000000000E+00  0.37397775300E+03  0.37397775300E+03  0.00000000000E+00 0. -1.
         -2   -1    0    0    0  501 -0.00000000000E+00 -0.00000000000E+00 -0.86022994596E+02  0.86022994596E+02  0.00000000000E+00 0.  1.
         23    2    1    2    0    0 -0.23505198453E+02 -0.20077418876E+02  0.20792114930E+03  0.22844744832E+03  0.89450741834E+02 0.  0.
          5    1    1    2  502    0  0.54532696229E+02  0.16624319192E+02  0.14688022819E+03  0.15762637590E+03  0.47000000000E+01 0. -1.
         -5    1    1    2    0  502 -0.31027497775E+02  0.34530996845E+01 -0.66846619089E+02  0.73926923372E+02  0.47000000000E+01 0.  1.
        -11    1    3    3    0    0 -0.23086245002E+02  0.27200446893E+02  0.14735451766E+03  0.15161198137E+03  0.00000000000E+00 0.  1.
         11    1    3    3    0    0 -0.41895345132E+00 -0.47277865769E+02  0.60566631647E+02  0.76835466959E+02  0.00000000000E+00 0. -1.
<mgrwt>
<rscale>  0 0.17651785E+03</rscale>
<asrwt>0</asrwt>
<pdfrwt beam="1">  1        2 0.57535038E-01 0.21728219E+03</pdfrwt>
<pdfrwt beam="2">  1       -2 0.13234307E-01 0.21728219E+03</pdfrwt>
<totfact> 0.35734761E+03</totfact>
</mgrwt>
</event>
<event>
 8    1  0.1154424E-005  0.1825299E+03  0.7546771E-02  0.1170465E+00
          2   -1    0    0  501    0  0.00000000000E+00  0.00000000000E+00  0.75073653718E+03  0.75073653718E+03  0.00000000000E+00 0. -1.
         -2   -1    0    0    0  501 -0.00000000000E+00 -0.00000000000E+00 -0.39853067153E+02  0.39853067153E+02  0.00000000000E+00 0.  1.
         23    2    1    2    0    0  0.12342404039E+03 -0.49604313620E+02  0.34600162490E+03  0.39119595157E+03  0.12499226544E+03 0.  0.
         23    2    1    2    0    0 -0.12342404039E+03  0.49604313620E+02  0.36488184513E+03  0.39939365276E+03  0.93179650602E+02 0.  0.
          5    1    3    3  502    0  0.70460762728E+02  0.28398340667E+02  0.87367765538E+02  0.11587234913E+03  0.47000000000E+01 0. -1.
         -5    1    3    3    0  502  0.52963277658E+02 -0.78002654287E+02  0.25863385936E+03  0.27532360245E+03  0.47000000000E+01 0. -1.
        -11    1    4    4    0    0 -0.31046716994E+02 -0.14117230476E+02  0.17933223894E+03  0.18254656052E+03  0.00000000000E+00 0. -1.
         11    1    4    4    0    0 -0.92377323392E+02  0.63721544095E+02  0.18554960619E+03  0.21684709225E+03  0.00000000000E+00 0.  1.
<mgrwt>
<rscale>  0 0.17727710E+03</rscale>
<asrwt>0</asrwt>
<pdfrwt beam="1">  1        2 0.11549792E+00 0.18252986E+03</pdfrwt>
<pdfrwt beam="2">  1       -2 0.61312416E-02 0.18252986E+03</pdfrwt>
<totfact> 0.54049259E+03</totfact>
</mgrwt>
</event>
<event>
 8    1  0.1154424E-005  0.1316408E+03  0.7546771E-02  0.1237040E+00
          1   -1    0    0  501    0  0.00000000000E+00  0.00000000000E+00  0.49055303477E+03  0.49055303477E+03  0.00000000000E+00 0. -1.
         -1   -1    0    0    0  501 -0.00000000000E+00 -0.00000000000E+00 -0.28904287364E+02  0.28904287364E+02  0.00000000000E+00 0.  1.
         23    2    1    2    0    0  0.15402400832E+02 -0.38312609681E+02  0.21297538244E+03  0.25037532618E+03  0.12499680165E+03 0.  0.
         23    2    1    2    0    0 -0.15402400832E+02  0.38312609681E+02  0.24867336497E+03  0.26908199595E+03  0.94136008470E+02 0.  0.
          5    1    3    3  502    0 -0.11492589765E+02 -0.41559003664E+02  0.21813071849E+03  0.22240128316E+03  0.47000000000E+01 0. -1.
         -5    1    3    3    0  502  0.26894990597E+02  0.32463939831E+01 -0.51553360459E+01  0.27974043019E+02  0.47000000000E+01 0. -1.
        -11    1    4    4    0    0  0.37533307696E+02  0.73241255310E+01  0.64745018277E+02  0.75195142084E+02  0.00000000000E+00 0.  1.
         11    1    4    4    0    0 -0.52935708528E+02  0.30988484150E+02  0.18392834669E+03  0.19388685387E+03  0.00000000000E+00 0. -1.
<mgrwt>
<rscale>  0 0.12374712E+03</rscale>
<asrwt>0</asrwt>
<pdfrwt beam="1">  1        1 0.75469692E-01 0.13164076E+03</pdfrwt>
<pdfrwt beam="2">  1       -1 0.44468138E-02 0.13164076E+03</pdfrwt>
<totfact> 0.92499821E+03</totfact>
</mgrwt>
</event>
<event>
 8    1  0.1154424E-005  0.1316297E+03  0.7546771E-02  0.1239500E+00
          2   -1    0    0  501    0  0.00000000000E+00  0.00000000000E+00  0.12313901520E+03  0.12313901520E+03  0.00000000000E+00 0.  1.
         -2   -1    0    0    0  501 -0.00000000000E+00 -0.00000000000E+00 -0.11501784204E+03  0.11501784204E+03  0.00000000000E+00 0. -1.
         23    2    1    2    0    0 -0.41165649879E+02  0.24176547228E+01 -0.26766553004E+02  0.13432354453E+03  0.12500364183E+03 0.  0.
         23    2    1    2    0    0  0.41165649879E+02 -0.24176547228E+01  0.34887726171E+02  0.10383331271E+03  0.88677774027E+02 0.  0.
          5    1    3    3  502    0 -0.62485063767E+02  0.32021579721E+02 -0.53879551997E+02  0.88627653050E+02  0.47000000000E+01 0.  1.
         -5    1    3    3    0  502  0.21319413888E+02 -0.29603924998E+02  0.27112998993E+02  0.45695891481E+02  0.47000000000E+01 0.  1.
        -11    1    4    4    0    0  0.69248828133E+02 -0.57157611341E+01  0.23509572177E+02  0.73353732741E+02  0.00000000000E+00 0.  1.
         11    1    4    4    0    0 -0.28083178253E+02  0.32981064114E+01  0.11378153994E+02  0.30479579968E+02  0.00000000000E+00 0. -1.
<mgrwt>
<rscale>  0 0.12220709E+03</rscale>
<asrwt>0</asrwt>
<pdfrwt beam="1">  1        2 0.18944464E-01 0.13162966E+03</pdfrwt>
<pdfrwt beam="2">  1       -2 0.17695053E-01 0.13162966E+03</pdfrwt>
<totfact> 0.72403967E+03</totfact>
</mgrwt>
</event>
<event>
 8    1  0.1154424E-005  0.1400233E+03  0.7546771E-02  0.1225189E+00
          4   -1    0    0  501    0  0.00000000000E+00  0.00000000000E+00  0.56167746798E+03  0.56167746798E+03  0.00000000000E+00 0. -1.
         -4   -1    0    0    0  501 -0.00000000000E+00 -0.00000000000E+00 -0.29548154284E+02  0.29548154284E+02  0.00000000000E+00 0.  1.
         23    2    1    2    0    0  0.46287683315E+02 -0.42872840664E+02  0.22187518295E+03  0.26236446240E+03  0.12500353687E+03 0.  0.
         23    2    1    2    0    0 -0.46287683315E+02  0.42872840664E+02  0.31025413075E+03  0.32886115986E+03  0.88946088879E+02 0.  0.
          5    1    3    3  502    0 -0.37497887553E+02 -0.34540362783E+02  0.53493422283E+02  0.74045691702E+02  0.47000000000E+01 0.  1.
         -5    1    3    3    0  502  0.83785570868E+02 -0.83324778812E+01  0.16838176067E+03  0.18831877070E+03  0.47000000000E+01 0.  1.
        -11    1    4    4    0    0 -0.62224263074E+02  0.57006063827E+02  0.27514555331E+03  0.28779615309E+03  0.00000000000E+00 0.  1.
         11    1    4    4    0    0  0.15936579759E+02 -0.14133223163E+02  0.35108577438E+02  0.41065006771E+02  0.00000000000E+00 0. -1.
<mgrwt>
<rscale>  0 0.13153980E+03</rscale>
<asrwt>0</asrwt>
<pdfrwt beam="1">  1        4 0.86411910E-01 0.14002326E+03</pdfrwt>
<pdfrwt beam="2">  1       -4 0.45458703E-02 0.14002326E+03</pdfrwt>
<totfact> 0.55613959E+02</totfact>
</mgrwt>
</event>
<event>
 8    1  0.1154424E-005  0.1313075E+03  0.7546771E-02  0.1239340E+00
          2   -1    0    0  501    0  0.00000000000E+00  0.00000000000E+00  0.22141988000E+03  0.22141988000E+03  0.00000000000E+00 0. -1.
         -2   -1    0    0    0  501 -0.00000000000E+00 -0.00000000000E+00 -0.59995469702E+02  0.59995469702E+02  0.00000000000E+00 0.  1.
         23    2    1    2    0    0 -0.51763441541E+01 -0.39886598036E+02  0.84190154269E+02  0.15597960941E+03  0.12499568486E+03 0.  0.
         23    2    1    2    0    0  0.51763441541E+01  0.39886598036E+02  0.77234256025E+02  0.12543574029E+03  0.90284325307E+02 0.  0.
          5    1    3    3  502    0  0.39553574306E+02 -0.59589291143E+02  0.18607524514E+02  0.74052000837E+02  0.47000000000E+01 0. -1.
         -5    1    3    3    0  502 -0.44729918460E+02  0.19702693108E+02  0.65582629755E+02  0.81927608575E+02  0.47000000000E+01 0. -1.
        -11    1    4    4    0    0  0.22889965833E+02 -0.21934449987E+02  0.40300260597E+02  0.51275546182E+02  0.00000000000E+00 0. -1.
         11    1    4    4    0    0 -0.17713621679E+02  0.61821048022E+02  0.36933995429E+02  0.74160194106E+02  0.00000000000E+00 0.  1.
<mgrwt>
<rscale>  0 0.12230617E+03</rscale>
<asrwt>0</asrwt>
<pdfrwt beam="1">  1        2 0.34064597E-01 0.13130749E+03</pdfrwt>
<pdfrwt beam="2">  1       -2 0.92300724E-02 0.13130749E+03</pdfrwt>
<totfact> 0.10800317E+04</totfact>
</mgrwt>
</event>
<event>
 8    1  0.1154424E-005  0.1357238E+03  0.7546771E-02  0.1231678E+00
         -1   -1    0    0    0  501 -0.00000000000E+00  0.00000000000E+00  0.10581880791E+03  0.10581880791E+03  0.00000000000E+00 0.  1.
          1   -1    0    0  501    0  0.00000000000E+00 -0.00000000000E+00 -0.17979594509E+03  0.17979594509E+03  0.00000000000E+00 0. -1.
         23    2    1    2    0    0  0.35179519772E+02 -0.39455765272E+02  0.28976390902E+02  0.13878249264E+03  0.12500637187E+03 0.  0.
         23    2    1    2    0    0 -0.35179519772E+02  0.39455765272E+02 -0.10295352809E+03  0.14683226036E+03  0.90365522813E+02 0.  0.
          5    1    3    3  502    0  0.53618230822E+01  0.28028114193E+02 -0.31869307547E+02  0.43035649124E+02  0.47000000000E+01 0.  1.
         -5    1    3    3    0  502  0.29817696689E+02 -0.67483879465E+02  0.60845698449E+02  0.95746843516E+02  0.47000000000E+01 0.  1.
        -11    1    4    4    0    0 -0.28326550604E+02 -0.54297228181E+01  0.54056700832E+01  0.29344447994E+02  0.00000000000E+00 0.  1.
         11    1    4    4    0    0 -0.68529691676E+01  0.44885488090E+02 -0.10835919817E+03  0.11748781237E+03  0.00000000000E+00 0. -1.
<mgrwt>
<rscale>  0 0.12719491E+03</rscale>
<asrwt>0</asrwt>
<pdfrwt beam="2">  1        1 0.27660914E-01 0.13572380E+03</pdfrwt>
<pdfrwt beam="1">  1       -1 0.16279817E-01 0.13572380E+03</pdfrwt>
<totfact> 0.45361051E+03</totfact>
</mgrwt>
</event>
<event>
 8    1  0.1154424E-005  0.1340629E+03  0.7546771E-02  0.1234894E+00
          2   -1    0    0  501    0  0.00000000000E+00  0.00000000000E+00  0.10834628110E+03  0.10834628110E+03  0.00000000000E+00 0. -1.
         -2   -1    0    0    0  501 -0.00000000000E+00 -0.00000000000E+00 -0.12983220229E+03  0.12983220229E+03  0.00000000000E+00 0.  1.
         23    2    1    2    0    0 -0.21892820689E+01  0.48394035953E+02 -0.25249436159E+02  0.13641991207E+03  0.12500433077E+03 0.  0.
         23    2    1    2    0    0  0.21892820689E+01 -0.48394035953E+02  0.37635149705E+01  0.10175857131E+03  0.89408428678E+02 0.  0.
          5    1    3    3  502    0 -0.59541657589E+02  0.46265398859E+02 -0.22248658212E+02  0.78757786359E+02  0.47000000000E+01 0.  1.
         -5    1    3    3    0  502  0.57352375520E+02  0.21286370943E+01 -0.30007779465E+01  0.57662125715E+02  0.47000000000E+01 0.  1.
        -11    1    4    4    0    0  0.31883339761E+02 -0.76916371526E+01 -0.27210766799E+02  0.42616129179E+02  0.00000000000E+00 0.  1.
         11    1    4    4    0    0 -0.29694057692E+02 -0.40702398800E+02  0.30974281769E+02  0.59142442133E+02  0.00000000000E+00 0. -1.
<mgrwt>
<rscale>  0 0.12511226E+03</rscale>
<asrwt>0</asrwt>
<pdfrwt beam="1">  1        2 0.16668659E-01 0.13406289E+03</pdfrwt>
<pdfrwt beam="2">  1       -2 0.19974185E-01 0.13406289E+03</pdfrwt>
<totfact> 0.68516048E+03</totfact>
</mgrwt>
</event>
<event>
 8    1  0.1154424E-005  0.1467227E+03  0.7546771E-02  0.1214247E+00
          1   -1    0    0  501    0  0.00000000000E+00  0.00000000000E+00  0.67808800197E+02  0.67808800197E+02  0.00000000000E+00 0. -1.
         -1   -1    0    0    0  501 -0.00000000000E+00 -0.00000000000E+00 -0.27009589319E+03  0.27009589319E+03  0.00000000000E+00 0.  1.
         23    2    1    2    0    0 -0.39262900715E+02  0.66058939563E+02 -0.14229109172E+03  0.20438764221E+03  0.12498877804E+03 0.  0.
         23    2    1    2    0    0  0.39262900715E+02 -0.66058939563E+02 -0.59996001269E+02  0.13351705118E+03  0.91224579572E+02 0.  0.
          5    1    3    3  502    0 -0.65951299089E+02  0.48026837484E+02 -0.15010864489E+03  0.17091180837E+03  0.47000000000E+01 0. -1.
         -5    1    3    3    0  502  0.26688398374E+02  0.18032102079E+02  0.78175531723E+01  0.33475833832E+02  0.47000000000E+01 0. -1.
        -11    1    4    4    0    0  0.41505435777E+02 -0.10085547158E+02  0.99968245403E+01  0.43867481822E+02  0.00000000000E+00 0. -1.
         11    1    4    4    0    0 -0.22425350624E+01 -0.55973392405E+02 -0.69992825809E+02  0.89649569355E+02  0.00000000000E+00 0.  1.
<mgrwt>
<rscale>  0 0.13931993E+03</rscale>
<asrwt>0</asrwt>
<pdfrwt beam="1">  1        1 0.10432123E-01 0.14672271E+03</pdfrwt>
<pdfrwt beam="2">  1       -1 0.41553214E-01 0.14672271E+03</pdfrwt>
<totfact> 0.33749376E+03</totfact>
</mgrwt>
</event>
<event>
 8    1  0.1154424E-005  0.1456082E+03  0.7546771E-02  0.1216889E+00
         -2   -1    0    0    0  501 -0.00000000000E+00  0.00000000000E+00  0.64185322784E+02  0.64185322784E+02  0.00000000000E+00 0.  1.
          2   -1    0    0  501    0  0.00000000000E+00 -0.00000000000E+00 -0.26547610351E+03  0.26547610351E+03  0.00000000000E+00 0. -1.
         23    2    1    2    0    0 -0.64559058811E+02  0.37502802542E+02 -0.10877940011E+03  0.18175454739E+03  0.12500970096E+03 0.  0.
         23    2    1    2    0    0  0.64559058811E+02 -0.37502802542E+02 -0.92511380612E+02  0.14790687890E+03  0.87998619371E+02 0.  0.
          5    1    3    3  502    0 -0.29037892773E+01  0.38378523843E+02 -0.11329813243E+03  0.11974932107E+03  0.47000000000E+01 0. -1.
         -5    1    3    3    0  502 -0.61655269534E+02 -0.87572130053E+00  0.45187323172E+01  0.62005226319E+02  0.47000000000E+01 0. -1.
        -11    1    4    4    0    0  0.54906021477E+02 -0.85029013925E+01 -0.56762070413E+01  0.55849707724E+02  0.00000000000E+00 0.  1.
         11    1    4    4    0    0  0.96530373342E+01 -0.28999901150E+02 -0.86835173571E+02  0.92057171179E+02  0.00000000000E+00 0. -1.
<mgrwt>
<rscale>  0 0.13738670E+03</rscale>
<asrwt>0</asrwt>
<pdfrwt beam="2">  1        2 0.40842477E-01 0.14560823E+03</pdfrwt>
<pdfrwt beam="1">  1       -2 0.98746650E-02 0.14560823E+03</pdfrwt>
<totfact> 0.80660267E+03</totfact>
</mgrwt>
</event>
<event>
 8    1  0.1154424E-005  0.2449511E+03  0.7546771E-02  0.1119163E+00
          1   -1    0    0  501    0  0.00000000000E+00  0.00000000000E+00  0.10861979758E+04  0.10861979758E+04  0.00000000000E+00 0. -1.
         -1   -1    0    0    0  501 -0.00000000000E+00 -0.00000000000E+00 -0.75384536753E+02  0.75384536753E+02  0.00000000000E+00 0.  1.
         23    2    1    2    0    0 -0.46434476394E+02 -0.20547820392E+03  0.19191507730E+03  0.31117911239E+03  0.12499436069E+03 0.  0.
         23    2    1    2    0    0  0.46434476394E+02  0.20547820392E+03  0.81889836172E+03  0.85040340014E+03  0.90630917798E+02 0.  0.
          5    1    3    3  502    0 -0.44709408352E+02 -0.56094182896E+02  0.52938616663E+01  0.72080534968E+02  0.47000000000E+01 0. -1.
         -5    1    3    3    0  502 -0.17250680424E+01 -0.14938402103E+03  0.18662121564E+03  0.23909857742E+03  0.47000000000E+01 0. -1.
        -11    1    4    4    0    0 -0.72429675122E+01  0.14753814620E+03  0.46950812300E+03  0.49219695521E+03  0.00000000000E+00 0.  1.
         11    1    4    4    0    0  0.53677443906E+02  0.57940057726E+02  0.34939023872E+03  0.35820644493E+03  0.00000000000E+00 0. -1.
<mgrwt>
<rscale>  0 0.24094832E+03</rscale>
<asrwt>0</asrwt>
<pdfrwt beam="1">  1        1 0.16710737E+00 0.24495110E+03</pdfrwt>
<pdfrwt beam="2">  1       -1 0.11597622E-01 0.24495110E+03</pdfrwt>
<totfact> 0.67069377E+02</totfact>
</mgrwt>
</event>
<event>
 8    1  0.1154424E-005  0.1349423E+03  0.7546771E-02  0.1230685E+00
          1   -1    0    0  501    0  0.00000000000E+00  0.00000000000E+00  0.55583018054E+02  0.55583018054E+02  0.00000000000E+00 0.  1.
         -1   -1    0    0    0  501 -0.00000000000E+00 -0.00000000000E+00 -0.28818392901E+03  0.28818392901E+03  0.00000000000E+00 0. -1.
         23    2    1    2    0    0 -0.26542283982E+02 -0.43349981087E+02 -0.17419734634E+03  0.22035004519E+03  0.12500285294E+03 0.  0.
         23    2    1    2    0    0  0.26542283982E+02  0.43349981087E+02 -0.58403564612E+02  0.12341690187E+03  0.96109529233E+02 0.  0.
          5    1    3    3  502    0 -0.21411854670E+01  0.43864202606E+02 -0.53320534137E+02  0.69237434283E+02  0.47000000000E+01 0.  1.
         -5    1    3    3    0  502 -0.24401098515E+02 -0.87214183693E+02 -0.12087681221E+03  0.15111261091E+03  0.47000000000E+01 0.  1.
        -11    1    4    4    0    0  0.52869008467E+02  0.18973740533E+02 -0.66078165093E+02  0.86726344257E+02  0.00000000000E+00 0. -1.
         11    1    4    4    0    0 -0.26326724486E+02  0.24376240554E+02  0.76746004811E+01  0.36690557617E+02  0.00000000000E+00 0.  1.
<mgrwt>
<rscale>  0 0.12784736E+03</rscale>
<asrwt>0</asrwt>
<pdfrwt beam="1">  1        1 0.85512333E-02 0.13494231E+03</pdfrwt>
<pdfrwt beam="2">  1       -1 0.44335990E-01 0.13494231E+03</pdfrwt>
<totfact> 0.39008026E+03</totfact>
</mgrwt>
</event>
<event>
 8    1  0.1154424E-005  0.1341806E+03  0.7546771E-02  0.1233992E+00
         -1   -1    0    0    0  501 -0.00000000000E+00  0.00000000000E+00  0.78520646597E+02  0.78520646597E+02  0.00000000000E+00 0.  1.
          1   -1    0    0  501    0  0.00000000000E+00 -0.00000000000E+00 -0.19706343836E+03  0.19706343836E+03  0.00000000000E+00 0. -1.
         23    2    1    2    0    0 -0.47963572852E+02  0.88449841758E+01 -0.25570201397E+02  0.13659526285E+03  0.12500277024E+03 0.  0.
         23    2    1    2    0    0  0.47963572852E+02 -0.88449841758E+01 -0.92972590361E+02  0.13898882210E+03  0.91078274273E+02 0.  0.
          5    1    3    3  502    0  0.14359667599E+02  0.36727639108E+02  0.28908645708E+02  0.49121475189E+02  0.47000000000E+01 0. -1.
         -5    1    3    3    0  502 -0.62323240451E+02 -0.27882654932E+02 -0.54478847105E+02  0.87473787664E+02  0.47000000000E+01 0. -1.
        -11    1    4    4    0    0  0.62494386984E+02  0.19219921025E+02 -0.38122321278E+02  0.75685303384E+02  0.00000000000E+00 0.  1.
         11    1    4    4    0    0 -0.14530814132E+02 -0.28064905201E+02 -0.54850269083E+02  0.63303518716E+02  0.00000000000E+00 0. -1.
<mgrwt>
<rscale>  0 0.12569214E+03</rscale>
<asrwt>0</asrwt>
<pdfrwt beam="2">  1        1 0.30317452E-01 0.13418059E+03</pdfrwt>
<pdfrwt beam="1">  1       -1 0.12080100E-01 0.13418059E+03</pdfrwt>
<totfact> 0.64394339E+03</totfact>
</mgrwt>
</event>
<event>
 8    1  0.1154424E-005  0.1403295E+03  0.7546771E-02  0.1224258E+00
         -2   -1    0    0    0  501 -0.00000000000E+00  0.00000000000E+00  0.48510852155E+03  0.48510852155E+03  0.00000000000E+00 0.  1.
          2   -1    0    0  501    0  0.00000000000E+00 -0.00000000000E+00 -0.34282190485E+02  0.34282190485E+02  0.00000000000E+00 0. -1.
         23    2    1    2    0    0 -0.57979155168E+02  0.26579902027E+02  0.31103596801E+03  0.34122681755E+03  0.12499717594E+03 0.  0.
         23    2    1    2    0    0  0.57979155168E+02 -0.26579902027E+02  0.13979036306E+03  0.17816389449E+03  0.90182892339E+02 0.  0.
          5    1    3    3  502    0 -0.20340317839E+02  0.73346564635E+02  0.13335794865E+03  0.15362252290E+03  0.47000000000E+01 0. -1.
         -5    1    3    3    0  502 -0.37638837329E+02 -0.46766662608E+02  0.17767801936E+03  0.18760429465E+03  0.47000000000E+01 0. -1.
        -11    1    4    4    0    0  0.48899100847E+02 -0.41787080318E+01  0.14530676381E+03  0.15337092056E+03  0.00000000000E+00 0.  1.
         11    1    4    4    0    0  0.90800543206E+01 -0.22401193996E+02 -0.55164007555E+01  0.24792973928E+02  0.00000000000E+00 0. -1.
<mgrwt>
<rscale>  0 0.13217864E+03</rscale>
<asrwt>0</asrwt>
<pdfrwt beam="2">  1        2 0.52741835E-02 0.14032950E+03</pdfrwt>
<pdfrwt beam="1">  1       -2 0.74632075E-01 0.14032950E+03</pdfrwt>
<totfact> 0.23371112E+03</totfact>
</mgrwt>
</event>
<event>
 8    1  0.1154424E-005  0.1268985E+03  0.7546771E-02  0.1245536E+00
          1   -1    0    0  501    0  0.00000000000E+00  0.00000000000E+00  0.13403449877E+03  0.13403449877E+03  0.00000000000E+00 0. -1.
         -1   -1    0    0    0  501 -0.00000000000E+00 -0.00000000000E+00 -0.95403449342E+02  0.95403449342E+02  0.00000000000E+00 0.  1.
         23    2    1    2    0    0 -0.13118197216E+02  0.17563759168E+02  0.44907437543E+01  0.12697796821E+03  0.12499065924E+03 0.  0.
         23    2    1    2    0    0  0.13118197216E+02 -0.17563759168E+02  0.34140305675E+02  0.10245997991E+03  0.94084612326E+02 0.  0.
          5    1    3    3  502    0 -0.55999112058E+02  0.29925188140E+02  0.35058913222E+02  0.72681736583E+02  0.47000000000E+01 0.  1.
         -5    1    3    3    0  502  0.42880914841E+02 -0.12361428973E+02 -0.30568169468E+02  0.54296231623E+02  0.47000000000E+01 0.  1.
        -11    1    4    4    0    0 -0.35141702690E+02 -0.25885738886E+02  0.30710171184E+02  0.53367830758E+02  0.00000000000E+00 0. -1.
         11    1    4    4    0    0  0.48259899906E+02  0.83219797187E+01  0.34301344909E+01  0.49092149149E+02  0.00000000000E+00 0.  1.
<mgrwt>
<rscale>  0 0.11853378E+03</rscale>
<asrwt>0</asrwt>
<pdfrwt beam="1">  1        1 0.20620692E-01 0.12689853E+03</pdfrwt>
<pdfrwt beam="2">  1       -1 0.14677454E-01 0.12689853E+03</pdfrwt>
<totfact> 0.76858820E+03</totfact>
</mgrwt>
</event>
<event>
 8    1  0.1154424E-005  0.1347351E+03  0.7546771E-02  0.1231211E+00
         -1   -1    0    0    0  501 -0.00000000000E+00  0.00000000000E+00  0.45505884783E+03  0.45505884783E+03  0.00000000000E+00 0.  1.
          1   -1    0    0  501    0  0.00000000000E+00 -0.00000000000E+00 -0.32541308483E+02  0.32541308483E+02  0.00000000000E+00 0. -1.
         23    2    1    2    0    0  0.42674960584E+02 -0.26591425218E+02  0.25128289921E+03  0.28512567754E+03  0.12500120159E+03 0.  0.
         23    2    1    2    0    0 -0.42674960584E+02  0.26591425218E+02  0.17123464013E+03  0.20247447877E+03  0.95636585138E+02 0.  0.
          5    1    3    3  502    0  0.31275913859E+02  0.13295633606E+02  0.23922130079E+03  0.24166894176E+03  0.47000000000E+01 0. -1.
         -5    1    3    3    0  502  0.11399046725E+02 -0.39887058824E+02  0.12061598423E+02  0.43456735777E+02  0.47000000000E+01 0. -1.
        -11    1    4    4    0    0  0.11076690052E+02 -0.20107388160E+02  0.96728680462E+02  0.99415480410E+02  0.00000000000E+00 0.  1.
         11    1    4    4    0    0 -0.53751650636E+02  0.46698813378E+02  0.74505959668E+02  0.10305899836E+03  0.00000000000E+00 0. -1.
<mgrwt>
<rscale>  0 0.12750169E+03</rscale>
<asrwt>0</asrwt>
<pdfrwt beam="2">  1        1 0.50063555E-02 0.13473513E+03</pdfrwt>
<pdfrwt beam="1">  1       -1 0.70009049E-01 0.13473513E+03</pdfrwt>
<totfact> 0.34226716E+03</totfact>
</mgrwt>
</event>
<event>
 8    1  0.1154424E-005  0.1111343E+03  0.7546771E-02  0.1266142E+00
         -4   -1    0    0    0  501 -0.00000000000E+00  0.00000000000E+00  0.80679914402E+02  0.80679914402E+02  0.00000000000E+00 0.  1.
          4   -1    0    0  501    0  0.00000000000E+00 -0.00000000000E+00 -0.16386425517E+03  0.16386425517E+03  0.00000000000E+00 0. -1.
         23    2    1    2    0    0 -0.10305912697E+02  0.12187178292E+01  0.92551960767E+01  0.11151898435E+03  0.11064866970E+03 0.  0.
         23    2    1    2    0    0  0.10305912697E+02 -0.12187178292E+01 -0.92439536840E+02  0.13302518521E+03  0.95094346942E+02 0.  0.
          5    1    3    3  502    0  0.22287809473E+00 -0.32928092532E+02 -0.39020469403E+02  0.51273735820E+02  0.47000000000E+01 0. -1.
         -5    1    3    3    0  502 -0.10528790792E+02  0.34146810362E+02  0.48275665480E+02  0.60245248534E+02  0.47000000000E+01 0.  1.
        -11    1    4    4    0    0  0.42516979331E+02  0.29015487799E+02 -0.48934126368E+02  0.71022114775E+02  0.00000000000E+00 0.  1.
         11    1    4    4    0    0 -0.32211066634E+02 -0.30234205628E+02 -0.43505410471E+02  0.62003070439E+02  0.00000000000E+00 0. -1.
<mgrwt>
<rscale>  0 0.10704524E+03</rscale>
<asrwt>0</asrwt>
<pdfrwt beam="2">  1        4 0.25209885E-01 0.11113427E+03</pdfrwt>
<pdfrwt beam="1">  1       -4 0.12412295E-01 0.11113427E+03</pdfrwt>
<totfact> 0.12190789E+03</totfact>
</mgrwt>
</event>
<event>
 8    1  0.1154424E-005  0.1640835E+03  0.7546771E-02  0.1186643E+00
         -2   -1    0    0    0  501 -0.00000000000E+00  0.00000000000E+00  0.53519906540E+02  0.53519906540E+02  0.00000000000E+00 0. -1.
          2   -1    0    0  501    0  0.00000000000E+00 -0.00000000000E+00 -0.47639992224E+03  0.47639992224E+03  0.00000000000E+00 0.  1.
         23    2    1    2    0    0  0.47975924192E+02 -0.94835361632E+02 -0.21532801649E+03  0.27072040602E+03  0.12501179318E+03 0.  0.
         23    2    1    2    0    0 -0.47975924192E+02  0.94835361632E+02 -0.20755199921E+03  0.25919942276E+03  0.11318601178E+03 0.  0.
          5    1    3    3  502    0 -0.16921924610E+02 -0.65647601394E+02 -0.34237380565E+02  0.76093674699E+02  0.47000000000E+01 0.  1.
         -5    1    3    3    0  502  0.64897848801E+02 -0.29187760238E+02 -0.18109063592E+03  0.19462673132E+03  0.47000000000E+01 0.  1.
        -11    1    4    4    0    0 -0.25070290829E+02  0.98747425358E+02 -0.79967151209E+02  0.12951570858E+03  0.00000000000E+00 0. -1.
         11    1    4    4    0    0 -0.22905633362E+02 -0.39120637263E+01 -0.12758484800E+03  0.12968371418E+03  0.00000000000E+00 0.  1.
<mgrwt>
<rscale>  0 0.16183237E+03</rscale>
<asrwt>0</asrwt>
<pdfrwt beam="2">  1        2 0.73292296E-01 0.16408347E+03</pdfrwt>
<pdfrwt beam="1">  1       -2 0.82338317E-02 0.16408347E+03</pdfrwt>
<totfact> 0.57683835E+03</totfact>
</mgrwt>
</event>
<event>
 8    1  0.1154424E-005  0.1340446E+03  0.7546771E-02  0.1232135E+00
          1   -1    0    0  501    0  0.00000000000E+00  0.00000000000E+00  0.20339750570E+03  0.20339750570E+03  0.00000000000E+00 0. -1.
         -1   -1    0    0    0  501 -0.00000000000E+00 -0.00000000000E+00 -0.73558843424E+02  0.73558843424E+02  0.00000000000E+00 0.  1.
         23    2    1    2    0    0  0.47730315066E+02  0.81009893268E+01  0.50586001344E+02  0.14327206632E+03  0.12499652976E+03 0.  0.
         23    2    1    2    0    0 -0.47730315066E+02 -0.81009893268E+01  0.79252660933E+02  0.13368428281E+03  0.96159732738E+02 0.  0.
          5    1    3    3  502    0  0.71156780875E+02 -0.34042167599E+02  0.91968008918E+01  0.79553930047E+02  0.47000000000E+01 0.  1.
         -5    1    3    3    0  502 -0.23426465809E+02  0.42143156925E+02  0.41389200452E+02  0.63718136272E+02  0.47000000000E+01 0.  1.
        -11    1    4    4    0    0 -0.50345372065E+02  0.33493722157E+02  0.25396702041E+02  0.65585656869E+02  0.00000000000E+00 0.  1.
         11    1    4    4    0    0  0.26150569986E+01 -0.41594711484E+02  0.53855958892E+02  0.68098625938E+02  0.00000000000E+00 0. -1.
<mgrwt>
<rscale>  0 0.12689650E+03</rscale>
<asrwt>0</asrwt>
<pdfrwt beam="1">  1        1 0.31291924E-01 0.13404455E+03</pdfrwt>
<pdfrwt beam="2">  1       -1 0.11316745E-01 0.13404455E+03</pdfrwt>
<totfact> 0.68454963E+03</totfact>
</mgrwt>
</event>
<event>
 8    1  0.1154424E-005  0.1471205E+03  0.7546771E-02  0.1213600E+00
          1   -1    0    0  501    0  0.00000000000E+00  0.00000000000E+00  0.49255584472E+02  0.49255584472E+02  0.00000000000E+00 0. -1.
         -1   -1    0    0    0  501 -0.00000000000E+00 -0.00000000000E+00 -0.36330665933E+03  0.36330665933E+03  0.00000000000E+00 0.  1.
         23    2    1    2    0    0 -0.11728859313E+02  0.76703820072E+02 -0.18514868831E+03  0.23648354609E+03  0.12499355437E+03 0.  0.
         23    2    1    2    0    0  0.11728859313E+02 -0.76703820072E+02 -0.12890238655E+03  0.17607869771E+03  0.91470434435E+02 0.  0.
          5    1    3    3  502    0 -0.19649834021E+02  0.35312350175E+02  0.56099761231E+01  0.41068721481E+02  0.47000000000E+01 0.  1.
         -5    1    3    3    0  502  0.79209747074E+01  0.41391469897E+02 -0.19075866443E+03  0.19541482461E+03  0.47000000000E+01 0.  1.
        -11    1    4    4    0    0  0.25898206511E+02  0.12013707136E+01 -0.13680953651E+01  0.25962127744E+02  0.00000000000E+00 0. -1.
         11    1    4    4    0    0 -0.14169347198E+02 -0.77905190786E+02 -0.12753429118E+03  0.15011656997E+03  0.00000000000E+00 0.  1.
<mgrwt>
<rscale>  0 0.13979912E+03</rscale>
<asrwt>0</asrwt>
<pdfrwt beam="1">  1        1 0.75777824E-02 0.14712046E+03</pdfrwt>
<pdfrwt beam="2">  1       -1 0.55893331E-01 0.14712046E+03</pdfrwt>
<totfact> 0.30196505E+03</totfact>
</mgrwt>
</event>
<event>
 7    1  0.1154424E-005  0.2192748E+03  0.7546771E-02  0.1171434E+00
          1   -1    0    0  501    0  0.00000000000E+00  0.00000000000E+00  0.67779394902E+03  0.67779394902E+03  0.00000000000E+00 0. -1.
         -1   -1    0    0    0  501 -0.00000000000E+00 -0.00000000000E+00 -0.37550491356E+02  0.37550491356E+02  0.00000000000E+00 0.  1.
         23    2    1    2    0    0  0.73062097098E+01  0.45565849660E+01  0.26902701151E+03  0.28420285495E+03  0.91222731114E+02 0.  0.
          5    1    1    2  502    0 -0.22833578309E+02 -0.10689121890E+03  0.24148771065E+03  0.26511414405E+03  0.47000000000E+01 0. -1.
         -5    1    1    2    0  502  0.15527368600E+02  0.10233463393E+03  0.12972873550E+03  0.16602744138E+03  0.47000000000E+01 0.  1.
        -11    1    3    3    0    0  0.45519926685E+02  0.20807304460E+02  0.14222804391E+03  0.15077739923E+03  0.00000000000E+00 0.  1.
         11    1    3    3    0    0 -0.38213716975E+02 -0.16250719494E+02  0.12679896760E+03  0.13342545571E+03  0.00000000000E+00 0. -1.
<mgrwt>
<rscale>  0 0.17629857E+03</rscale>
<asrwt>0</asrwt>
<pdfrwt beam="1">  1        1 0.10427598E+00 0.21927475E+03</pdfrwt>
<pdfrwt beam="2">  1       -1 0.57769992E-02 0.21927475E+03</pdfrwt>
<totfact> 0.41408323E+03</totfact>
</mgrwt>
</event>
<event>
 8    1  0.1154424E-005  0.1870096E+03  0.7546771E-02  0.1166107E+00
         -2   -1    0    0    0  501 -0.00000000000E+00  0.00000000000E+00  0.65237832153E+03  0.65237832153E+03  0.00000000000E+00 0.  1.
          2   -1    0    0  501    0  0.00000000000E+00 -0.00000000000E+00 -0.55378238236E+02  0.55378238236E+02  0.00000000000E+00 0. -1.
         23    2    1    2    0    0 -0.13063612416E+03  0.47770134280E+02  0.44223345342E+03  0.48014896242E+03  0.12499926449E+03 0.  0.
         23    2    1    2    0    0  0.13063612416E+03 -0.47770134280E+02  0.15476662987E+03  0.22760759735E+03  0.92221071262E+02 0.  0.
          5    1    3    3  502    0 -0.41055304978E+02  0.81250812272E+02  0.22375612314E+03  0.24161151712E+03  0.47000000000E+01 0. -1.
         -5    1    3    3    0  502 -0.89580819178E+02 -0.33480677992E+02  0.21847733028E+03  0.23853744530E+03  0.47000000000E+01 0. -1.
        -11    1    4    4    0    0  0.28492299923E+02 -0.53383219423E+02  0.82700229289E+02  0.10247393422E+03  0.00000000000E+00 0. -1.
         11    1    4    4    0    0  0.10214382423E+03  0.56130851429E+01  0.72066400583E+02  0.12513366312E+03  0.00000000000E+00 0.  1.
<mgrwt>
<rscale>  0 0.18176322E+03</rscale>
<asrwt>0</asrwt>
<pdfrwt beam="2">  1        2 0.85197294E-02 0.18700962E+03</pdfrwt>
<pdfrwt beam="1">  1       -2 0.10036589E+00 0.18700962E+03</pdfrwt>
<totfact> 0.66077303E+02</totfact>
</mgrwt>
</event>
<event>
 8    1  0.1154424E-005  0.1348844E+03  0.7546771E-02  0.1233353E+00
          2   -1    0    0  501    0  0.00000000000E+00  0.00000000000E+00  0.66963483896E+02  0.66963483896E+02  0.00000000000E+00 0. -1.
         -2   -1    0    0    0  501 -0.00000000000E+00 -0.00000000000E+00 -0.21386900078E+03  0.21386900078E+03  0.00000000000E+00 0.  1.
         23    2    1    2    0    0  0.14046423173E+02  0.48706553782E+02 -0.98258467876E+02  0.16687881888E+03  0.12499673315E+03 0.  0.
         23    2    1    2    0    0 -0.14046423173E+02 -0.48706553782E+02 -0.48647049011E+02  0.11395366579E+03  0.89717736180E+02 0.  0.
          5    1    3    3  502    0  0.40423846815E+02  0.77360246191E+02 -0.38777891818E+02  0.95626931227E+02  0.47000000000E+01 0.  1.
         -5    1    3    3    0  502 -0.26377423642E+02 -0.28653692409E+02 -0.59480576058E+02  0.71251887658E+02  0.47000000000E+01 0.  1.
        -11    1    4    4    0    0  0.25632995653E+02 -0.35194473261E+02 -0.56476998471E+02  0.71311659429E+02  0.00000000000E+00 0.  1.
         11    1    4    4    0    0 -0.39679418825E+02 -0.13512080521E+02  0.78299494599E+01  0.42642006365E+02  0.00000000000E+00 0. -1.
<mgrwt>
<rscale>  0 0.12610472E+03</rscale>
<asrwt>0</asrwt>
<pdfrwt beam="1">  1        2 0.10302074E-01 0.13488445E+03</pdfrwt>
<pdfrwt beam="2">  1       -2 0.32902923E-01 0.13488445E+03</pdfrwt>
<totfact> 0.50596300E+03</totfact>
</mgrwt>
</event>
<event>
 8    1  0.1154424E-005  0.1402124E+03  0.7546771E-02  0.1224289E+00
         -2   -1    0    0    0  501 -0.00000000000E+00  0.00000000000E+00  0.34673114524E+02  0.34673114524E+02  0.00000000000E+00 0.  1.
          2   -1    0    0  501    0  0.00000000000E+00 -0.00000000000E+00 -0.54133385084E+03  0.54133385084E+03  0.00000000000E+00 0. -1.
         23    2    1    2    0    0 -0.50673095084E+02  0.38294978446E+02 -0.16320992163E+03  0.21516739344E+03  0.12500104297E+03 0.  0.
         23    2    1    2    0    0  0.50673095084E+02 -0.38294978446E+02 -0.34345081469E+03  0.36083957192E+03  0.90622660617E+02 0.  0.
          5    1    3    3  502    0 -0.16103720260E+02  0.76952945139E+02 -0.13407849245E+03  0.15549989617E+03  0.47000000000E+01 0. -1.
         -5    1    3    3    0  502 -0.34569374824E+02 -0.38657966693E+02 -0.29131429185E+02  0.59667497274E+02  0.47000000000E+01 0. -1.
        -11    1    4    4    0    0  0.60490430300E+02  0.81256488735E+01 -0.22778797573E+03  0.23582298492E+03  0.00000000000E+00 0.  1.
         11    1    4    4    0    0 -0.98173352158E+01 -0.46420627319E+02 -0.11566283895E+03  0.12501658701E+03  0.00000000000E+00 0. -1.
<mgrwt>
<rscale>  0 0.13215769E+03</rscale>
<asrwt>0</asrwt>
<pdfrwt beam="2">  1        2 0.83282134E-01 0.14021244E+03</pdfrwt>
<pdfrwt beam="1">  1       -2 0.53343251E-02 0.14021244E+03</pdfrwt>
<totfact> 0.96407927E+03</totfact>
</mgrwt>
</event>
<event>
 8    1  0.1154424E-005  0.1346697E+03  0.7546771E-02  0.1228639E+00
         -1   -1    0    0    0  501 -0.00000000000E+00  0.00000000000E+00  0.24252672786E+02  0.24252672786E+02  0.00000000000E+00 0. -1.
          1   -1    0    0  501    0  0.00000000000E+00 -0.00000000000E+00 -0.64455346001E+03  0.64455346001E+03  0.00000000000E+00 0.  1.
         23    2    1    2    0    0 -0.48962081213E+02 -0.92431972946E+01 -0.30186083980E+03  0.33053881359E+03  0.12511282344E+03 0.  0.
         23    2    1    2    0    0  0.48962081213E+02  0.92431972946E+01 -0.31843994742E+03  0.33826731920E+03  0.10265503903E+03 0.  0.
          5    1    3    3  502    0 -0.69836584874E+02  0.25649554926E+02 -0.26557669411E+03  0.27584074882E+03  0.47000000000E+01 0. -1.
         -5    1    3    3    0  502  0.20874503661E+02 -0.34892752221E+02 -0.36284145690E+02  0.54698064765E+02  0.47000000000E+01 0. -1.
        -11    1    4    4    0    0  0.68152161903E+02  0.13748198215E+02 -0.30841204467E+03  0.31615141851E+03  0.00000000000E+00 0.  1.
         11    1    4    4    0    0 -0.19190080690E+02 -0.45050009203E+01 -0.10027902747E+02  0.22115900698E+02  0.00000000000E+00 0. -1.
<mgrwt>
<rscale>  0 0.12920584E+03</rscale>
<asrwt>0</asrwt>
<pdfrwt beam="2">  1        1 0.99162063E-01 0.13466975E+03</pdfrwt>
<pdfrwt beam="1">  1       -1 0.37311807E-02 0.13466975E+03</pdfrwt>
<totfact> 0.83146716E+03</totfact>
</mgrwt>
</event>
<event>
 8    1  0.1154424E-005  0.2381342E+03  0.7546771E-02  0.1123217E+00
         -1   -1    0    0    0  501 -0.00000000000E+00  0.00000000000E+00  0.25379530932E+02  0.25379530932E+02  0.00000000000E+00 0.  1.
          1   -1    0    0  501    0  0.00000000000E+00 -0.00000000000E+00 -0.21393438235E+04  0.21393438235E+04  0.00000000000E+00 0. -1.
         23    2    1    2    0    0  0.26822802193E+02  0.20093643594E+03 -0.11931827118E+04  0.12167139729E+04  0.12495196702E+03 0.  0.
         23    2    1    2    0    0 -0.26822802193E+02 -0.20093643594E+03 -0.92078158075E+03  0.94800938153E+03  0.98935100023E+02 0.  0.
          5    1    3    3  502    0  0.33414633782E+02  0.16592294406E+03 -0.11401371374E+04  0.11526412032E+04  0.47000000000E+01 0. -1.
         -5    1    3    3    0  502 -0.65918315892E+01  0.35013491886E+02 -0.53045574387E+02  0.64072769722E+02  0.47000000000E+01 0. -1.
        -11    1    4    4    0    0 -0.47777061394E+02 -0.17968542661E+03 -0.86488645305E+03  0.88464573520E+03  0.00000000000E+00 0. -1.
         11    1    4    4    0    0  0.20954259201E+02 -0.21251009329E+02 -0.55895127694E+02  0.63363646329E+02  0.00000000000E+00 0.  1.
<mgrwt>
<rscale>  0 0.23492975E+03</rscale>
<asrwt>0</asrwt>
<pdfrwt beam="2">  1        1 0.32912988E+00 0.23813422E+03</pdfrwt>
<pdfrwt beam="1">  1       -1 0.39045425E-02 0.23813422E+03</pdfrwt>
<totfact> 0.70082725E+02</totfact>
</mgrwt>
</event>
<event>
 8    1  0.1154424E-005  0.3660569E+03  0.7546771E-02  0.1057208E+00
         -3   -1    0    0    0  501 -0.00000000000E+00  0.00000000000E+00  0.82213574395E+03  0.82213574395E+03  0.00000000000E+00 0.  1.
          3   -1    0    0  501    0  0.00000000000E+00 -0.00000000000E+00 -0.20960943924E+03  0.20960943924E+03  0.00000000000E+00 0. -1.
         23    2    1    2    0    0  0.33401091991E+03  0.82523002384E+02  0.56421860108E+03  0.67256249867E+03  0.12499737704E+03 0.  0.
         23    2    1    2    0    0 -0.33401091991E+03 -0.82523002384E+02  0.48307703634E+02  0.35918268452E+03  0.91133013136E+02 0.  0.
          5    1    3    3  502    0  0.46858268510E+02  0.61319708711E+02  0.10230552683E+03  0.12823538835E+03  0.47000000000E+01 0. -1.
         -5    1    3    3    0  502  0.28715265140E+03  0.21203293673E+02  0.46191307425E+03  0.54432711032E+03  0.47000000000E+01 0. -1.
        -11    1    4    4    0    0 -0.63267405666E+02 -0.91533554895E+00 -0.23391102911E+02  0.67459218452E+02  0.00000000000E+00 0.  1.
         11    1    4    4    0    0 -0.27074351425E+03 -0.81607666835E+02  0.71698806544E+02  0.29172346607E+03  0.00000000000E+00 0. -1.
<mgrwt>
<rscale>  0 0.36349578E+03</rscale>
<asrwt>0</asrwt>
<pdfrwt beam="2">  1        3 0.32247606E-01 0.36605694E+03</pdfrwt>
<pdfrwt beam="1">  1       -3 0.12648242E+00 0.36605694E+03</pdfrwt>
<totfact> 0.12191364E+01</totfact>
</mgrwt>
</event>
<event>
 8    1  0.1154424E-005  0.1282329E+03  0.7546771E-02  0.1244054E+00
         -1   -1    0    0    0  501 -0.00000000000E+00  0.00000000000E+00  0.48289973138E+03  0.48289973138E+03  0.00000000000E+00 0.  1.
          1   -1    0    0  501    0  0.00000000000E+00 -0.00000000000E+00 -0.30411104049E+02  0.30411104049E+02  0.00000000000E+00 0. -1.
         23    2    1    2    0    0  0.28333608654E+02  0.56775569733E+01  0.34913516374E+03  0.37193955005E+03  0.12493453605E+03 0.  0.
         23    2    1    2    0    0 -0.28333608654E+02 -0.56775569733E+01  0.10335346360E+03  0.14137128539E+03  0.92026484567E+02 0.  0.
          5    1    3    3  502    0  0.29037923392E+02  0.57023924536E+02  0.26975446083E+03  0.27728052240E+03  0.47000000000E+01 0.  1.
         -5    1    3    3    0  502 -0.70431473763E+00 -0.51346367563E+02  0.79380702913E+02  0.94659027652E+02  0.47000000000E+01 0.  1.
        -11    1    4    4    0    0  0.30717246925E+02 -0.18674110634E+02  0.36474251263E+02  0.51211743495E+02  0.00000000000E+00 0.  1.
         11    1    4    4    0    0 -0.59050855579E+02  0.12996553660E+02  0.66879212333E+02  0.90159541890E+02  0.00000000000E+00 0. -1.
<mgrwt>
<rscale>  0 0.11942153E+03</rscale>
<asrwt>0</asrwt>
<pdfrwt beam="2">  1        1 0.46786317E-02 0.12823286E+03</pdfrwt>
<pdfrwt beam="1">  1       -1 0.74292261E-01 0.12823286E+03</pdfrwt>
<totfact> 0.33267024E+03</totfact>
</mgrwt>
</event>
<event>
 6    1  0.1154424E-005  0.1679722E+03  0.7546771E-02  0.1250818E+00
         -4   -1    0    0    0  501 -0.00000000000E+00  0.00000000000E+00  0.30331210917E+03  0.30331210917E+03  0.00000000000E+00 0.  1.
          4   -1    0    0  501    0  0.00000000000E+00 -0.00000000000E+00 -0.57089715514E+02  0.57089715514E+02  0.00000000000E+00 0. -1.
          5    1    1    2  502    0 -0.46477692741E+02 -0.36116458755E+00  0.26285127299E+01  0.46790014336E+02  0.47000000000E+01 0. -1.
         -5    1    1    2    0  502  0.45039125963E+02  0.10710136075E+02  0.26594245700E+03  0.26998279633E+03  0.47000000000E+01 0.  1.
        -11    1    1    2    0    0 -0.12107854831E+02 -0.17652137109E+02 -0.17005046895E+02  0.27338063447E+02  0.00000000000E+00 0. -1.
         11    1    1    2    0    0  0.13546421609E+02  0.73031656224E+01 -0.53435291718E+01  0.16290950572E+02  0.00000000000E+00 0.  1.
<mgrwt>
<rscale>  0 0.11543835E+03</rscale>
<asrwt>0</asrwt>
<pdfrwt beam="2">  1        4 0.87830333E-02 0.16797216E+03</pdfrwt>
<pdfrwt beam="1">  1       -4 0.46663401E-01 0.16797216E+03</pdfrwt>
<totfact> 0.72783121E+02</totfact>
</mgrwt>
</event>
<event>
 8    1  0.1154424E-005  0.1225984E+03  0.7546771E-02  0.1249242E+00
         -1   -1    0    0    0  501 -0.00000000000E+00  0.00000000000E+00  0.34226876851E+03  0.34226876851E+03  0.00000000000E+00 0.  1.
          1   -1    0    0  501    0  0.00000000000E+00 -0.00000000000E+00 -0.39406195408E+02  0.39406195408E+02  0.00000000000E+00 0. -1.
         23    2    1    2    0    0 -0.13763612820E+02  0.36535210110E+02  0.22156085664E+03  0.25321843402E+03  0.11621576277E+03 0.  0.
         23    2    1    2    0    0  0.13763612820E+02 -0.36535210110E+02  0.81301716467E+02  0.12845652990E+03  0.91470499935E+02 0.  0.
          5    1    3    3  502    0  0.50226313096E+02  0.16865189504E+02  0.74195503944E+02  0.91291729908E+02  0.47000000000E+01 0. -1.
         -5    1    3    3    0  502 -0.63989925917E+02  0.19670020607E+02  0.14736535269E+03  0.16192670411E+03  0.47000000000E+01 0.  1.
        -11    1    4    4    0    0 -0.32247340652E+02 -0.41608191459E+02  0.36670234812E+02  0.64154802601E+02  0.00000000000E+00 0.  1.
         11    1    4    4    0    0  0.46010953472E+02  0.50729813488E+01  0.44631481654E+02  0.64301727301E+02  0.00000000000E+00 0. -1.
<mgrwt>
<rscale>  0 0.11635075E+03</rscale>
<asrwt>0</asrwt>
<pdfrwt beam="2">  1        1 0.60624918E-02 0.12259838E+03</pdfrwt>
<pdfrwt beam="1">  1       -1 0.52656732E-01 0.12259838E+03</pdfrwt>
<totfact> 0.45093554E+03</totfact>
</mgrwt>
</event>
<event>
 8    1  0.1154424E-005  0.1638538E+03  0.7546771E-02  0.1191302E+00
          4   -1    0    0  501    0  0.00000000000E+00  0.00000000000E+00  0.59847835771E+03  0.59847835771E+03  0.00000000000E+00 0.  1.
         -4   -1    0    0    0  501 -0.00000000000E+00 -0.00000000000E+00 -0.42656728465E+02  0.42656728465E+02  0.00000000000E+00 0. -1.
         23    2    1    2    0    0 -0.66035692377E+02 -0.82839762559E+02  0.20014582274E+03  0.25866277480E+03  0.12499976711E+03 0.  0.
         23    2    1    2    0    0  0.66035692377E+02  0.82839762559E+02  0.35567580651E+03  0.38247231138E+03  0.92502165961E+02 0.  0.
          5    1    3    3  502    0 -0.10099797417E+03 -0.40941488966E+02  0.13299792302E+03  0.17200969110E+03  0.47000000000E+01 0. -1.
         -5    1    3    3    0  502  0.34962281789E+02 -0.41898273593E+02  0.67147899726E+02  0.86653083705E+02  0.47000000000E+01 0. -1.
        -11    1    4    4    0    0  0.84284906869E+01  0.56780086493E+02  0.73285183364E+02  0.93089933817E+02  0.00000000000E+00 0. -1.
         11    1    4    4    0    0  0.57607201690E+02  0.26059676066E+02  0.28239062315E+03  0.28938237756E+03  0.00000000000E+00 0.  1.
<mgrwt>
<rscale>  0 0.15771397E+03</rscale>
<asrwt>0</asrwt>
<pdfrwt beam="1">  1        4 0.92073588E-01 0.16385384E+03</pdfrwt>
<pdfrwt beam="2">  1       -4 0.65625740E-02 0.16385384E+03</pdfrwt>
<totfact> 0.27344181E+02</totfact>
</mgrwt>
</event>
<event>
 8    1  0.1154424E-005  0.1495228E+03  0.7546771E-02  0.1211609E+00
          2   -1    0    0  501    0  0.00000000000E+00  0.00000000000E+00  0.98016370929E+03  0.98016370929E+03  0.00000000000E+00 0. -1.
         -2   -1    0    0    0  501 -0.00000000000E+00 -0.00000000000E+00 -0.18440379874E+02  0.18440379874E+02  0.00000000000E+00 0.  1.
         23    2    1    2    0    0 -0.75984379202E+02  0.30964354865E+02  0.55220727940E+03  0.57209261171E+03  0.12499863920E+03 0.  0.
         23    2    1    2    0    0  0.75984379202E+02 -0.30964354865E+02  0.40951605001E+03  0.42651147745E+03  0.86465183866E+02 0.  0.
          5    1    3    3  502    0  0.32297450090E+02  0.14353193225E+02  0.84691354946E+02  0.91890451303E+02  0.47000000000E+01 0. -1.
         -5    1    3    3    0  502 -0.10828182929E+03  0.16611161640E+02  0.46751592445E+03  0.48020216041E+03  0.47000000000E+01 0. -1.
        -11    1    4    4    0    0  0.18449781900E+02  0.25858184580E+02  0.18869175224E+03  0.19134685136E+03  0.00000000000E+00 0. -1.
         11    1    4    4    0    0  0.57534597302E+02 -0.56822539445E+02  0.22082429777E+03  0.23516462608E+03  0.00000000000E+00 0.  1.
<mgrwt>
<rscale>  0 0.14128619E+03</rscale>
<asrwt>0</asrwt>
<pdfrwt beam="1">  1        2 0.15079438E+00 0.14952283E+03</pdfrwt>
<pdfrwt beam="2">  1       -2 0.28369823E-02 0.14952283E+03</pdfrwt>
<totfact> 0.12020325E+04</totfact>
</mgrwt>
</event>
<event>
 8    1  0.1154424E-005  0.1891430E+03  0.7546771E-02  0.1164630E+00
          2   -1    0    0  501    0  0.00000000000E+00  0.00000000000E+00  0.23257288571E+03  0.23257288571E+03  0.00000000000E+00 0.  1.
         -2   -1    0    0    0  501 -0.00000000000E+00 -0.00000000000E+00 -0.13876938570E+03  0.13876938570E+03  0.00000000000E+00 0. -1.
         23    2    1    2    0    0 -0.88118063213E+02 -0.11128242463E+03  0.74686951026E+02  0.20335490688E+03  0.12500602546E+03 0.  0.
         23    2    1    2    0    0  0.88118063213E+02  0.11128242463E+03  0.19116548985E+02  0.16798736453E+03  0.87782350729E+02 0.  0.
          5    1    3    3  502    0 -0.74722344706E+02  0.13681921492E+01  0.21070294299E+02  0.77790411041E+02  0.47000000000E+01 0. -1.
         -5    1    3    3    0  502 -0.13395718508E+02 -0.11265061678E+03  0.53616656727E+02  0.12556449583E+03  0.47000000000E+01 0. -1.
        -11    1    4    4    0    0  0.46242855689E+02  0.13597082646E+02 -0.23320836680E+02  0.53545716749E+02  0.00000000000E+00 0. -1.
         11    1    4    4    0    0  0.41875207524E+02  0.97685341987E+02  0.42437385665E+02  0.11444164778E+03  0.00000000000E+00 0.  1.
<mgrwt>
<rscale>  0 0.18331765E+03</rscale>
<asrwt>0</asrwt>
<pdfrwt beam="1">  1        2 0.35780444E-01 0.18914301E+03</pdfrwt>
<pdfrwt beam="2">  1       -2 0.21349136E-01 0.18914301E+03</pdfrwt>
<totfact> 0.26640502E+03</totfact>
</mgrwt>
</event>
<event>
 7    1  0.1154424E-005  0.1766592E+03  0.7546771E-02  0.1200342E+00
         -2   -1    0    0    0  501 -0.00000000000E+00  0.00000000000E+00  0.26838099175E+02  0.26838099175E+02  0.00000000000E+00 0.  1.
          2   -1    0    0  501    0  0.00000000000E+00 -0.00000000000E+00 -0.67918707733E+03  0.67918707733E+03  0.00000000000E+00 0. -1.
         23    2    1    2    0    0  0.11369184860E+02  0.27564030604E+01 -0.25708234924E+03  0.27307694162E+03  0.91339069567E+02 0.  0.
          5    1    1    2  502    0  0.10954828411E+02 -0.32931617447E+02 -0.39352423841E+03  0.39507963237E+03  0.47000000000E+01 0. -1.
         -5    1    1    2    0  502 -0.22324013271E+02  0.30175214387E+02 -0.17423904955E+01  0.37868602515E+02  0.47000000000E+01 0.  1.
        -11    1    3    3    0    0 -0.89319415318E+01 -0.38400762588E+02 -0.68929255832E+02  0.79408062919E+02  0.00000000000E+00 0.  1.
         11    1    3    3    0    0  0.20301126392E+02  0.41157165649E+02 -0.18815309341E+03  0.19366887870E+03  0.00000000000E+00 0. -1.
<mgrwt>
<rscale>  0 0.15010654E+03</rscale>
<asrwt>0</asrwt>
<pdfrwt beam="2">  1        2 0.10449032E+00 0.17665918E+03</pdfrwt>
<pdfrwt beam="1">  1       -2 0.41289385E-02 0.17665918E+03</pdfrwt>
<totfact> 0.11076233E+04</totfact>
</mgrwt>
</event>
<event>
 8    1  0.1154424E-005  0.1310442E+03  0.7546771E-02  0.1242151E+00
          2   -1    0    0  501    0  0.00000000000E+00  0.00000000000E+00  0.52796606300E+03  0.52796606300E+03  0.00000000000E+00 0.  1.
         -2   -1    0    0    0  501 -0.00000000000E+00 -0.00000000000E+00 -0.23972666563E+02  0.23972666563E+02  0.00000000000E+00 0. -1.
         23    2    1    2    0    0  0.15518506183E+02  0.36175316371E+02  0.29845998851E+03  0.32596157744E+03  0.12499243048E+03 0.  0.
         23    2    1    2    0    0 -0.15518506183E+02 -0.36175316371E+02  0.20553340793E+03  0.22597715212E+03  0.85277276918E+02 0.  0.
          5    1    3    3  502    0 -0.17413929779E+02  0.34581099307E+02  0.28860682567E+03  0.29123029926E+03  0.47000000000E+01 0.  1.
         -5    1    3    3    0  502  0.32932435963E+02  0.15942170638E+01  0.98531628378E+01  0.34731278185E+02  0.47000000000E+01 0.  1.
        -11    1    4    4    0    0  0.32157917853E+02 -0.98239036812E+01  0.11956232713E+03  0.12420060721E+03  0.00000000000E+00 0.  1.
         11    1    4    4    0    0 -0.47676424036E+02 -0.26351412690E+02  0.85971080800E+02  0.10177654491E+03  0.00000000000E+00 0. -1.
<mgrwt>
<rscale>  0 0.12057503E+03</rscale>
<asrwt>0</asrwt>
<pdfrwt beam="1">  1        2 0.81225539E-01 0.13104421E+03</pdfrwt>
<pdfrwt beam="2">  1       -2 0.36881030E-02 0.13104421E+03</pdfrwt>
<totfact> 0.17112815E+04</totfact>
</mgrwt>
</event>
<event>
 8    1  0.1154424E-005  0.1313829E+03  0.7546771E-02  0.1241665E+00
          1   -1    0    0  501    0  0.00000000000E+00  0.00000000000E+00  0.45585909697E+03  0.45585909697E+03  0.00000000000E+00 0. -1.
         -1   -1    0    0    0  501 -0.00000000000E+00 -0.00000000000E+00 -0.27984265118E+02  0.27984265118E+02  0.00000000000E+00 0.  1.
         23    2    1    2    0    0 -0.18408957380E+01  0.40403424855E+02  0.23519590757E+03  0.26940411028E+03  0.12500253622E+03 0.  0.
         23    2    1    2    0    0  0.18408957380E+01 -0.40403424855E+02  0.19267892428E+03  0.21443925181E+03  0.84989406494E+02 0.  0.
          5    1    3    3  502    0  0.17507206124E+02  0.47808724968E+02  0.24180879836E+03  0.24715533863E+03  0.47000000000E+01 0.  1.
         -5    1    3    3    0  502 -0.19348101862E+02 -0.74053001123E+01 -0.66128907881E+01  0.22248771651E+02  0.47000000000E+01 0.  1.
        -11    1    4    4    0    0  0.19724228911E+02  0.12841686584E+02  0.14563788236E+02  0.27677753671E+02  0.00000000000E+00 0. -1.
         11    1    4    4    0    0 -0.17883333173E+02 -0.53245111440E+02  0.17811513605E+03  0.18676149814E+03  0.00000000000E+00 0.  1.
<mgrwt>
<rscale>  0 0.12087245E+03</rscale>
<asrwt>0</asrwt>
<pdfrwt beam="1">  1        1 0.70132163E-01 0.13138287E+03</pdfrwt>
<pdfrwt beam="2">  1       -1 0.43052719E-02 0.13138287E+03</pdfrwt>
<totfact> 0.10661668E+04</totfact>
</mgrwt>
</event>
<event>
 8    1  0.1154424E-005  0.2468030E+03  0.7546771E-02  0.1118052E+00
         -2   -1    0    0    0  501 -0.00000000000E+00  0.00000000000E+00  0.54450051590E+02  0.54450051590E+02  0.00000000000E+00 0.  1.
          2   -1    0    0  501    0  0.00000000000E+00 -0.00000000000E+00 -0.11070759580E+04  0.11070759580E+04  0.00000000000E+00 0. -1.
         23    2    1    2    0    0  0.67100957610E+01 -0.21268696822E+03 -0.40708781984E+03  0.47605906919E+03  0.12502388755E+03 0.  0.
         23    2    1    2    0    0 -0.67100957610E+01  0.21268696822E+03 -0.64553808654E+03  0.68546694038E+03  0.88683331772E+02 0.  0.
          5    1    3    3  502    0  0.20234842758E+02 -0.33409638466E+02 -0.19057312239E+03  0.19459151518E+03  0.47000000000E+01 0. -1.
         -5    1    3    3    0  502 -0.13524746997E+02 -0.17927732976E+03 -0.21651469746E+03  0.28146755401E+03  0.47000000000E+01 0. -1.
        -11    1    4    4    0    0  0.29113073108E+02  0.62026595564E+02 -0.12708420014E+03  0.14437888872E+03  0.00000000000E+00 0.  1.
         11    1    4    4    0    0 -0.35823168869E+02  0.15066037266E+03 -0.51845388641E+03  0.54108805166E+03  0.00000000000E+00 0. -1.
<mgrwt>
<rscale>  0 0.24263095E+03</rscale>
<asrwt>0</asrwt>
<pdfrwt beam="2">  1        2 0.17031938E+00 0.24680305E+03</pdfrwt>
<pdfrwt beam="1">  1       -2 0.83769308E-02 0.24680305E+03</pdfrwt>
<totfact> 0.19882476E+03</totfact>
</mgrwt>
</event>
<event>
 7    1  0.1154424E-005  0.2409480E+03  0.7546771E-02  0.1149374E+00
          2   -1    0    0  501    0  0.00000000000E+00  0.00000000000E+00  0.15246259338E+03  0.15246259338E+03  0.00000000000E+00 0. -1.
         -2   -1    0    0    0  501 -0.00000000000E+00 -0.00000000000E+00 -0.21355950474E+03  0.21355950474E+03  0.00000000000E+00 0.  1.
         23    2    1    2    0    0 -0.19048993691E+02  0.54678004418E+02  0.71490212093E+01  0.11559561301E+03  0.99793230814E+02 0.  0.
          5    1    1    2  502    0 -0.17903809949E+02 -0.17571176201E+02  0.84822738851E+02  0.88579228209E+02  0.47000000000E+01 0. -1.
         -5    1    1    2    0  502  0.36952803641E+02 -0.37106828217E+02 -0.15306867142E+03  0.16184725690E+03  0.47000000000E+01 0.  1.
        -11    1    3    3    0    0  0.27940526949E+02  0.18351219462E+02  0.36373428509E+02  0.49401078971E+02  0.00000000000E+00 0.  1.
         11    1    3    3    0    0 -0.46989520641E+02  0.36326784956E+02 -0.29224407300E+02  0.66194534044E+02  0.00000000000E+00 0. -1.
<mgrwt>
<rscale>  0 0.20043324E+03</rscale>
<asrwt>0</asrwt>
<pdfrwt beam="1">  1        2 0.23455784E-01 0.24094796E+03</pdfrwt>
<pdfrwt beam="2">  1       -2 0.32855308E-01 0.24094796E+03</pdfrwt>
<totfact> 0.19865009E+03</totfact>
</mgrwt>
</event>
<event>
 8    1  0.1371261E-005  0.1269276E+03  0.7546771E-02  0.1251884E+00
         -2   -1    0    0    0  501 -0.00000000000E+00  0.00000000000E+00  0.30951024933E+02  0.30951024933E+02  0.00000000000E+00 0. -1.
          2   -1    0    0  501    0  0.00000000000E+00 -0.00000000000E+00 -0.38139242957E+03  0.38139242957E+03  0.00000000000E+00 0.  1.
         23    2    1    2    0    0  0.24295382586E+01  0.21893342894E+02 -0.16355873222E+03  0.20703156667E+03  0.12500155835E+03 0.  0.
         23    2    1    2    0    0 -0.24295382586E+01 -0.21893342894E+02 -0.18688267241E+03  0.20531188784E+03  0.82113439336E+02 0.  0.
          5    1    3    3  502    0  0.55426212043E+02  0.36703399791E+02 -0.11765243125E+03  0.13521608305E+03  0.47000000000E+01 0.  1.
         -5    1    3    3    0  502 -0.52996673784E+02 -0.14810056897E+02 -0.45906300977E+02  0.71815483615E+02  0.47000000000E+01 0.  1.
        -11    1    4    4    0    0  0.64565083247E+01  0.11290673715E+02  0.21501447832E+01  0.13182903143E+02  0.00000000000E+00 0. -1.
         11    1    4    4    0    0 -0.88860465833E+01 -0.33184016609E+02 -0.18903281720E+03  0.19212898469E+03  0.00000000000E+00 0.  1.
<mgrwt>
<rscale>  0 0.11482674E+03</rscale>
<asrwt>0</asrwt>
<pdfrwt beam="2">  1        2 0.58675757E-01 0.12692758E+03</pdfrwt>
<pdfrwt beam="1">  1       -2 0.47616962E-02 0.12692758E+03</pdfrwt>
<totfact> 0.16588016E+04</totfact>
</mgrwt>
</event>
<event>
 7    1  0.1154424E-005  0.1557627E+03  0.7546771E-02  0.1218386E+00
         -1   -1    0    0    0  501 -0.00000000000E+00  0.00000000000E+00  0.14741634504E+02  0.14741634504E+02  0.00000000000E+00 0.  1.
          1   -1    0    0  501    0  0.00000000000E+00 -0.00000000000E+00 -0.10395439909E+04  0.10395439909E+04  0.00000000000E+00 0. -1.
         23    2    1    2    0    0 -0.27250999325E+00  0.24383925877E+02 -0.34777197877E+03  0.35956831021E+03  0.88030508287E+02 0.  0.
          5    1    1    2  502    0 -0.39483708577E+02 -0.27091900046E+02 -0.63422089673E+03  0.63604337127E+03  0.47000000000E+01 0. -1.
         -5    1    1    2    0  502  0.39756218571E+02  0.27079741694E+01 -0.42809480859E+02  0.58673943881E+02  0.47000000000E+01 0.  1.
        -11    1    3    3    0    0 -0.40200584204E+01  0.57561685680E+02 -0.20710003149E+03  0.21498821263E+03  0.00000000000E+00 0. -1.
         11    1    3    3    0    0  0.37475484271E+01 -0.33177759803E+02 -0.14067194728E+03  0.14458009758E+03  0.00000000000E+00 0.  1.
<mgrwt>
<rscale>  0 0.13630742E+03</rscale>
<asrwt>0</asrwt>
<pdfrwt beam="2">  1        1 0.15992981E+00 0.15576269E+03</pdfrwt>
<pdfrwt beam="1">  1       -1 0.22679442E-02 0.15576269E+03</pdfrwt>
<totfact> 0.83051330E+03</totfact>
</mgrwt>
</event>
<event>
 8    1  0.1154424E-005  0.1398681E+03  0.7546771E-02  0.1224910E+00
         -2   -1    0    0    0  501 -0.00000000000E+00  0.00000000000E+00  0.36696653734E+03  0.36696653734E+03  0.00000000000E+00 0.  1.
          2   -1    0    0  501    0  0.00000000000E+00 -0.00000000000E+00 -0.42553523185E+02  0.42553523185E+02  0.00000000000E+00 0. -1.
         23    2    1    2    0    0  0.59983178413E+02  0.18444723935E+02  0.17992003919E+03  0.22789101286E+03  0.12499961482E+03 0.  0.
         23    2    1    2    0    0 -0.59983178413E+02 -0.18444723935E+02  0.14449297496E+03  0.18162904766E+03  0.90402995573E+02 0.  0.
          5    1    3    3  502    0 -0.38192274253E+01 -0.17996664315E+02  0.14529309556E+03  0.14652863215E+03  0.47000000000E+01 0.  1.
         -5    1    3    3    0  502  0.63802405838E+02  0.36441388250E+02  0.34626943637E+02  0.81362380705E+02  0.47000000000E+01 0.  1.
        -11    1    4    4    0    0 -0.24865341283E+02  0.35464294414E+02  0.77252146499E+02  0.88565769427E+02  0.00000000000E+00 0.  1.
         11    1    4    4    0    0 -0.35117837130E+02 -0.53909018349E+02  0.67240828459E+02  0.93063278235E+02  0.00000000000E+00 0. -1.
<mgrwt>
<rscale>  0 0.13173042E+03</rscale>
<asrwt>0</asrwt>
<pdfrwt beam="2">  1        2 0.65466961E-02 0.13986813E+03</pdfrwt>
<pdfrwt beam="1">  1       -2 0.56456388E-01 0.13986813E+03</pdfrwt>
<totfact> 0.31685146E+03</totfact>
</mgrwt>
</event>
<event>
 8    1  0.1154424E-005  0.1328686E+03  0.7546771E-02  0.1237102E+00
          3   -1    0    0  501    0  0.00000000000E+00  0.00000000000E+00  0.46083961301E+02  0.46083961301E+02  0.00000000000E+00 0. -1.
         -3   -1    0    0    0  501 -0.00000000000E+00 -0.00000000000E+00 -0.31017517608E+03  0.31017517608E+03  0.00000000000E+00 0.  1.
         23    2    1    2    0    0 -0.50000106863E+01 -0.44760465055E+02 -0.19034113424E+03  0.23212886672E+03  0.12500225613E+03 0.  0.
         23    2    1    2    0    0  0.50000106863E+01  0.44760465055E+02 -0.73750080537E+02  0.12413027067E+03  0.89110888100E+02 0.  0.
          5    1    3    3  502    0 -0.15260675168E+02  0.17121678924E+02 -0.16104592250E+03  0.16273880684E+03  0.47000000000E+01 0.  1.
         -5    1    3    3    0  502  0.10260664482E+02 -0.61882143978E+02 -0.29295211740E+02  0.69390059878E+02  0.47000000000E+01 0.  1.
        -11    1    4    4    0    0 -0.74855120185E+01  0.50439461412E+02 -0.89646481826E+02  0.10313420316E+03  0.00000000000E+00 0.  1.
         11    1    4    4    0    0  0.12485522705E+02 -0.56789963568E+01  0.15896401289E+02  0.20996067507E+02  0.00000000000E+00 0. -1.
<mgrwt>
<rscale>  0 0.12370851E+03</rscale>
<asrwt>0</asrwt>
<pdfrwt beam="1">  1        3 0.70898402E-02 0.13286859E+03</pdfrwt>
<pdfrwt beam="2">  1       -3 0.47719258E-01 0.13286859E+03</pdfrwt>
<totfact> 0.13073721E+03</totfact>
</mgrwt>
</event>
<event>
 8    1  0.1154424E-005  0.1251999E+03  0.7546771E-02  0.1248627E+00
         -1   -1    0    0    0  501 -0.00000000000E+00  0.00000000000E+00  0.20663521390E+03  0.20663521390E+03  0.00000000000E+00 0.  1.
          1   -1    0    0  501    0  0.00000000000E+00 -0.00000000000E+00 -0.61309583114E+02  0.61309583114E+02  0.00000000000E+00 0. -1.
         23    2    1    2    0    0 -0.73452719052E+01  0.55921929412E-02  0.11114724229E+03  0.16741780249E+03  0.12498423128E+03 0.  0.
         23    2    1    2    0    0  0.73452719052E+01 -0.55921929412E-02  0.34178388493E+02  0.10052699453E+03  0.94252646317E+02 0.  0.
          5    1    3    3  502    0  0.14875277096E+02 -0.21914789665E+02  0.12857665012E+03  0.13136048428E+03  0.47000000000E+01 0.  1.
         -5    1    3    3    0  502 -0.22220549001E+02  0.21920381858E+02 -0.17429407830E+02  0.36057318203E+02  0.47000000000E+01 0.  1.
        -11    1    4    4    0    0 -0.13060919201E+01 -0.10885920238E+02  0.65420040599E+02  0.66332426818E+02  0.00000000000E+00 0.  1.
         11    1    4    4    0    0  0.86513638254E+01  0.10880328045E+02 -0.31241652107E+02  0.34194567708E+02  0.00000000000E+00 0. -1.
<mgrwt>
<rscale>  0 0.11670919E+03</rscale>
<asrwt>0</asrwt>
<pdfrwt beam="2">  1        1 0.94322437E-02 0.12519988E+03</pdfrwt>
<pdfrwt beam="1">  1       -1 0.31790032E-01 0.12519988E+03</pdfrwt>
<totfact> 0.60640424E+03</totfact>
</mgrwt>
</event>
<event>
 8    1  0.1154424E-005  0.2049942E+03  0.7546771E-02  0.1147802E+00
         -2   -1    0    0    0  501 -0.00000000000E+00  0.00000000000E+00  0.10198797375E+03  0.10198797375E+03  0.00000000000E+00 0.  1.
          2   -1    0    0  501    0  0.00000000000E+00 -0.00000000000E+00 -0.39267443087E+03  0.39267443087E+03  0.00000000000E+00 0. -1.
         23    2    1    2    0    0 -0.13840084730E+03 -0.85105580811E+02 -0.13384008685E+03  0.24481790787E+03  0.12499953900E+03 0.  0.
         23    2    1    2    0    0  0.13840084730E+03  0.85105580811E+02 -0.15684637028E+03  0.24984449674E+03  0.10688187061E+03 0.  0.
          5    1    3    3  502    0 -0.11671741569E+03 -0.23949255225E+02 -0.13451493638E+03  0.17975783727E+03  0.47000000000E+01 0. -1.
         -5    1    3    3    0  502 -0.21683431613E+02 -0.61156325586E+02  0.67484952917E+00  0.65060070609E+02  0.47000000000E+01 0. -1.
        -11    1    4    4    0    0  0.99208131187E+02 -0.12887683753E+01 -0.72243565944E+02  0.12273160570E+03  0.00000000000E+00 0.  1.
         11    1    4    4    0    0  0.39192716111E+02  0.86394349186E+02 -0.84602804332E+02  0.12711289104E+03  0.00000000000E+00 0. -1.
<mgrwt>
<rscale>  0 0.20231290E+03</rscale>
<asrwt>0</asrwt>
<pdfrwt beam="2">  1        2 0.60411451E-01 0.20499424E+03</pdfrwt>
<pdfrwt beam="1">  1       -2 0.15690457E-01 0.20499424E+03</pdfrwt>
<totfact> 0.25573653E+03</totfact>
</mgrwt>
</event>
<event>
 8    1  0.1154424E-005  0.1365667E+03  0.7546771E-02  0.1231444E+00
         -1   -1    0    0    0  501 -0.00000000000E+00  0.00000000000E+00  0.20315201862E+02  0.20315201862E+02  0.00000000000E+00 0.  1.
          1   -1    0    0  501    0  0.00000000000E+00 -0.00000000000E+00 -0.70898094100E+03  0.70898094100E+03  0.00000000000E+00 0. -1.
         23    2    1    2    0    0 -0.35078119361E+02  0.42373001621E+02 -0.37741005752E+03  0.40135870709E+03  0.12499805807E+03 0.  0.
         23    2    1    2    0    0  0.35078119361E+02 -0.42373001621E+02 -0.31125568162E+03  0.32793743576E+03  0.87389454237E+02 0.  0.
          5    1    3    3  502    0  0.27584159251E+02 -0.16447971103E+02 -0.32733882961E+02  0.46097924993E+02  0.47000000000E+01 0. -1.
         -5    1    3    3    0  502 -0.62662278611E+02  0.58820972724E+02 -0.34467617455E+03  0.35526078210E+03  0.47000000000E+01 0. -1.
        -11    1    4    4    0    0  0.16478313257E+01  0.25947465770E+02 -0.10286003160E+03  0.10609511029E+03  0.00000000000E+00 0.  1.
         11    1    4    4    0    0  0.33430288035E+02 -0.68320467391E+02 -0.20839565002E+03  0.22184232547E+03  0.00000000000E+00 0. -1.
<mgrwt>
<rscale>  0 0.12734820E+03</rscale>
<asrwt>0</asrwt>
<pdfrwt beam="2">  1        1 0.10907400E+00 0.13656669E+03</pdfrwt>
<pdfrwt beam="1">  1       -1 0.31254154E-02 0.13656669E+03</pdfrwt>
<totfact> 0.94233891E+03</totfact>
</mgrwt>
</event>
<event>
 8    1  0.1154424E-005  0.1903811E+03  0.7546771E-02  0.1164051E+00
          1   -1    0    0  501    0  0.00000000000E+00  0.00000000000E+00  0.98529324721E+03  0.98529324721E+03  0.00000000000E+00 0. -1.
         -1   -1    0    0    0  501 -0.00000000000E+00 -0.00000000000E+00 -0.51840574331E+02  0.51840574331E+02  0.00000000000E+00 0.  1.
         23    2    1    2    0    0  0.12772804263E+03 -0.65666809760E+02  0.16797211744E+03  0.25388892092E+03  0.12497347380E+03 0.  0.
         23    2    1    2    0    0 -0.12772804263E+03  0.65666809760E+02  0.76548055544E+03  0.78324490062E+03  0.82978978107E+02 0.  0.
          5    1    3    3  502    0  0.13731011375E+03 -0.83890327969E+02  0.16813065999E+03  0.23276954975E+03  0.47000000000E+01 0. -1.
         -5    1    3    3    0  502 -0.95820711189E+01  0.18223518209E+02 -0.15854255305E+00  0.21119371169E+02  0.47000000000E+01 0. -1.
        -11    1    4    4    0    0 -0.10655868690E+03  0.72982612534E+02  0.72962820003E+03  0.74097133937E+03  0.00000000000E+00 0. -1.
         11    1    4    4    0    0 -0.21169355729E+02 -0.73158027746E+01  0.35852355412E+02  0.42273561251E+02  0.00000000000E+00 0.  1.
<mgrwt>
<rscale>  0 0.18393242E+03</rscale>
<asrwt>0</asrwt>
<pdfrwt beam="1">  1        1 0.15158356E+00 0.19038107E+03</pdfrwt>
<pdfrwt beam="2">  1       -1 0.79754737E-02 0.19038107E+03</pdfrwt>
<totfact> 0.14192494E+03</totfact>
</mgrwt>
</event>
<event>
 8    1  0.1154424E-005  0.1613134E+03  0.7546771E-02  0.1194623E+00
          1   -1    0    0  501    0  0.00000000000E+00  0.00000000000E+00  0.11046538597E+04  0.11046538597E+04  0.00000000000E+00 0. -1.
         -1   -1    0    0    0  501 -0.00000000000E+00 -0.00000000000E+00 -0.20144831215E+02  0.20144831215E+02  0.00000000000E+00 0.  1.
         23    2    1    2    0    0  0.46959346555E+02  0.90510535938E+02  0.59335657280E+03  0.61489350470E+03  0.12499864917E+03 0.  0.
         23    2    1    2    0    0 -0.46959346555E+02 -0.90510535938E+02  0.49115245571E+03  0.50990518624E+03  0.91516265544E+02 0.  0.
          5    1    3    3  502    0  0.12418255701E+02  0.11580245055E+03  0.39098757571E+03  0.40799239575E+03  0.47000000000E+01 0.  1.
         -5    1    3    3    0  502  0.34541090854E+02 -0.25291914617E+02  0.20236899708E+03  0.20690110894E+03  0.47000000000E+01 0.  1.
        -11    1    4    4    0    0  0.23563539471E+02 -0.48789362874E+02  0.22458374232E+03  0.23102705391E+03  0.00000000000E+00 0. -1.
         11    1    4    4    0    0 -0.70522886026E+02 -0.41721173064E+02  0.26656871338E+03  0.27887813233E+03  0.00000000000E+00 0.  1.
<mgrwt>
<rscale>  0 0.15486141E+03</rscale>
<asrwt>0</asrwt>
<pdfrwt beam="1">  1        1 0.16994670E+00 0.16131336E+03</pdfrwt>
<pdfrwt beam="2">  1       -1 0.30992057E-02 0.16131336E+03</pdfrwt>
<totfact> 0.47392097E+03</totfact>
</mgrwt>
</event>
<event>
 8    1  0.1154424E-005  0.1899172E+03  0.7546771E-02  0.1163438E+00
          2   -1    0    0  501    0  0.00000000000E+00  0.00000000000E+00  0.41091234977E+03  0.41091234977E+03  0.00000000000E+00 0. -1.
         -2   -1    0    0    0  501 -0.00000000000E+00 -0.00000000000E+00 -0.13334276320E+03  0.13334276320E+03  0.00000000000E+00 0.  1.
         23    2    1    2    0    0  0.13709297917E+03  0.40664106424E+02 -0.30788350386E+02  0.19239663180E+03  0.12498194637E+03 0.  0.
         23    2    1    2    0    0 -0.13709297917E+03 -0.40664106424E+02  0.30835793696E+03  0.35185848117E+03  0.90948991174E+02 0.  0.
          5    1    3    3  502    0  0.14124905589E+03  0.50350080762E+01  0.50043977706E+01  0.14150541012E+03  0.47000000000E+01 0. -1.
         -5    1    3    3    0  502 -0.41560767260E+01  0.35629098348E+02 -0.35792748157E+02  0.50891221674E+02  0.47000000000E+01 0. -1.
        -11    1    4    4    0    0 -0.39759875856E+02 -0.58235476320E+02  0.12419854652E+03  0.14281980741E+03  0.00000000000E+00 0.  1.
         11    1    4    4    0    0 -0.97333103313E+02  0.17571369896E+02  0.18415939044E+03  0.20903867376E+03  0.00000000000E+00 0. -1.
<mgrwt>
<rscale>  0 0.18458476E+03</rscale>
<asrwt>0</asrwt>
<pdfrwt beam="1">  1        2 0.63217284E-01 0.18991720E+03</pdfrwt>
<pdfrwt beam="2">  1       -2 0.20514271E-01 0.18991720E+03</pdfrwt>
<totfact> 0.15475845E+03</totfact>
</mgrwt>
</event>
<event>
 8    1  0.1154424E-005  0.1641624E+03  0.7546771E-02  0.1191355E+00
         -2   -1    0    0    0  501 -0.00000000000E+00  0.00000000000E+00  0.21368193721E+03  0.21368193721E+03  0.00000000000E+00 0.  1.
          2   -1    0    0  501    0  0.00000000000E+00 -0.00000000000E+00 -0.12804887949E+03  0.12804887949E+03  0.00000000000E+00 0. -1.
         23    2    1    2    0    0  0.40480275979E+02 -0.98417498219E+02  0.11312310100E+03  0.19936433570E+03  0.12499858268E+03 0.  0.
         23    2    1    2    0    0 -0.40480275979E+02  0.98417498219E+02 -0.27490043274E+02  0.14236648099E+03  0.90486771035E+02 0.  0.
          5    1    3    3  502    0  0.35351137959E+02 -0.20834295232E+02 -0.19409865500E+02  0.45635552934E+02  0.47000000000E+01 0.  1.
         -5    1    3    3    0  502  0.51291380196E+01 -0.77583202986E+02  0.13253296650E+03  0.15372878277E+03  0.47000000000E+01 0.  1.
        -11    1    4    4    0    0 -0.12622358185E+02  0.10443664360E+03 -0.38203081537E+02  0.11191877363E+03  0.00000000000E+00 0. -1.
         11    1    4    4    0    0 -0.27857917794E+02 -0.60191453774E+01  0.10713038263E+02  0.30447707364E+02  0.00000000000E+00 0.  1.
<mgrwt>
<rscale>  0 0.15766833E+03</rscale>
<asrwt>0</asrwt>
<pdfrwt beam="2">  1        2 0.19699828E-01 0.16416243E+03</pdfrwt>
<pdfrwt beam="1">  1       -2 0.32874144E-01 0.16416243E+03</pdfrwt>
<totfact> 0.23832856E+03</totfact>
</mgrwt>
</event>
<event>
 8    1  0.1154424E-005  0.1417377E+03  0.7546771E-02  0.1221487E+00
         -1   -1    0    0    0  501 -0.00000000000E+00  0.00000000000E+00  0.14664266332E+03  0.14664266332E+03  0.00000000000E+00 0.  1.
          1   -1    0    0  501    0  0.00000000000E+00 -0.00000000000E+00 -0.11503869316E+03  0.11503869316E+03  0.00000000000E+00 0. -1.
         23    2    1    2    0    0 -0.49530775470E+02 -0.44847246341E+02  0.41424423789E+02  0.14766707465E+03  0.12500003530E+03 0.  0.
         23    2    1    2    0    0  0.49530775470E+02  0.44847246341E+02 -0.98204536317E+01  0.11401428184E+03  0.91859903822E+02 0.  0.
          5    1    3    3  502    0  0.22653199784E+02 -0.13396756130E+02  0.60822533645E+02  0.66438777339E+02  0.47000000000E+01 0.  1.
         -5    1    3    3    0  502 -0.72183975254E+02 -0.31450490211E+02 -0.19398109856E+02  0.81228297310E+02  0.47000000000E+01 0.  1.
        -11    1    4    4    0    0  0.40049968423E+02  0.51875770457E+02  0.30293907781E+02  0.72199836425E+02  0.00000000000E+00 0.  1.
         11    1    4    4    0    0  0.94808070463E+01 -0.70285241158E+01 -0.40114361413E+02  0.41814445411E+02  0.00000000000E+00 0. -1.
<mgrwt>
<rscale>  0 0.13410644E+03</rscale>
<asrwt>0</asrwt>
<pdfrwt beam="2">  1        1 0.17698261E-01 0.14173772E+03</pdfrwt>
<pdfrwt beam="1">  1       -1 0.22560410E-01 0.14173772E+03</pdfrwt>
<totfact> 0.47453403E+03</totfact>
</mgrwt>
</event>
<event>
 8    1  0.1154424E-005  0.2092413E+03  0.7546771E-02  0.1146046E+00
          1   -1    0    0  501    0  0.00000000000E+00  0.00000000000E+00  0.63973183629E+02  0.63973183629E+02  0.00000000000E+00 0. -1.
         -1   -1    0    0    0  501 -0.00000000000E+00 -0.00000000000E+00 -0.76526178750E+03  0.76526178750E+03  0.00000000000E+00 0.  1.
         23    2    1    2    0    0  0.70228821512E+02  0.15239135562E+03 -0.54125526167E+03  0.58029232902E+03  0.12500686461E+03 0.  0.
         23    2    1    2    0    0 -0.70228821512E+02 -0.15239135562E+03 -0.16003334220E+03  0.24894264210E+03  0.90590042525E+02 0.  0.
          5    1    3    3  502    0  0.81193612588E+02  0.11244943323E+03 -0.24885308089E+03  0.28493371795E+03  0.47000000000E+01 0. -1.
         -5    1    3    3    0  502 -0.10964791075E+02  0.39941922389E+02 -0.29240218079E+03  0.29535861107E+03  0.47000000000E+01 0. -1.
        -11    1    4    4    0    0  0.11499624299E+02 -0.24068521670E+02  0.19122118518E+01  0.26743067299E+02  0.00000000000E+00 0. -1.
         11    1    4    4    0    0 -0.81728445811E+02 -0.12832283395E+03 -0.16194555405E+03  0.22219957480E+03  0.00000000000E+00 0.  1.
<mgrwt>
<rscale>  0 0.20444016E+03</rscale>
<asrwt>0</asrwt>
<pdfrwt beam="1">  1        1 0.98420276E-02 0.20924132E+03</pdfrwt>
<pdfrwt beam="2">  1       -1 0.11773259E+00 0.20924132E+03</pdfrwt>
<totfact> 0.45417806E+02</totfact>
</mgrwt>
</event>
<event>
 8    1  0.1154424E-005  0.2195870E+03  0.7546771E-02  0.1137637E+00
          2   -1    0    0  501    0  0.00000000000E+00  0.00000000000E+00  0.20667294549E+03  0.20667294549E+03  0.00000000000E+00 0. -1.
         -2   -1    0    0    0  501 -0.00000000000E+00 -0.00000000000E+00 -0.23434643889E+03  0.23434643889E+03  0.00000000000E+00 0.  1.
         23    2    1    2    0    0  0.26986656940E+02 -0.17850773762E+03 -0.77760152467E+02  0.23294868942E+03  0.12500063418E+03 0.  0.
         23    2    1    2    0    0 -0.26986656940E+02  0.17850773762E+03  0.50086659071E+02  0.20807069496E+03  0.90506622090E+02 0.  0.
          5    1    3    3  502    0 -0.46147063567E+02 -0.78664483224E+02 -0.10259259993E+02  0.91896652890E+02  0.47000000000E+01 0.  1.
         -5    1    3    3    0  502  0.73133720507E+02 -0.99843254399E+02 -0.67500892474E+02  0.14105203653E+03  0.47000000000E+01 0.  1.
        -11    1    4    4    0    0  0.19340543986E+02  0.40249378030E+02 -0.16718526622E+02  0.47682053289E+02  0.00000000000E+00 0.  1.
         11    1    4    4    0    0 -0.46327200926E+02  0.13825835959E+03  0.66805185693E+02  0.16038864168E+03  0.00000000000E+00 0. -1.
<mgrwt>
<rscale>  0 0.21503898E+03</rscale>
<asrwt>0</asrwt>
<pdfrwt beam="1">  1        2 0.31795838E-01 0.21958700E+03</pdfrwt>
<pdfrwt beam="2">  1       -2 0.36053298E-01 0.21958700E+03</pdfrwt>
<totfact> 0.11893282E+03</totfact>
</mgrwt>
</event>
<event>
 8    1  0.1154424E-005  0.1557230E+03  0.7546771E-02  0.1201037E+00
          2   -1    0    0  501    0  0.00000000000E+00  0.00000000000E+00  0.34003680131E+03  0.34003680131E+03  0.00000000000E+00 0. -1.
         -2   -1    0    0    0  501 -0.00000000000E+00 -0.00000000000E+00 -0.67825957579E+02  0.67825957579E+02  0.00000000000E+00 0.  1.
         23    2    1    2    0    0  0.61478758363E+02  0.69601558472E+02  0.81727632480E+02  0.17586659856E+03  0.12500255960E+03 0.  0.
         23    2    1    2    0    0 -0.61478758363E+02 -0.69601558472E+02  0.19048321125E+03  0.23199616032E+03  0.94415835355E+02 0.  0.
          5    1    3    3  502    0  0.98261579424E+02  0.51381368037E+02  0.42346535341E+02  0.11878847599E+03  0.47000000000E+01 0. -1.
         -5    1    3    3    0  502 -0.36782821061E+02  0.18220190436E+02  0.39381097138E+02  0.57078122574E+02  0.47000000000E+01 0. -1.
        -11    1    4    4    0    0 -0.64003938467E+02 -0.56519445925E+02  0.19875036368E+03  0.21631610890E+03  0.00000000000E+00 0. -1.
         11    1    4    4    0    0  0.25251801037E+01 -0.13082112548E+02 -0.82671524326E+01  0.15680051422E+02  0.00000000000E+00 0.  1.
<mgrwt>
<rscale>  0 0.14954201E+03</rscale>
<asrwt>0</asrwt>
<pdfrwt beam="1">  1        2 0.52313353E-01 0.15572301E+03</pdfrwt>
<pdfrwt beam="2">  1       -2 0.10434763E-01 0.15572301E+03</pdfrwt>
<totfact> 0.57064387E+03</totfact>
</mgrwt>
</event>
<event>
 8    1  0.1154424E-005  0.1558878E+03  0.7546771E-02  0.1201326E+00
         -2   -1    0    0    0  501 -0.00000000000E+00  0.00000000000E+00  0.13011158272E+04  0.13011158272E+04  0.00000000000E+00 0.  1.
          2   -1    0    0  501    0  0.00000000000E+00 -0.00000000000E+00 -0.28089913001E+02  0.28089913001E+02  0.00000000000E+00 0. -1.
         23    2    1    2    0    0  0.66091339634E+02  0.65608949352E+02  0.11054474001E+04  0.11163847675E+04  0.12501358064E+03 0.  0.
         23    2    1    2    0    0 -0.66091339634E+02 -0.65608949352E+02  0.16757851406E+03  0.21282097265E+03  0.92399180810E+02 0.  0.
          5    1    3    3  502    0  0.82564655721E+02  0.30262822496E+00  0.45609148409E+03  0.46352836571E+03  0.47000000000E+01 0.  1.
         -5    1    3    3    0  502 -0.16473316087E+02  0.65306321127E+02  0.64935591602E+03  0.65285640181E+03  0.47000000000E+01 0.  1.
        -11    1    4    4    0    0 -0.31466520850E+02 -0.91715968189E+01  0.13519976431E+03  0.13911590992E+03  0.00000000000E+00 0.  1.
         11    1    4    4    0    0 -0.34624818785E+02 -0.56437352533E+02  0.32378749753E+02  0.73705062732E+02  0.00000000000E+00 0. -1.
<mgrwt>
<rscale>  0 0.14930773E+03</rscale>
<asrwt>0</asrwt>
<pdfrwt beam="2">  1        2 0.43215261E-02 0.15588776E+03</pdfrwt>
<pdfrwt beam="1">  1       -2 0.20017162E+00 0.15588776E+03</pdfrwt>
<totfact> 0.27256929E+02</totfact>
</mgrwt>
</event>
<event>
 8    1  0.1154424E-005  0.1455594E+03  0.7546771E-02  0.1215986E+00
         -2   -1    0    0    0  501 -0.00000000000E+00  0.00000000000E+00  0.48670133177E+02  0.48670133177E+02  0.00000000000E+00 0.  1.
          2   -1    0    0  501    0  0.00000000000E+00 -0.00000000000E+00 -0.37756504951E+03  0.37756504951E+03  0.00000000000E+00 0. -1.
         23    2    1    2    0    0  0.65333537059E+02 -0.35981583353E+02 -0.13030615029E+03  0.19536434494E+03  0.12499755624E+03 0.  0.
         23    2    1    2    0    0 -0.65333537059E+02  0.35981583353E+02 -0.19858876605E+03  0.23087083775E+03  0.91108179207E+02 0.  0.
          5    1    3    3  502    0 -0.25521489535E+02 -0.42013321432E+02 -0.22771460319E+02  0.54379178101E+02  0.47000000000E+01 0. -1.
         -5    1    3    3    0  502  0.90855026594E+02  0.60317380787E+01 -0.10753468997E+03  0.14098516684E+03  0.47000000000E+01 0. -1.
        -11    1    4    4    0    0 -0.61721220495E+02  0.64269233754E+02 -0.14585961297E+03  0.17092416494E+03  0.00000000000E+00 0. -1.
         11    1    4    4    0    0 -0.36123165635E+01 -0.28287650400E+02 -0.52729153080E+02  0.59946672807E+02  0.00000000000E+00 0.  1.
<mgrwt>
<rscale>  0 0.13804339E+03</rscale>
<asrwt>0</asrwt>
<pdfrwt beam="2">  1        2 0.58086931E-01 0.14555938E+03</pdfrwt>
<pdfrwt beam="1">  1       -2 0.74877127E-02 0.14555938E+03</pdfrwt>
<totfact> 0.85289277E+03</totfact>
</mgrwt>
</event>
<event>
 8    1  0.1154424E-005  0.1836642E+03  0.7546771E-02  0.1169445E+00
          2   -1    0    0  501    0  0.00000000000E+00  0.00000000000E+00  0.14895029927E+03  0.14895029927E+03  0.00000000000E+00 0. -1.
         -2   -1    0    0    0  501 -0.00000000000E+00 -0.00000000000E+00 -0.20373990784E+03  0.20373990784E+03  0.00000000000E+00 0.  1.
         23    2    1    2    0    0 -0.81233163453E+02 -0.10725941356E+03 -0.12338534496E+02  0.18407815360E+03  0.12501647314E+03 0.  0.
         23    2    1    2    0    0  0.81233163453E+02  0.10725941356E+03 -0.42451074080E+02  0.16861205351E+03  0.92328339399E+02 0.  0.
          5    1    3    3  502    0 -0.70350907986E+01  0.14185408618E+02 -0.36114239472E+02  0.39712046193E+02  0.47000000000E+01 0. -1.
         -5    1    3    3    0  502 -0.74198072655E+02 -0.12144482218E+03  0.23775704975E+02  0.14436610741E+03  0.47000000000E+01 0. -1.
        -11    1    4    4    0    0  0.33380409281E+02  0.60118409440E+02  0.25238600056E+02  0.73249312694E+02  0.00000000000E+00 0. -1.
         11    1    4    4    0    0  0.47852754172E+02  0.47141004123E+02 -0.67689674135E+02  0.95362740817E+02  0.00000000000E+00 0.  1.
<mgrwt>
<rscale>  0 0.17831403E+03</rscale>
<asrwt>0</asrwt>
<pdfrwt beam="1">  1        2 0.22915431E-01 0.18366417E+03</pdfrwt>
<pdfrwt beam="2">  1       -2 0.31344601E-01 0.18366417E+03</pdfrwt>
<totfact> 0.22017917E+03</totfact>
</mgrwt>
</event>
<event>
 8    1  0.1154424E-005  0.1275708E+03  0.7546771E-02  0.1246802E+00
         -2   -1    0    0    0  501 -0.00000000000E+00  0.00000000000E+00  0.64665394549E+02  0.64665394549E+02  0.00000000000E+00 0.  1.
          2   -1    0    0  501    0  0.00000000000E+00 -0.00000000000E+00 -0.18830943368E+03  0.18830943368E+03  0.00000000000E+00 0. -1.
         23    2    1    2    0    0  0.77055930031E+01  0.24325362955E+02 -0.63751466876E+02  0.14261336013E+03  0.12499288585E+03 0.  0.
         23    2    1    2    0    0 -0.77055930031E+01 -0.24325362955E+02 -0.59892572256E+02  0.11036146810E+03  0.89114723719E+02 0.  0.
          5    1    3    3  502    0  0.25835495623E+02  0.36195046993E+02  0.24933177070E+02  0.51198706817E+02  0.47000000000E+01 0.  1.
         -5    1    3    3    0  502 -0.18129902620E+02 -0.11869684038E+02 -0.88684643947E+02  0.91414653312E+02  0.47000000000E+01 0.  1.
        -11    1    4    4    0    0 -0.68722973140E+01  0.32201101157E+02 -0.36564870033E+02  0.49204970345E+02  0.00000000000E+00 0. -1.
         11    1    4    4    0    0 -0.83329568913E+00 -0.56526464113E+02 -0.23327702223E+02  0.61156497756E+02  0.00000000000E+00 0.  1.
<mgrwt>
<rscale>  0 0.11778195E+03</rscale>
<asrwt>0</asrwt>
<pdfrwt beam="2">  1        2 0.28970682E-01 0.12757085E+03</pdfrwt>
<pdfrwt beam="1">  1       -2 0.99485224E-02 0.12757085E+03</pdfrwt>
<totfact> 0.11410102E+04</totfact>
</mgrwt>
</event>
<event>
 8    1  0.1154424E-005  0.1326239E+03  0.7546771E-02  0.1237128E+00
         -1   -1    0    0    0  501 -0.00000000000E+00  0.00000000000E+00  0.42321081886E+02  0.42321081886E+02  0.00000000000E+00 0.  1.
          1   -1    0    0  501    0  0.00000000000E+00 -0.00000000000E+00 -0.33090848383E+03  0.33090848383E+03  0.00000000000E+00 0. -1.
         23    2    1    2    0    0  0.37654708540E+02 -0.23410472723E+02 -0.13105205656E+03  0.18645037925E+03  0.12499270013E+03 0.  0.
         23    2    1    2    0    0 -0.37654708540E+02  0.23410472723E+02 -0.15753534538E+03  0.18677918647E+03  0.90017510208E+02 0.  0.
          5    1    3    3  502    0 -0.54195313497E+01 -0.19269836876E+02  0.20341704271E+02  0.28923569384E+02  0.47000000000E+01 0.  1.
         -5    1    3    3    0  502  0.43074239890E+02 -0.41406358473E+01 -0.15139376083E+03  0.15752680987E+03  0.47000000000E+01 0.  1.
        -11    1    4    4    0    0  0.20167500669E+02 -0.17289440141E+02 -0.65763800392E+02  0.70926231153E+02  0.00000000000E+00 0. -1.
         11    1    4    4    0    0 -0.57822209209E+02  0.40699912864E+02 -0.91771544990E+02  0.11585295531E+03  0.00000000000E+00 0.  1.
<mgrwt>
<rscale>  0 0.12369157E+03</rscale>
<asrwt>0</asrwt>
<pdfrwt beam="2">  1        1 0.50908996E-01 0.13262391E+03</pdfrwt>
<pdfrwt beam="1">  1       -1 0.65109358E-02 0.13262391E+03</pdfrwt>
<totfact> 0.86494440E+03</totfact>
</mgrwt>
</event>
<event>
 8    1  0.1154424E-005  0.1309016E+03  0.7546771E-02  0.1239694E+00
          1   -1    0    0  501    0  0.00000000000E+00  0.00000000000E+00  0.36341769152E+02  0.36341769152E+02  0.00000000000E+00 0. -1.
         -1   -1    0    0    0  501 -0.00000000000E+00 -0.00000000000E+00 -0.50673209682E+03  0.50673209682E+03  0.00000000000E+00 0.  1.
         23    2    1    2    0    0 -0.34926507456E+02 -0.17007144775E+02 -0.40182986854E+03  0.42261385916E+03  0.12500450714E+03 0.  0.
         23    2    1    2    0    0  0.34926507456E+02  0.17007144775E+02 -0.68560459121E+02  0.12046000681E+03  0.91109674507E+02 0.  0.
          5    1    3    3  502    0  0.18204966539E+02 -0.55056710079E+02 -0.12124637345E+03  0.13448209995E+03  0.47000000000E+01 0.  1.
         -5    1    3    3    0  502 -0.53131473996E+02  0.38049565304E+02 -0.28058349510E+03  0.28813175922E+03  0.47000000000E+01 0.  1.
        -11    1    4    4    0    0  0.33884776592E+02  0.30941799167E+02  0.44709231226E+01  0.46103819515E+02  0.00000000000E+00 0. -1.
         11    1    4    4    0    0  0.10417308650E+01 -0.13934654392E+02 -0.73031382243E+02  0.74356187292E+02  0.00000000000E+00 0.  1.
<mgrwt>
<rscale>  0 0.12208654E+03</rscale>
<asrwt>0</asrwt>
<pdfrwt beam="1">  1        1 0.55910415E-02 0.13090161E+03</pdfrwt>
<pdfrwt beam="2">  1       -1 0.77958782E-01 0.13090161E+03</pdfrwt>
<totfact> 0.23704316E+03</totfact>
</mgrwt>
</event>
<event>
 8    1  0.1154424E-005  0.1403993E+03  0.7546771E-02  0.1225527E+00
          1   -1    0    0  501    0  0.00000000000E+00  0.00000000000E+00  0.87865994551E+02  0.87865994551E+02  0.00000000000E+00 0. -1.
         -1   -1    0    0    0  501 -0.00000000000E+00 -0.00000000000E+00 -0.17476529281E+03  0.17476529281E+03  0.00000000000E+00 0.  1.
         23    2    1    2    0    0 -0.60769832797E+02  0.19931759110E+02 -0.47545683042E+02  0.14823139113E+03  0.12498682227E+03 0.  0.
         23    2    1    2    0    0  0.60769832797E+02 -0.19931759110E+02 -0.39353615219E+02  0.11439989623E+03  0.86304007017E+02 0.  0.
          5    1    3    3  502    0 -0.31208081133E+02 -0.50516897082E+02 -0.39034025713E+02  0.71215492571E+02  0.47000000000E+01 0. -1.
         -5    1    3    3    0  502 -0.29561751664E+02  0.70448656192E+02 -0.85116573287E+01  0.77015898561E+02  0.47000000000E+01 0. -1.
        -11    1    4    4    0    0  0.38071072199E+02  0.20471309623E+02 -0.50762871025E+02  0.66673458968E+02  0.00000000000E+00 0.  1.
         11    1    4    4    0    0  0.22698760598E+02 -0.40403068733E+02  0.11409255805E+02  0.47726437262E+02  0.00000000000E+00 0. -1.
<mgrwt>
<rscale>  0 0.13130852E+03</rscale>
<asrwt>0</asrwt>
<pdfrwt beam="1">  1        1 0.13517845E-01 0.14039926E+03</pdfrwt>
<pdfrwt beam="2">  1       -1 0.26886968E-01 0.14039926E+03</pdfrwt>
<totfact> 0.50381306E+03</totfact>
</mgrwt>
</event>
<event>
 8    1  0.1154424E-005  0.2108034E+03  0.7546771E-02  0.1144611E+00
         -2   -1    0    0    0  501 -0.00000000000E+00  0.00000000000E+00  0.40801621474E+02  0.40801621474E+02  0.00000000000E+00 0.  1.
          2   -1    0    0  501    0  0.00000000000E+00 -0.00000000000E+00 -0.10091440074E+04  0.10091440074E+04  0.00000000000E+00 0. -1.
         23    2    1    2    0    0 -0.97843941903E+02 -0.13870894698E+03 -0.55785659191E+03  0.59635731794E+03  0.12499785836E+03 0.  0.
         23    2    1    2    0    0  0.97843941903E+02  0.13870894698E+03 -0.41048579402E+03  0.45358831093E+03  0.91815901576E+02 0.  0.
          5    1    3    3  502    0 -0.85189928391E+02 -0.16243492158E+03 -0.48877869430E+03  0.52208153544E+03  0.47000000000E+01 0.  1.
         -5    1    3    3    0  502 -0.12654013512E+02  0.23725974600E+02 -0.69077897612E+02  0.74275782508E+02  0.47000000000E+01 0.  1.
        -11    1    4    4    0    0  0.15373444118E+02  0.25938006890E+02 -0.14068011841E+02  0.33272089544E+02  0.00000000000E+00 0.  1.
         11    1    4    4    0    0  0.82470497785E+02  0.11277094009E+03 -0.39641778218E+03  0.42031622138E+03  0.00000000000E+00 0. -1.
<mgrwt>
<rscale>  0 0.20620059E+03</rscale>
<asrwt>0</asrwt>
<pdfrwt beam="2">  1        2 0.15525291E+00 0.21080340E+03</pdfrwt>
<pdfrwt beam="1">  1       -2 0.62771732E-02 0.21080340E+03</pdfrwt>
<totfact> 0.35529971E+03</totfact>
</mgrwt>
</event>
<event>
 8    1  0.1154424E-005  0.2674223E+03  0.7546771E-02  0.1104829E+00
          1   -1    0    0  501    0  0.00000000000E+00  0.00000000000E+00  0.70430740592E+03  0.70430740592E+03  0.00000000000E+00 0. -1.
         -1   -1    0    0    0  501 -0.00000000000E+00 -0.00000000000E+00 -0.97720684928E+02  0.97720684928E+02  0.00000000000E+00 0.  1.
         23    2    1    2    0    0 -0.52370763972E+02  0.23053777094E+03  0.26371069346E+03  0.37557690428E+03  0.12499728172E+03 0.  0.
         23    2    1    2    0    0  0.52370763972E+02 -0.23053777094E+03  0.34287602753E+03  0.42645118657E+03  0.91685786901E+02 0.  0.
          5    1    3    3  502    0 -0.48782121956E+02  0.20705325767E+03  0.15255248036E+03  0.26181118425E+03  0.47000000000E+01 0.  1.
         -5    1    3    3    0  502 -0.35886420159E+01  0.23484513265E+02  0.11115821310E+03  0.11376572003E+03  0.47000000000E+01 0.  1.
        -11    1    4    4    0    0  0.74901961332E+02 -0.15752891815E+03  0.20820959007E+03  0.27161902964E+03  0.00000000000E+00 0. -1.
         11    1    4    4    0    0 -0.22531197361E+02 -0.73008852785E+02  0.13466643746E+03  0.15483215693E+03  0.00000000000E+00 0.  1.
<mgrwt>
<rscale>  0 0.26388928E+03</rscale>
<asrwt>0</asrwt>
<pdfrwt beam="1">  1        1 0.10835498E+00 0.26742229E+03</pdfrwt>
<pdfrwt beam="2">  1       -1 0.15033952E-01 0.26742229E+03</pdfrwt>
<totfact> 0.89674315E+02</totfact>
</mgrwt>
</event>
<event>
 8    1  0.1154424E-005  0.2000554E+03  0.7546771E-02  0.1154179E+00
          4   -1    0    0  501    0  0.00000000000E+00  0.00000000000E+00  0.11432215771E+03  0.11432215771E+03  0.00000000000E+00 0. -1.
         -4   -1    0    0    0  501 -0.00000000000E+00 -0.00000000000E+00 -0.36513256531E+03  0.36513256531E+03  0.00000000000E+00 0.  1.
         23    2    1    2    0    0 -0.12052037863E+03 -0.99370692975E+02 -0.21917735080E+03  0.29675053363E+03  0.12498988685E+03 0.  0.
         23    2    1    2    0    0  0.12052037863E+03  0.99370692975E+02 -0.31633056788E+02  0.18270418939E+03  0.89333500159E+02 0.  0.
          5    1    3    3  502    0 -0.14352556032E+03 -0.94040564847E+02 -0.16797035822E+03  0.24016524632E+03  0.47000000000E+01 0.  1.
         -5    1    3    3    0  502  0.23005181683E+02 -0.53301281281E+01 -0.51206992583E+02  0.56585287306E+02  0.47000000000E+01 0.  1.
        -11    1    4    4    0    0  0.77598931913E+02  0.89093580946E+02  0.14291006374E+02  0.11901047543E+03  0.00000000000E+00 0. -1.
         11    1    4    4    0    0  0.42921446721E+02  0.10277112030E+02 -0.45924063162E+02  0.63693713957E+02  0.00000000000E+00 0.  1.
<mgrwt>
<rscale>  0 0.19482632E+03</rscale>
<asrwt>0</asrwt>
<pdfrwt beam="1">  1        4 0.17588024E-01 0.20005541E+03</pdfrwt>
<pdfrwt beam="2">  1       -4 0.56174242E-01 0.20005541E+03</pdfrwt>
<totfact> 0.15402160E+02</totfact>
</mgrwt>
</event>
<event>
 8    1  0.1154424E-005  0.1618075E+03  0.7546771E-02  0.1194353E+00
         -1   -1    0    0    0  501 -0.00000000000E+00  0.00000000000E+00  0.97533196053E+02  0.97533196053E+02  0.00000000000E+00 0.  1.
          1   -1    0    0  501    0  0.00000000000E+00 -0.00000000000E+00 -0.27529973049E+03  0.27529973049E+03  0.00000000000E+00 0. -1.
         23    2    1    2    0    0  0.97075378609E+02  0.33236017919E+02 -0.18238905577E+02  0.16283216867E+03  0.12511353028E+03 0.  0.
         23    2    1    2    0    0 -0.97075378609E+02 -0.33236017919E+02 -0.15952762886E+03  0.21000075787E+03  0.90127642358E+02 0.  0.
          5    1    3    3  502    0  0.60297860509E+02 -0.20900623261E+02 -0.57785552847E+02  0.86220230529E+02  0.47000000000E+01 0. -1.
         -5    1    3    3    0  502  0.36777518100E+02  0.54136641181E+02  0.39546647270E+02  0.76611938144E+02  0.47000000000E+01 0. -1.
        -11    1    4    4    0    0 -0.86155745795E+01  0.27642381517E+02 -0.29029129140E+02  0.41000240486E+02  0.00000000000E+00 0.  1.
         11    1    4    4    0    0 -0.88459804030E+02 -0.60878399437E+02 -0.13049849972E+03  0.16900051738E+03  0.00000000000E+00 0. -1.
<mgrwt>
<rscale>  0 0.15509130E+03</rscale>
<asrwt>0</asrwt>
<pdfrwt beam="2">  1        1 0.42353803E-01 0.16180747E+03</pdfrwt>
<pdfrwt beam="1">  1       -1 0.15005108E-01 0.16180747E+03</pdfrwt>
<totfact> 0.30639547E+03</totfact>
</mgrwt>
</event>
<event>
 8    1  0.1154424E-005  0.1382301E+03  0.7546771E-02  0.1226995E+00
          1   -1    0    0  501    0  0.00000000000E+00  0.00000000000E+00  0.31013828647E+02  0.31013828647E+02  0.00000000000E+00 0. -1.
         -1   -1    0    0    0  501 -0.00000000000E+00 -0.00000000000E+00 -0.54966685442E+03  0.54966685442E+03  0.00000000000E+00 0.  1.
         23    2    1    2    0    0 -0.58997149307E+02  0.12425268585E+01 -0.37898704557E+03  0.40340889917E+03  0.12500140686E+03 0.  0.
         23    2    1    2    0    0  0.58997149307E+02 -0.12425268585E+01 -0.13966598020E+03  0.17727178389E+03  0.91850377470E+02 0.  0.
          5    1    3    3  502    0  0.35544512989E+02 -0.18713023068E+02 -0.13554174645E+03  0.14144696768E+03  0.47000000000E+01 0. -1.
         -5    1    3    3    0  502 -0.94541662297E+02  0.19955549927E+02 -0.24344529912E+03  0.26196193149E+03  0.47000000000E+01 0. -1.
        -11    1    4    4    0    0 -0.49535772863E+01  0.24209053273E+02 -0.87459005365E+02  0.90882857612E+02  0.00000000000E+00 0.  1.
         11    1    4    4    0    0  0.63950726594E+02 -0.25451580131E+02 -0.52206974830E+02  0.86388926281E+02  0.00000000000E+00 0. -1.
<mgrwt>
<rscale>  0 0.13031085E+03</rscale>
<asrwt>0</asrwt>
<pdfrwt beam="1">  1        1 0.47713585E-02 0.13823010E+03</pdfrwt>
<pdfrwt beam="2">  1       -1 0.84564127E-01 0.13823010E+03</pdfrwt>
<totfact> 0.24969626E+03</totfact>
</mgrwt>
</event>
<event>
 8    1  0.1154424E-005  0.1254315E+03  0.7546771E-02  0.1249544E+00
          1   -1    0    0  501    0  0.00000000000E+00  0.00000000000E+00  0.79910071708E+02  0.79910071708E+02  0.00000000000E+00 0. -1.
         -1   -1    0    0    0  501 -0.00000000000E+00 -0.00000000000E+00 -0.19743960683E+03  0.19743960683E+03  0.00000000000E+00 0.  1.
         23    2    1    2    0    0 -0.91064234375E+01 -0.50346048525E+01 -0.13404504142E+03  0.18357868360E+03  0.12499914300E+03 0.  0.
         23    2    1    2    0    0  0.91064234375E+01  0.50346048525E+01  0.16515506292E+02  0.93770994941E+02  0.91716756104E+02 0.  0.
          5    1    3    3  502    0  0.57254927609E+02  0.13777302127E+01 -0.49792733044E+02  0.76035722790E+02  0.47000000000E+01 0.  1.
         -5    1    3    3    0  502 -0.66361351047E+02 -0.64123350652E+01 -0.84252308374E+02  0.10754296081E+03  0.47000000000E+01 0.  1.
        -11    1    4    4    0    0 -0.32838398345E+01  0.17345844197E+02  0.51623157568E+02  0.54558338613E+02  0.00000000000E+00 0. -1.
         11    1    4    4    0    0  0.12390263272E+02 -0.12311239344E+02 -0.35107651276E+02  0.39212656327E+02  0.00000000000E+00 0.  1.
<mgrwt>
<rscale>  0 0.11617466E+03</rscale>
<asrwt>0</asrwt>
<pdfrwt beam="1">  1        1 0.12293857E-01 0.12543150E+03</pdfrwt>
<pdfrwt beam="2">  1       -1 0.30375324E-01 0.12543150E+03</pdfrwt>
<totfact> 0.46189349E+03</totfact>
</mgrwt>
</event>
<event>
 8    1  0.1154424E-005  0.1604465E+03  0.7546771E-02  0.1195675E+00
          1   -1    0    0  501    0  0.00000000000E+00  0.00000000000E+00  0.18544431752E+03  0.18544431752E+03  0.00000000000E+00 0. -1.
         -1   -1    0    0    0  501 -0.00000000000E+00 -0.00000000000E+00 -0.12829865959E+03  0.12829865959E+03  0.00000000000E+00 0.  1.
         23    2    1    2    0    0 -0.96459030827E+02  0.28521688774E+02 -0.12398715633E+02  0.16092484541E+03  0.12500098545E+03 0.  0.
         23    2    1    2    0    0  0.96459030827E+02 -0.28521688774E+02  0.69544373559E+02  0.15281813170E+03  0.91646768211E+02 0.  0.
          5    1    3    3  502    0  0.18010582670E+02  0.19413212201E+02 -0.34649998064E+02  0.43863039817E+02  0.47000000000E+01 0. -1.
         -5    1    3    3    0  502 -0.11446961350E+03  0.91084765727E+01  0.22251282431E+02  0.11706180560E+03  0.47000000000E+01 0. -1.
        -11    1    4    4    0    0  0.86894100304E+02  0.16212324728E+02  0.33311803686E+02  0.94462163884E+02  0.00000000000E+00 0.  1.
         11    1    4    4    0    0  0.95649305226E+01 -0.44734013503E+02  0.36232569874E+02  0.58355967815E+02  0.00000000000E+00 0. -1.
<mgrwt>
<rscale>  0 0.15397276E+03</rscale>
<asrwt>0</asrwt>
<pdfrwt beam="1">  1        1 0.28529895E-01 0.16044649E+03</pdfrwt>
<pdfrwt beam="2">  1       -1 0.19738255E-01 0.16044649E+03</pdfrwt>
<totfact> 0.32389417E+03</totfact>
</mgrwt>
</event>
<event>
 8    1  0.1154424E-005  0.1792640E+03  0.7546771E-02  0.1174425E+00
          2   -1    0    0  501    0  0.00000000000E+00  0.00000000000E+00  0.67150537977E+03  0.67150537977E+03  0.00000000000E+00 0. -1.
         -2   -1    0    0    0  501 -0.00000000000E+00 -0.00000000000E+00 -0.58679110947E+02  0.58679110947E+02  0.00000000000E+00 0.  1.
         23    2    1    2    0    0 -0.12655539066E+03  0.22259235456E+02  0.12691431590E+03  0.21964250446E+03  0.12499538278E+03 0.  0.
         23    2    1    2    0    0  0.12655539066E+03 -0.22259235456E+02  0.48591195293E+03  0.51054198626E+03  0.89615586077E+02 0.  0.
          5    1    3    3  502    0 -0.10889243574E+03  0.17342369627E+02  0.21370396596E+02  0.11241487533E+03  0.47000000000E+01 0. -1.
         -5    1    3    3    0  502 -0.17662954924E+02  0.49168658281E+01  0.10554391930E+03  0.10722762912E+03  0.47000000000E+01 0. -1.
        -11    1    4    4    0    0  0.77561847672E+01  0.22414161619E+02  0.14179264745E+03  0.14376267915E+03  0.00000000000E+00 0. -1.
         11    1    4    4    0    0  0.11879920590E+03 -0.44673397075E+02  0.34411930547E+03  0.36677930711E+03  0.00000000000E+00 0.  1.
<mgrwt>
<rscale>  0 0.17332456E+03</rscale>
<asrwt>0</asrwt>
<pdfrwt beam="1">  1        2 0.10330851E+00 0.17926401E+03</pdfrwt>
<pdfrwt beam="2">  1       -2 0.90275560E-02 0.17926401E+03</pdfrwt>
<totfact> 0.33953546E+03</totfact>
</mgrwt>
</event>
<event>
 8    1  0.1154424E-005  0.1444189E+03  0.7546771E-02  0.1217853E+00
          1   -1    0    0  501    0  0.00000000000E+00  0.00000000000E+00  0.31412117956E+03  0.31412117956E+03  0.00000000000E+00 0. -1.
         -1   -1    0    0    0  501 -0.00000000000E+00 -0.00000000000E+00 -0.53936001515E+02  0.53936001515E+02  0.00000000000E+00 0.  1.
         23    2    1    2    0    0 -0.71009245563E+02  0.13752929366E+02  0.14583039713E+03  0.20523969286E+03  0.12500148310E+03 0.  0.
         23    2    1    2    0    0  0.71009245563E+02 -0.13752929366E+02  0.11435478091E+03  0.16281748821E+03  0.90559718022E+02 0.  0.
          5    1    3    3  502    0  0.11346296265E+02 -0.39461906584E+02  0.69625156269E+02  0.80967480483E+02  0.47000000000E+01 0. -1.
         -5    1    3    3    0  502 -0.82355541828E+02  0.53214835950E+02  0.76205240859E+02  0.12427221238E+03  0.47000000000E+01 0. -1.
        -11    1    4    4    0    0  0.45968768977E+02 -0.19524840498E+02  0.46683611135E+01  0.50161147448E+02  0.00000000000E+00 0.  1.
         11    1    4    4    0    0  0.25040476586E+02  0.57719111328E+01  0.10968641980E+03  0.11265634076E+03  0.00000000000E+00 0. -1.
<mgrwt>
<rscale>  0 0.13669032E+03</rscale>
<asrwt>0</asrwt>
<pdfrwt beam="1">  1        1 0.48326334E-01 0.14441893E+03</pdfrwt>
<pdfrwt beam="2">  1       -1 0.82978466E-02 0.14441893E+03</pdfrwt>
<totfact> 0.64441102E+03</totfact>
</mgrwt>
</event>
<event>
 8    1  0.1154424E-005  0.1474449E+03  0.7546771E-02  0.1213538E+00
          2   -1    0    0  501    0  0.00000000000E+00  0.00000000000E+00  0.59081469164E+03  0.59081469164E+03  0.00000000000E+00 0.  1.
         -2   -1    0    0    0  501 -0.00000000000E+00 -0.00000000000E+00 -0.30588039808E+02  0.30588039808E+02  0.00000000000E+00 0. -1.
         23    2    1    2    0    0 -0.32113678378E+02 -0.71296482203E+02  0.34777255894E+03  0.37773767642E+03  0.12500209088E+03 0.  0.
         23    2    1    2    0    0  0.32113678378E+02  0.71296482203E+02  0.21245409289E+03  0.24366505503E+03  0.90119036502E+02 0.  0.
          5    1    3    3  502    0  0.36257496475E+02  0.69706579857E+01  0.14669238054E+03  0.15134047916E+03  0.47000000000E+01 0. -1.
         -5    1    3    3    0  502 -0.68371174853E+02 -0.78267140188E+02  0.20108017839E+03  0.22639719726E+03  0.47000000000E+01 0. -1.
        -11    1    4    4    0    0  0.39048149230E+02  0.26282869034E+02  0.30476433123E+02  0.56074594415E+02  0.00000000000E+00 0. -1.
         11    1    4    4    0    0 -0.69344708523E+01  0.45013613168E+02  0.18197765977E+03  0.18759046061E+03  0.00000000000E+00 0.  1.
<mgrwt>
<rscale>  0 0.13984454E+03</rscale>
<asrwt>0</asrwt>
<pdfrwt beam="1">  1        2 0.90894560E-01 0.14744490E+03</pdfrwt>
<pdfrwt beam="2">  1       -2 0.47058527E-02 0.14744490E+03</pdfrwt>
<totfact> 0.10584426E+04</totfact>
</mgrwt>
</event>
<event>
 7    1  0.1154424E-005  0.2145441E+03  0.7546771E-02  0.1141521E+00
          4   -1    0    0  501    0  0.00000000000E+00  0.00000000000E+00  0.12926574469E+04  0.12926574469E+04  0.00000000000E+00 0. -1.
         -4   -1    0    0    0  501 -0.00000000000E+00 -0.00000000000E+00 -0.67830530995E+02  0.67830530995E+02  0.00000000000E+00 0.  1.
         23    2    1    2    0    0 -0.15197872363E+03  0.71494065561E+02  0.10886892571E+04  0.11063962338E+04  0.10324434033E+03 0.  0.
          5    1    1    2  502    0  0.17023535027E+03 -0.84472490273E+02  0.13030880819E+03  0.23047375466E+03  0.47000000000E+01 0. -1.
         -5    1    1    2    0  502 -0.18256626638E+02  0.12978424712E+02  0.58288505841E+01  0.23617989401E+02  0.47000000000E+01 0.  1.
        -11    1    3    3    0    0 -0.92650553648E+01  0.52030912578E+02  0.31840543199E+03  0.32276163997E+03  0.00000000000E+00 0.  1.
         11    1    3    3    0    0 -0.14271366826E+03  0.19463152984E+02  0.77028382514E+03  0.78363459386E+03  0.00000000000E+00 0. -1.
<mgrwt>
<rscale>  0 0.21005685E+03</rscale>
<asrwt>0</asrwt>
<pdfrwt beam="1">  1        4 0.19887036E+00 0.21454406E+03</pdfrwt>
<pdfrwt beam="2">  1       -4 0.10435467E-01 0.21454406E+03</pdfrwt>
<totfact> 0.18595688E+01</totfact>
</mgrwt>
</event>
<event>
 8    1  0.1154424E-005  0.1729219E+03  0.7546771E-02  0.1181394E+00
          2   -1    0    0  501    0  0.00000000000E+00  0.00000000000E+00  0.35156247834E+03  0.35156247834E+03  0.00000000000E+00 0. -1.
         -2   -1    0    0    0  501 -0.00000000000E+00 -0.00000000000E+00 -0.97745975865E+02  0.97745975865E+02  0.00000000000E+00 0.  1.
         23    2    1    2    0    0  0.81152310358E+01 -0.11924327773E+03  0.22923095898E+02  0.17443466346E+03  0.12496866500E+03 0.  0.
         23    2    1    2    0    0 -0.81152310358E+01  0.11924327773E+03  0.23089340658E+03  0.27487379074E+03  0.89213336310E+02 0.  0.
          5    1    3    3  502    0 -0.50299018168E+02 -0.15831030901E+02 -0.20350824230E+01  0.52979659573E+02  0.47000000000E+01 0.  1.
         -5    1    3    3    0  502  0.58414249204E+02 -0.10341224683E+03  0.24958178321E+02  0.12145500389E+03  0.47000000000E+01 0.  1.
        -11    1    4    4    0    0 -0.29785836169E+02  0.97864498173E+02  0.11003649735E+03  0.15024209393E+03  0.00000000000E+00 0.  1.
         11    1    4    4    0    0  0.21670605133E+02  0.21378779561E+02  0.12085690923E+03  0.12463169681E+03  0.00000000000E+00 0. -1.
<mgrwt>
<rscale>  0 0.16664363E+03</rscale>
<asrwt>0</asrwt>
<pdfrwt beam="1">  1        2 0.54086534E-01 0.17292190E+03</pdfrwt>
<pdfrwt beam="2">  1       -2 0.15037843E-01 0.17292190E+03</pdfrwt>
<totfact> 0.30713616E+03</totfact>
</mgrwt>
</event>
<event>
 8    1  0.1154424E-005  0.1355068E+03  0.7546771E-02  0.1230216E+00
          2   -1    0    0  501    0  0.00000000000E+00  0.00000000000E+00  0.81690863680E+02  0.81690863680E+02  0.00000000000E+00 0. -1.
         -2   -1    0    0    0  501 -0.00000000000E+00 -0.00000000000E+00 -0.33451164154E+03  0.33451164154E+03  0.00000000000E+00 0.  1.
         23    2    1    2    0    0 -0.36381909341E+02  0.37593118703E+02 -0.27405580663E+03  0.30572646277E+03  0.12500079594E+03 0.  0.
         23    2    1    2    0    0  0.36381909341E+02 -0.37593118703E+02  0.21235028774E+02  0.11047604245E+03  0.94958641565E+02 0.  0.
          5    1    3    3  502    0  0.41198032234E+02 -0.11841650142E+02 -0.78558973719E+02  0.89616432031E+02  0.47000000000E+01 0. -1.
         -5    1    3    3    0  502 -0.77579941575E+02  0.49434768845E+02 -0.19549683291E+03  0.21611003074E+03  0.47000000000E+01 0. -1.
        -11    1    4    4    0    0  0.49422870793E+02 -0.43783765754E+02 -0.18193245132E+02  0.68488192189E+02  0.00000000000E+00 0.  1.
         11    1    4    4    0    0 -0.13040961451E+02  0.61906470504E+01  0.39428273907E+02  0.41987850263E+02  0.00000000000E+00 0. -1.
<mgrwt>
<rscale>  0 0.12815752E+03</rscale>
<asrwt>0</asrwt>
<pdfrwt beam="1">  1        2 0.12567826E-01 0.13550677E+03</pdfrwt>
<pdfrwt beam="2">  1       -2 0.51463328E-01 0.13550677E+03</pdfrwt>
<totfact> 0.16979163E+03</totfact>
</mgrwt>
</event>
<event>
 8    1  0.1154424E-005  0.1255875E+03  0.7546771E-02  0.1249433E+00
          1   -1    0    0  501    0  0.00000000000E+00  0.00000000000E+00  0.13632089186E+03  0.13632089186E+03  0.00000000000E+00 0. -1.
         -1   -1    0    0    0  501 -0.00000000000E+00 -0.00000000000E+00 -0.87132215106E+02  0.87132215106E+02  0.00000000000E+00 0.  1.
         23    2    1    2    0    0 -0.11817983447E+02 -0.28653188432E+01  0.23419857275E+02  0.12775249778E+03  0.12499734473E+03 0.  0.
         23    2    1    2    0    0  0.11817983447E+02  0.28653188432E+01  0.25768819483E+02  0.95700609184E+02  0.91360274496E+02 0.  0.
          5    1    3    3  502    0 -0.58892283949E+02 -0.34291476505E+02  0.72116700648E+01  0.68689916689E+02  0.47000000000E+01 0.  1.
         -5    1    3    3    0  502  0.47074300501E+02  0.31426157661E+02  0.16208187210E+02  0.59062581096E+02  0.47000000000E+01 0.  1.
        -11    1    4    4    0    0  0.12667809856E+02 -0.41236244702E+02 -0.26653079720E+01  0.43220425151E+02  0.00000000000E+00 0.  1.
         11    1    4    4    0    0 -0.84982640837E+00  0.44101563545E+02  0.28434127455E+02  0.52480184033E+02  0.00000000000E+00 0. -1.
<mgrwt>
<rscale>  0 0.11623915E+03</rscale>
<asrwt>0</asrwt>
<pdfrwt beam="1">  1        1 0.20972445E-01 0.12558746E+03</pdfrwt>
<pdfrwt beam="2">  1       -1 0.13404956E-01 0.12558746E+03</pdfrwt>
<totfact> 0.86566645E+03</totfact>
</mgrwt>
</event>
<event>
 8    1  0.1154424E-005  0.2211047E+03  0.7546771E-02  0.1136335E+00
          1   -1    0    0  501    0  0.00000000000E+00  0.00000000000E+00  0.10302975848E+04  0.10302975848E+04  0.00000000000E+00 0. -1.
         -1   -1    0    0    0  501 -0.00000000000E+00 -0.00000000000E+00 -0.44113998172E+02  0.44113998172E+02  0.00000000000E+00 0.  1.
         23    2    1    2    0    0 -0.12292940980E+03 -0.13473901744E+03  0.55132739743E+03  0.59401108997E+03  0.12498413196E+03 0.  0.
         23    2    1    2    0    0  0.12292940980E+03  0.13473901744E+03  0.43485618925E+03  0.48040049305E+03  0.91752306669E+02 0.  0.
          5    1    3    3  502    0  0.15702149651E+02 -0.38849289110E+02  0.19887684352E+03  0.20329759875E+03  0.47000000000E+01 0. -1.
         -5    1    3    3    0  502 -0.13863155945E+03 -0.95889728332E+02  0.35245055391E+03  0.39071349122E+03  0.47000000000E+01 0. -1.
        -11    1    4    4    0    0  0.22624245353E+02  0.92641891672E+02  0.19954458893E+03  0.22116152365E+03  0.00000000000E+00 0.  1.
         11    1    4    4    0    0  0.10030516444E+03  0.42097125771E+02  0.23531160031E+03  0.25923896940E+03  0.00000000000E+00 0. -1.
<mgrwt>
<rscale>  0 0.21674324E+03</rscale>
<asrwt>0</asrwt>
<pdfrwt beam="1">  1        1 0.15850730E+00 0.22110467E+03</pdfrwt>
<pdfrwt beam="2">  1       -1 0.67867697E-02 0.22110467E+03</pdfrwt>
<totfact> 0.16801645E+03</totfact>
</mgrwt>
</event>
<event>
 8    1  0.1154424E-005  0.1580324E+03  0.7546771E-02  0.1198637E+00
         -1   -1    0    0    0  501 -0.00000000000E+00  0.00000000000E+00  0.23476249282E+04  0.23476249282E+04  0.00000000000E+00 0.  1.
          1   -1    0    0  501    0  0.00000000000E+00 -0.00000000000E+00 -0.18506054097E+02  0.18506054097E+02  0.00000000000E+00 0. -1.
         23    2    1    2    0    0  0.29062015684E+02 -0.92225504374E+02  0.20567049953E+04  0.20627674767E+04  0.12499632480E+03 0.  0.
         23    2    1    2    0    0 -0.29062015684E+02  0.92225504374E+02  0.27241387889E+03  0.30336350559E+03  0.92032335073E+02 0.  0.
          5    1    3    3  502    0 -0.69529477338E+01 -0.75480798535E+02  0.18824633738E+04  0.18839947288E+04  0.47000000000E+01 0.  1.
         -5    1    3    3    0  502  0.36014963418E+02 -0.16744705840E+02  0.17424162146E+03  0.17877274796E+03  0.47000000000E+01 0.  1.
        -11    1    4    4    0    0 -0.60769995781E+01  0.45418017458E+02  0.28555697050E+02  0.53992166725E+02  0.00000000000E+00 0. -1.
         11    1    4    4    0    0 -0.22985016106E+02  0.46807486917E+02  0.24385818184E+03  0.24937133886E+03  0.00000000000E+00 0.  1.
<mgrwt>
<rscale>  0 0.15150371E+03</rscale>
<asrwt>0</asrwt>
<pdfrwt beam="2">  1        1 0.28470871E-02 0.15803236E+03</pdfrwt>
<pdfrwt beam="1">  1       -1 0.36117283E+00 0.15803236E+03</pdfrwt>
<totfact> 0.59375395E+01</totfact>
</mgrwt>
</event>
<event>
 8    1  0.1154424E-005  0.1369890E+03  0.7546771E-02  0.1229032E+00
         -1   -1    0    0    0  501 -0.00000000000E+00  0.00000000000E+00  0.35370931449E+03  0.35370931449E+03  0.00000000000E+00 0. -1.
          1   -1    0    0  501    0  0.00000000000E+00 -0.00000000000E+00 -0.42722217199E+02  0.42722217199E+02  0.00000000000E+00 0.  1.
         23    2    1    2    0    0  0.55876240730E+02 -0.41794099592E+01  0.19448804133E+03  0.23788984682E+03  0.12500543689E+03 0.  0.
         23    2    1    2    0    0 -0.55876240730E+02  0.41794099592E+01  0.11649905596E+03  0.15854168487E+03  0.91781338281E+02 0.  0.
          5    1    3    3  502    0 -0.38680368877E+02 -0.14882550723E+02  0.59842731581E+02  0.72944525329E+02  0.47000000000E+01 0. -1.
         -5    1    3    3    0  502  0.94556609607E+02  0.10703140763E+02  0.13464530975E+03  0.16494532149E+03  0.47000000000E+01 0. -1.
        -11    1    4    4    0    0 -0.20076644252E+01 -0.23775614456E+02  0.88580670657E+02  0.91737918950E+02  0.00000000000E+00 0. -1.
         11    1    4    4    0    0 -0.53868576305E+02  0.27955024415E+02  0.27918385298E+02  0.66803765918E+02  0.00000000000E+00 0.  1.
<mgrwt>
<rscale>  0 0.12894369E+03</rscale>
<asrwt>0</asrwt>
<pdfrwt beam="2">  1        1 0.65726490E-02 0.13698898E+03</pdfrwt>
<pdfrwt beam="1">  1       -1 0.54416816E-01 0.13698898E+03</pdfrwt>
<totfact> 0.38313767E+03</totfact>
</mgrwt>
</event>
<event>
 7    1  0.1154424E-005  0.2968649E+03  0.7546771E-02  0.1086818E+00
          1   -1    0    0  501    0  0.00000000000E+00  0.00000000000E+00  0.15167227991E+03  0.15167227991E+03  0.00000000000E+00 0. -1.
         -1   -1    0    0    0  501 -0.00000000000E+00 -0.00000000000E+00 -0.14526180674E+03  0.14526180674E+03  0.00000000000E+00 0.  1.
         23    2    1    2    0    0  0.67006286634E+02  0.16879264354E+02  0.43821906869E+02  0.12290519564E+03  0.91709190265E+02 0.  0.
          5    1    1    2  502    0  0.27081184526E+02 -0.46165743724E+02  0.22895885321E+02  0.58403578774E+02  0.47000000000E+01 0. -1.
         -5    1    1    2    0  502 -0.94087471160E+02  0.29286479371E+02 -0.60307319014E+02  0.11562531224E+03  0.47000000000E+01 0.  1.
        -11    1    3    3    0    0  0.12215222853E+02  0.23299987657E+02  0.59917916994E+02  0.65438962943E+02  0.00000000000E+00 0. -1.
         11    1    3    3    0    0  0.54791063780E+02 -0.64207233030E+01 -0.16096010125E+02  0.57466232692E+02  0.00000000000E+00 0.  1.
<mgrwt>
<rscale>  0 0.29686488E+03</rscale>
<asrwt>0</asrwt>
<pdfrwt beam="1">  1        1 0.23334197E-01 0.29686488E+03</pdfrwt>
<pdfrwt beam="2">  1       -1 0.22347970E-01 0.29686488E+03</pdfrwt>
<totfact> 0.35024615E+03</totfact>
</mgrwt>
</event>
<event>
 8    1  0.1154424E-005  0.1331318E+03  0.7546771E-02  0.1236177E+00
          2   -1    0    0  501    0  0.00000000000E+00  0.00000000000E+00  0.32755276106E+03  0.32755276106E+03  0.00000000000E+00 0. -1.
         -2   -1    0    0    0  501 -0.00000000000E+00 -0.00000000000E+00 -0.51216054777E+02  0.51216054777E+02  0.00000000000E+00 0.  1.
         23    2    1    2    0    0 -0.43984708631E+02  0.12726531157E+02  0.73406146514E+02  0.15202807968E+03  0.12500982152E+03 0.  0.
         23    2    1    2    0    0  0.43984708631E+02 -0.12726531157E+02  0.20293055977E+03  0.22674073616E+03  0.90188303884E+02 0.  0.
          5    1    3    3  502    0  0.31126055480E+02  0.31433037044E+02  0.57780944805E+02  0.72921839871E+02  0.47000000000E+01 0. -1.
         -5    1    3    3    0  502 -0.75110764111E+02 -0.18706505887E+02  0.15625201709E+02  0.79106239806E+02  0.47000000000E+01 0. -1.
        -11    1    4    4    0    0  0.61764426869E+02  0.17517594818E+02  0.15087605394E+03  0.16396735714E+03  0.00000000000E+00 0. -1.
         11    1    4    4    0    0 -0.17779718239E+02 -0.30244125975E+02  0.52054505834E+02  0.62773379025E+02  0.00000000000E+00 0.  1.
<mgrwt>
<rscale>  0 0.12429358E+03</rscale>
<asrwt>0</asrwt>
<pdfrwt beam="1">  1        2 0.50392731E-01 0.13313179E+03</pdfrwt>
<pdfrwt beam="2">  1       -2 0.78793932E-02 0.13313179E+03</pdfrwt>
<totfact> 0.91150327E+03</totfact>
</mgrwt>
</event>
<event>
 8    1  0.1154424E-005  0.4782150E+03  0.7546771E-02  0.1019899E+00
         -2   -1    0    0    0  501 -0.00000000000E+00  0.00000000000E+00  0.34910104240E+03  0.34910104240E+03  0.00000000000E+00 0.  1.
          2   -1    0    0  501    0  0.00000000000E+00 -0.00000000000E+00 -0.12354644146E+04  0.12354644146E+04  0.00000000000E+00 0. -1.
         23    2    1    2    0    0  0.42641908204E+03  0.18364746696E+03  0.10138615077E+03  0.48884427421E+03  0.11458598176E+03 0.  0.
         23    2    1    2    0    0 -0.42641908204E+03 -0.18364746696E+03 -0.98774952296E+03  0.10957211828E+04  0.96933815687E+02 0.  0.
          5    1    3    3  502    0  0.92215438639E+02  0.75049350612E+02  0.64852118148E+02  0.13551376085E+03  0.47000000000E+01 0. -1.
         -5    1    3    3    0  502  0.33420364340E+03  0.10859811635E+03  0.36534032622E+02  0.35333051336E+03  0.47000000000E+01 0.  1.
        -11    1    4    4    0    0 -0.86188491058E+02 -0.24219025721E+01 -0.13962897817E+03  0.16410537208E+03  0.00000000000E+00 0.  1.
         11    1    4    4    0    0 -0.34023059098E+03 -0.18122556439E+03 -0.84812054479E+03  0.93161581069E+03  0.00000000000E+00 0. -1.
<mgrwt>
<rscale>  0 0.47723197E+03</rscale>
<asrwt>0</asrwt>
<pdfrwt beam="2">  1        2 0.19007145E+00 0.47821499E+03</pdfrwt>
<pdfrwt beam="1">  1       -2 0.53707853E-01 0.47821499E+03</pdfrwt>
<totfact> 0.61857651E+01</totfact>
</mgrwt>
</event>
<event>
 8    1  0.1154424E-005  0.1330492E+03  0.7546771E-02  0.1235788E+00
         -1   -1    0    0    0  501 -0.00000000000E+00  0.00000000000E+00  0.47458115177E+03  0.47458115177E+03  0.00000000000E+00 0.  1.
          1   -1    0    0  501    0  0.00000000000E+00 -0.00000000000E+00 -0.29649878580E+02  0.29649878580E+02  0.00000000000E+00 0. -1.
         23    2    1    2    0    0 -0.16910245650E+02  0.42299389922E+02  0.28399602655E+03  0.31361733258E+03  0.12500757336E+03 0.  0.
         23    2    1    2    0    0  0.16910245650E+02 -0.42299389922E+02  0.16093524663E+03  0.19061369777E+03  0.91423374331E+02 0.  0.
          5    1    3    3  502    0  0.27116445473E+01  0.62235922298E+02  0.56103668902E+02  0.83966509423E+02  0.47000000000E+01 0.  1.
         -5    1    3    3    0  502 -0.19621890197E+02 -0.19936532376E+02  0.22789235765E+03  0.22965082315E+03  0.47000000000E+01 0.  1.
        -11    1    4    4    0    0 -0.19475461753E+01 -0.63893359298E+02  0.67873584390E+02  0.93236139756E+02  0.00000000000E+00 0. -1.
         11    1    4    4    0    0  0.18857791825E+02  0.21593969377E+02  0.93061662245E+02  0.97377558019E+02  0.00000000000E+00 0.  1.
<mgrwt>
<rscale>  0 0.12454106E+03</rscale>
<asrwt>0</asrwt>
<pdfrwt beam="2">  1        1 0.45615201E-02 0.13304919E+03</pdfrwt>
<pdfrwt beam="1">  1       -1 0.73012479E-01 0.13304919E+03</pdfrwt>
<totfact> 0.35740132E+03</totfact>
</mgrwt>
</event>
<event>
 8    1  0.1154424E-005  0.1292918E+03  0.7546771E-02  0.1241796E+00
          1   -1    0    0  501    0  0.00000000000E+00  0.00000000000E+00  0.14081362975E+03  0.14081362975E+03  0.00000000000E+00 0. -1.
         -1   -1    0    0    0  501 -0.00000000000E+00 -0.00000000000E+00 -0.92605436243E+02  0.92605436243E+02  0.00000000000E+00 0.  1.
         23    2    1    2    0    0 -0.26423800290E+02  0.19386385457E+02  0.19013754441E+02  0.13068244862E+03  0.12506930222E+03 0.  0.
         23    2    1    2    0    0  0.26423800290E+02 -0.19386385457E+02  0.29194439063E+02  0.10273661737E+03  0.92889440268E+02 0.  0.
          5    1    3    3  502    0  0.12441175563E+02  0.63057534994E+02 -0.10055149818E+02  0.65224470920E+02  0.47000000000E+01 0.  1.
         -5    1    3    3    0  502 -0.38864975853E+02 -0.43671149537E+02  0.29068904259E+02  0.65457977701E+02  0.47000000000E+01 0.  1.
        -11    1    4    4    0    0 -0.23059932392E+02  0.22352486902E+02  0.10102202027E+01  0.32131210645E+02  0.00000000000E+00 0.  1.
         11    1    4    4    0    0  0.49483732682E+02 -0.41738872359E+02  0.28184218860E+02  0.70605406724E+02  0.00000000000E+00 0. -1.
<mgrwt>
<rscale>  0 0.12079217E+03</rscale>
<asrwt>0</asrwt>
<pdfrwt beam="1">  1        1 0.21663635E-01 0.12929184E+03</pdfrwt>
<pdfrwt beam="2">  1       -1 0.14246990E-01 0.12929184E+03</pdfrwt>
<totfact> 0.75750268E+03</totfact>
</mgrwt>
</event>
<event>
 8    1  0.1154424E-005  0.1333949E+03  0.7546771E-02  0.1234682E+00
          1   -1    0    0  501    0  0.00000000000E+00  0.00000000000E+00  0.69000822278E+02  0.69000822278E+02  0.00000000000E+00 0. -1.
         -1   -1    0    0    0  501 -0.00000000000E+00 -0.00000000000E+00 -0.21849793533E+03  0.21849793533E+03  0.00000000000E+00 0.  1.
         23    2    1    2    0    0  0.95027187338E+01 -0.45596900838E+02 -0.12070901459E+03  0.17990235440E+03  0.12499924755E+03 0.  0.
         23    2    1    2    0    0 -0.95027187338E+01  0.45596900838E+02 -0.28788098466E+02  0.10759640321E+03  0.92622094237E+02 0.  0.
          5    1    3    3  502    0 -0.19566821803E+02 -0.14487906116E+02  0.20604214932E+02  0.32239472887E+02  0.47000000000E+01 0.  1.
         -5    1    3    3    0  502  0.29069540537E+02 -0.31108994722E+02 -0.14131322952E+03  0.14766288152E+03  0.47000000000E+01 0.  1.
        -11    1    4    4    0    0  0.18735188343E+02  0.32571397851E+02  0.25234758644E+02  0.45262526267E+02  0.00000000000E+00 0. -1.
         11    1    4    4    0    0 -0.28237907077E+02  0.13025502987E+02 -0.54022857111E+02  0.62333876942E+02  0.00000000000E+00 0.  1.
<mgrwt>
<rscale>  0 0.12524819E+03</rscale>
<asrwt>0</asrwt>
<pdfrwt beam="1">  1        1 0.10615511E-01 0.13339487E+03</pdfrwt>
<pdfrwt beam="2">  1       -1 0.33615067E-01 0.13339487E+03</pdfrwt>
<totfact> 0.47380163E+03</totfact>
</mgrwt>
</event>
<event>
 8    1  0.1154424E-005  0.1748977E+03  0.7546771E-02  0.1178844E+00
         -2   -1    0    0    0  501 -0.00000000000E+00  0.00000000000E+00  0.23981749457E+02  0.23981749457E+02  0.00000000000E+00 0.  1.
          2   -1    0    0  501    0  0.00000000000E+00 -0.00000000000E+00 -0.11304483650E+04  0.11304483650E+04  0.00000000000E+00 0. -1.
         23    2    1    2    0    0  0.57062962729E+02  0.10819940463E+03 -0.53100490746E+03  0.55906656170E+03  0.12500366309E+03 0.  0.
         23    2    1    2    0    0 -0.57062962729E+02 -0.10819940463E+03 -0.57546170810E+03  0.59536355278E+03  0.91314235498E+02 0.  0.
          5    1    3    3  502    0  0.31482464856E+02  0.11031297147E+03 -0.23130524062E+03  0.25823303741E+03  0.47000000000E+01 0.  1.
         -5    1    3    3    0  502  0.25580497873E+02 -0.21135668385E+01 -0.29969966684E+03  0.30083352429E+03  0.47000000000E+01 0.  1.
        -11    1    4    4    0    0 -0.81733456434E+02 -0.88523598547E+02 -0.43313297164E+03  0.44957864331E+03  0.00000000000E+00 0.  1.
         11    1    4    4    0    0  0.24670493705E+02 -0.19675806088E+02 -0.14232873647E+03  0.14578490947E+03  0.00000000000E+00 0. -1.
<mgrwt>
<rscale>  0 0.16904848E+03</rscale>
<asrwt>0</asrwt>
<pdfrwt beam="2">  1        2 0.17391515E+00 0.17489771E+03</pdfrwt>
<pdfrwt beam="1">  1       -2 0.36894996E-02 0.17489771E+03</pdfrwt>
<totfact> 0.66967586E+03</totfact>
</mgrwt>
</event>
<event>
 8    1  0.1154424E-005  0.2021098E+03  0.7546771E-02  0.1151968E+00
          1   -1    0    0  501    0  0.00000000000E+00  0.00000000000E+00  0.12524417805E+03  0.12524417805E+03  0.00000000000E+00 0. -1.
         -1   -1    0    0    0  501 -0.00000000000E+00 -0.00000000000E+00 -0.29734142957E+03  0.29734142957E+03  0.00000000000E+00 0.  1.
         23    2    1    2    0    0  0.11703800790E+03 -0.10724505413E+03 -0.90050794304E+02  0.22126348306E+03  0.12509590902E+03 0.  0.
         23    2    1    2    0    0 -0.11703800790E+03  0.10724505413E+03 -0.82046457214E+02  0.20132212456E+03  0.92733919193E+02 0.  0.
          5    1    3    3  502    0  0.72489550689E+00 -0.72290248774E+02 -0.44127072337E+01  0.72580765540E+02  0.47000000000E+01 0. -1.
         -5    1    3    3    0  502  0.11631311239E+03 -0.34954805353E+02 -0.85638087071E+02  0.14868271752E+03  0.47000000000E+01 0. -1.
        -11    1    4    4    0    0 -0.94040166936E+02  0.23410284143E+02 -0.42698983375E+02  0.10589994137E+03  0.00000000000E+00 0. -1.
         11    1    4    4    0    0 -0.22997840959E+02  0.83834769983E+02 -0.39347473840E+02  0.95422183189E+02  0.00000000000E+00 0.  1.
<mgrwt>
<rscale>  0 0.19738017E+03</rscale>
<asrwt>0</asrwt>
<pdfrwt beam="1">  1        1 0.19268335E-01 0.20210983E+03</pdfrwt>
<pdfrwt beam="2">  1       -1 0.45744835E-01 0.20210983E+03</pdfrwt>
<totfact> 0.12893662E+03</totfact>
</mgrwt>
</event>
<event>
 8    1  0.1154424E-005  0.1315646E+03  0.7546771E-02  0.1238887E+00
          2   -1    0    0  501    0  0.00000000000E+00  0.00000000000E+00  0.51946496796E+02  0.51946496796E+02  0.00000000000E+00 0. -1.
         -2   -1    0    0    0  501 -0.00000000000E+00 -0.00000000000E+00 -0.26598435899E+03  0.26598435899E+03  0.00000000000E+00 0.  1.
         23    2    1    2    0    0 -0.51652377013E+01 -0.40725728487E+02 -0.15166534647E+03  0.20077756538E+03  0.12499595514E+03 0.  0.
         23    2    1    2    0    0  0.51652377013E+01  0.40725728487E+02 -0.62372515725E+02  0.11715329040E+03  0.90273462838E+02 0.  0.
          5    1    3    3  502    0 -0.27698990223E+02  0.36430084814E+02 -0.30138940839E+02  0.54998462649E+02  0.47000000000E+01 0. -1.
         -5    1    3    3    0  502  0.22533752521E+02 -0.77155813301E+02 -0.12152640563E+03  0.14577910274E+03  0.47000000000E+01 0. -1.
        -11    1    4    4    0    0 -0.14611429443E+02 -0.93119273792E+01 -0.60913088203E+02  0.63329378461E+02  0.00000000000E+00 0.  1.
         11    1    4    4    0    0  0.19776667144E+02  0.50037655866E+02 -0.14594275221E+01  0.53823911940E+02  0.00000000000E+00 0. -1.
<mgrwt>
<rscale>  0 0.12258823E+03</rscale>
<asrwt>0</asrwt>
<pdfrwt beam="1">  1        2 0.79917688E-02 0.13156464E+03</pdfrwt>
<pdfrwt beam="2">  1       -2 0.40920670E-01 0.13156464E+03</pdfrwt>
<totfact> 0.46091614E+03</totfact>
</mgrwt>
</event>
<event>
 8    1  0.1154424E-005  0.1322320E+03  0.7546771E-02  0.1236936E+00
          2   -1    0    0  501    0  0.00000000000E+00  0.00000000000E+00  0.10525543257E+03  0.10525543257E+03  0.00000000000E+00 0. -1.
         -2   -1    0    0    0  501 -0.00000000000E+00 -0.00000000000E+00 -0.18434837359E+03  0.18434837359E+03  0.00000000000E+00 0.  1.
         23    2    1    2    0    0  0.10161937198E+02  0.41924858475E+02 -0.12140380643E+03  0.17951092900E+03  0.12499732273E+03 0.  0.
         23    2    1    2    0    0 -0.10161937198E+02 -0.41924858475E+02  0.42310865413E+02  0.11009287716E+03  0.92028656105E+02 0.  0.
          5    1    3    3  502    0 -0.45511014120E+02 -0.91484104152E+01 -0.81572364592E+02  0.93973860644E+02  0.47000000000E+01 0. -1.
         -5    1    3    3    0  502  0.55672951318E+02  0.51073268890E+02 -0.39831441836E+02  0.85537068352E+02  0.47000000000E+01 0. -1.
        -11    1    4    4    0    0 -0.45256036184E+02 -0.42499041881E+02  0.10983664246E+02  0.63046952759E+02  0.00000000000E+00 0.  1.
         11    1    4    4    0    0  0.35094098985E+02  0.57418340631E+00  0.31327201168E+02  0.47045924406E+02  0.00000000000E+00 0. -1.
<mgrwt>
<rscale>  0 0.12381295E+03</rscale>
<asrwt>0</asrwt>
<pdfrwt beam="1">  1        2 0.16193143E-01 0.13223195E+03</pdfrwt>
<pdfrwt beam="2">  1       -2 0.28361288E-01 0.13223195E+03</pdfrwt>
<totfact> 0.38543396E+03</totfact>
</mgrwt>
</event>
<event>
 8    1  0.1154424E-005  0.1631502E+03  0.7546771E-02  0.1192989E+00
         -2   -1    0    0    0  501 -0.00000000000E+00  0.00000000000E+00  0.17048667288E+02  0.17048667288E+02  0.00000000000E+00 0.  1.
          2   -1    0    0  501    0  0.00000000000E+00 -0.00000000000E+00 -0.13286185911E+04  0.13286185911E+04  0.00000000000E+00 0. -1.
         23    2    1    2    0    0  0.25016364106E+02  0.10181218756E+03 -0.75362864165E+03  0.77108631582E+03  0.12500574752E+03 0.  0.
         23    2    1    2    0    0 -0.25016364106E+02 -0.10181218756E+03 -0.55794128218E+03  0.57458094259E+03  0.88618537687E+02 0.  0.
          5    1    3    3  502    0  0.82777086599E+01 -0.25166637900E+02 -0.24848773438E+03  0.24994024138E+03  0.47000000000E+01 0.  1.
         -5    1    3    3    0  502  0.16738655446E+02  0.12697882546E+03 -0.50514090727E+03  0.52114607443E+03  0.47000000000E+01 0.  1.
        -11    1    4    4    0    0 -0.47976133392E+02 -0.10318243216E+03 -0.44472347310E+03  0.45905042339E+03  0.00000000000E+00 0.  1.
         11    1    4    4    0    0  0.22959769286E+02  0.13702446058E+01 -0.11321780908E+03  0.11553051920E+03  0.00000000000E+00 0. -1.
<mgrwt>
<rscale>  0 0.15625702E+03</rscale>
<asrwt>0</asrwt>
<pdfrwt beam="2">  1        2 0.20440295E+00 0.16315017E+03</pdfrwt>
<pdfrwt beam="1">  1       -2 0.26228708E-02 0.16315017E+03</pdfrwt>
<totfact> 0.85916120E+03</totfact>
</mgrwt>
</event>
<event>
 8    1  0.1154424E-005  0.2369088E+03  0.7546771E-02  0.1124752E+00
         -1   -1    0    0    0  501 -0.00000000000E+00  0.00000000000E+00  0.12714472984E+04  0.12714472984E+04  0.00000000000E+00 0.  1.
          1   -1    0    0  501    0  0.00000000000E+00 -0.00000000000E+00 -0.53360209028E+02  0.53360209028E+02  0.00000000000E+00 0. -1.
         23    2    1    2    0    0  0.70153163484E+02  0.18863012811E+03  0.94265723788E+03  0.97197143519E+03  0.12499204418E+03 0.  0.
         23    2    1    2    0    0 -0.70153163484E+02 -0.18863012811E+03  0.27542985146E+03  0.35283607221E+03  0.90160408163E+02 0.  0.
          5    1    3    3  502    0  0.18055194643E+02  0.55171839235E+02  0.88998076941E+02  0.10636103421E+03  0.47000000000E+01 0. -1.
         -5    1    3    3    0  502  0.52097968841E+02  0.13345828888E+03  0.85365916094E+03  0.86561040098E+03  0.47000000000E+01 0. -1.
        -11    1    4    4    0    0 -0.71544177476E+02 -0.14972578849E+03  0.15803059973E+03  0.22915071792E+03  0.00000000000E+00 0. -1.
         11    1    4    4    0    0  0.13910139924E+01 -0.38904339624E+02  0.11739925173E+03  0.12368535430E+03  0.00000000000E+00 0.  1.
<mgrwt>
<rscale>  0 0.23270241E+03</rscale>
<asrwt>0</asrwt>
<pdfrwt beam="2">  1        1 0.82092639E-02 0.23690885E+03</pdfrwt>
<pdfrwt beam="1">  1       -1 0.19560725E+00 0.23690885E+03</pdfrwt>
<totfact> 0.15068222E+02</totfact>
</mgrwt>
</event>
<event>
 8    1  0.1154424E-005  0.1679435E+03  0.7546771E-02  0.1186256E+00
         -1   -1    0    0    0  501 -0.00000000000E+00  0.00000000000E+00  0.76866666816E+03  0.76866666816E+03  0.00000000000E+00 0.  1.
          1   -1    0    0  501    0  0.00000000000E+00 -0.00000000000E+00 -0.32218630268E+02  0.32218630268E+02  0.00000000000E+00 0. -1.
         23    2    1    2    0    0 -0.96615035188E+02  0.56964762663E+02  0.36633319062E+03  0.40299506177E+03  0.12500225619E+03 0.  0.
         23    2    1    2    0    0  0.96615035188E+02 -0.56964762663E+02  0.37011484727E+03  0.39789023666E+03  0.93553145569E+02 0.  0.
          5    1    3    3  502    0 -0.35291442857E+02  0.89847015220E+02  0.23926185391E+03  0.25804320728E+03  0.47000000000E+01 0. -1.
         -5    1    3    3    0  502 -0.61323592331E+02 -0.32882252557E+02  0.12707133671E+03  0.14495185450E+03  0.47000000000E+01 0. -1.
        -11    1    4    4    0    0  0.12404247654E+02 -0.42810914663E+01 -0.15192980975E+01  0.13209896696E+02  0.00000000000E+00 0. -1.
         11    1    4    4    0    0  0.84210787534E+02 -0.52683671197E+02  0.37163414537E+03  0.38468033996E+03  0.00000000000E+00 0.  1.
<mgrwt>
<rscale>  0 0.16218116E+03</rscale>
<asrwt>0</asrwt>
<pdfrwt beam="2">  1        1 0.49567130E-02 0.16794348E+03</pdfrwt>
<pdfrwt beam="1">  1       -1 0.11825640E+00 0.16794348E+03</pdfrwt>
<totfact> 0.11392958E+03</totfact>
</mgrwt>
</event>
<event>
 8    1  0.1154424E-005  0.1591987E+03  0.7546771E-02  0.1197470E+00
          2   -1    0    0  501    0  0.00000000000E+00  0.00000000000E+00  0.60051399607E+02  0.60051399607E+02  0.00000000000E+00 0. -1.
         -2   -1    0    0    0  501 -0.00000000000E+00 -0.00000000000E+00 -0.44822078349E+03  0.44822078349E+03  0.00000000000E+00 0.  1.
         23    2    1    2    0    0 -0.60497664369E+02 -0.77837255123E+02 -0.32126837028E+03  0.35854929670E+03  0.12500250695E+03 0.  0.
         23    2    1    2    0    0  0.60497664369E+02  0.77837255123E+02 -0.66901013607E+02  0.14972288640E+03  0.90678505784E+02 0.  0.
          5    1    3    3  502    0  0.34396234141E+02 -0.47948518352E+02 -0.13227502166E+03  0.14491698552E+03  0.47000000000E+01 0. -1.
         -5    1    3    3    0  502 -0.94893898510E+02 -0.29888736771E+02 -0.18899334862E+03  0.21363231118E+03  0.47000000000E+01 0. -1.
        -11    1    4    4    0    0  0.72246972711E+02  0.32723648144E+02 -0.65860928245E+02  0.10309279356E+03  0.00000000000E+00 0.  1.
         11    1    4    4    0    0 -0.11749308341E+02  0.45113606980E+02 -0.10400853617E+01  0.46630092845E+02  0.00000000000E+00 0. -1.
<mgrwt>
<rscale>  0 0.15247060E+03</rscale>
<asrwt>0</asrwt>
<pdfrwt beam="1">  1        2 0.92386771E-02 0.15919872E+03</pdfrwt>
<pdfrwt beam="2">  1       -2 0.68957042E-01 0.15919872E+03</pdfrwt>
<totfact> 0.13643315E+03</totfact>
</mgrwt>
</event>
<event>
 8    1  0.1154424E-005  0.1313785E+03  0.7546771E-02  0.1239617E+00
          2   -1    0    0  501    0  0.00000000000E+00  0.00000000000E+00  0.26293630499E+03  0.26293630499E+03  0.00000000000E+00 0. -1.
         -2   -1    0    0    0  501 -0.00000000000E+00 -0.00000000000E+00 -0.53595615022E+02  0.53595615022E+02  0.00000000000E+00 0.  1.
         23    2    1    2    0    0 -0.35133256549E+02 -0.19994444093E+02  0.78707880491E+02  0.15315100717E+03  0.12500470805E+03 0.  0.
         23    2    1    2    0    0  0.35133256549E+02  0.19994444093E+02  0.13063280948E+03  0.16338091284E+03  0.89410671952E+02 0.  0.
          5    1    3    3  502    0 -0.15519859823E+02  0.98959524801E+01  0.10615086379E+03  0.10783733958E+03  0.47000000000E+01 0. -1.
         -5    1    3    3    0  502 -0.19613396725E+02 -0.29890396574E+02 -0.27442983297E+02  0.45313667592E+02  0.47000000000E+01 0. -1.
        -11    1    4    4    0    0  0.47156364220E+02 -0.19555601048E+02  0.44016536277E+02  0.67406228826E+02  0.00000000000E+00 0.  1.
         11    1    4    4    0    0 -0.12023107671E+02  0.39550045142E+02  0.86616273202E+02  0.95974684017E+02  0.00000000000E+00 0. -1.
<mgrwt>
<rscale>  0 0.12213422E+03</rscale>
<asrwt>0</asrwt>
<pdfrwt beam="1">  1        2 0.40451738E-01 0.13137846E+03</pdfrwt>
<pdfrwt beam="2">  1       -2 0.82454794E-02 0.13137846E+03</pdfrwt>
<totfact> 0.10713596E+04</totfact>
</mgrwt>
</event>
<event>
 8    1  0.1154424E-005  0.1621493E+03  0.7546771E-02  0.1193575E+00
          1   -1    0    0  501    0  0.00000000000E+00  0.00000000000E+00  0.49037797877E+03  0.49037797877E+03  0.00000000000E+00 0. -1.
         -1   -1    0    0    0  501 -0.00000000000E+00 -0.00000000000E+00 -0.53585124430E+02  0.53585124430E+02  0.00000000000E+00 0.  1.
         23    2    1    2    0    0  0.98309864803E+02 -0.31649858037E+02  0.13099917320E+03  0.20845424503E+03  0.12500338339E+03 0.  0.
         23    2    1    2    0    0 -0.98309864803E+02  0.31649858037E+02  0.30579368114E+03  0.33550885817E+03  0.91596263334E+02 0.  0.
          5    1    3    3  502    0  0.97742261294E+02  0.24067918878E+02  0.57236823377E+02  0.11589201143E+03  0.47000000000E+01 0.  1.
         -5    1    3    3    0  502  0.56760350901E+00 -0.55717776914E+02  0.73762349825E+02  0.92562233604E+02  0.47000000000E+01 0.  1.
        -11    1    4    4    0    0 -0.66423660222E+02  0.55614708270E+02  0.13720859793E+03  0.16226921384E+03  0.00000000000E+00 0.  1.
         11    1    4    4    0    0 -0.31886204581E+02 -0.23964850233E+02  0.16858508321E+03  0.17323964434E+03  0.00000000000E+00 0. -1.
<mgrwt>
<rscale>  0 0.15575480E+03</rscale>
<asrwt>0</asrwt>
<pdfrwt beam="1">  1        1 0.75442763E-01 0.16214928E+03</pdfrwt>
<pdfrwt beam="2">  1       -1 0.82438656E-02 0.16214928E+03</pdfrwt>
<totfact> 0.37231352E+03</totfact>
</mgrwt>
</event>
<event>
 7    1  0.1154424E-005  0.1729241E+03  0.7546771E-02  0.1183825E+00
          1   -1    0    0  501    0  0.00000000000E+00  0.00000000000E+00  0.66887741526E+03  0.66887741526E+03  0.00000000000E+00 0. -1.
         -1   -1    0    0    0  501 -0.00000000000E+00 -0.00000000000E+00 -0.53493736615E+02  0.53493736615E+02  0.00000000000E+00 0.  1.
         23    2    1    2    0    0 -0.32440060946E+02  0.10255882712E+03  0.48681094872E+03  0.50688633215E+03  0.91532416952E+02 0.  0.
          5    1    1    2  502    0  0.19471133776E+02 -0.29292622684E+02  0.13600829325E+03  0.14056147632E+03  0.47000000000E+01 0. -1.
         -5    1    1    2    0  502  0.12968927171E+02 -0.73266204435E+02 -0.74355633221E+01  0.74923343400E+02  0.47000000000E+01 0.  1.
        -11    1    3    3    0    0 -0.35688832302E+02  0.10408863449E+02  0.62914230436E+02  0.73076929196E+02  0.00000000000E+00 0.  1.
         11    1    3    3    0    0  0.32487713557E+01  0.92149963671E+02  0.42389671828E+03  0.43380940295E+03  0.00000000000E+00 0. -1.
<mgrwt>
<rscale>  0 0.16439230E+03</rscale>
<asrwt>0</asrwt>
<pdfrwt beam="1">  1        1 0.10290421E+00 0.17292415E+03</pdfrwt>
<pdfrwt beam="2">  1       -1 0.82298061E-02 0.17292415E+03</pdfrwt>
<totfact> 0.24541653E+03</totfact>
</mgrwt>
</event>
<event>
 8    1  0.1154424E-005  0.1292006E+03  0.7546771E-02  0.1243498E+00
         -1   -1    0    0    0  501 -0.00000000000E+00  0.00000000000E+00  0.22625764359E+03  0.22625764359E+03  0.00000000000E+00 0.  1.
          1   -1    0    0  501    0  0.00000000000E+00 -0.00000000000E+00 -0.56049698229E+02  0.56049698229E+02  0.00000000000E+00 0. -1.
         23    2    1    2    0    0 -0.14778655863E+02 -0.29151537144E+02  0.10849118142E+03  0.16871020407E+03  0.12499830288E+03 0.  0.
         23    2    1    2    0    0  0.14778655863E+02  0.29151537144E+02  0.61716763933E+02  0.11359713775E+03  0.89594251863E+02 0.  0.
          5    1    3    3  502    0 -0.33165529716E+02  0.65794191905E+01 -0.16079362446E+02  0.37734294944E+02  0.47000000000E+01 0.  1.
         -5    1    3    3    0  502  0.18386873853E+02 -0.35730956334E+02  0.12457054387E+03  0.13097590912E+03  0.47000000000E+01 0.  1.
        -11    1    4    4    0    0 -0.91815254241E+00  0.23189477407E+02  0.83173986301E+02  0.86351067531E+02  0.00000000000E+00 0.  1.
         11    1    4    4    0    0  0.15696808406E+02  0.59620597369E+01 -0.21457222369E+02  0.27246070216E+02  0.00000000000E+00 0. -1.
<mgrwt>
<rscale>  0 0.11975698E+03</rscale>
<asrwt>0</asrwt>
<pdfrwt beam="2">  1        1 0.86230306E-02 0.12920061E+03</pdfrwt>
<pdfrwt beam="1">  1       -1 0.34808868E-01 0.12920061E+03</pdfrwt>
<totfact> 0.58693806E+03</totfact>
</mgrwt>
</event>
<event>
 8    1  0.1154424E-005  0.2708519E+03  0.7546771E-02  0.1102831E+00
          1   -1    0    0  501    0  0.00000000000E+00  0.00000000000E+00  0.16086015613E+04  0.16086015613E+04  0.00000000000E+00 0. -1.
         -1   -1    0    0    0  501 -0.00000000000E+00 -0.00000000000E+00 -0.46044531597E+02  0.46044531597E+02  0.00000000000E+00 0.  1.
         23    2    1    2    0    0 -0.23747236747E+03 -0.36605318490E+02  0.59850600411E+03  0.65694000094E+03  0.12501061247E+03 0.  0.
         23    2    1    2    0    0  0.23747236747E+03  0.36605318490E+02  0.96405102556E+03  0.99770609192E+03  0.91049389438E+02 0.  0.
          5    1    3    3  502    0 -0.20749812994E+03 -0.65789217839E+02  0.55601818057E+03  0.59712812883E+03  0.47000000000E+01 0. -1.
         -5    1    3    3    0  502 -0.29974237529E+02  0.29183899349E+02  0.42487823533E+02  0.59811872110E+02  0.47000000000E+01 0. -1.
        -11    1    4    4    0    0  0.11350714498E+03 -0.28294706475E+02  0.44803042478E+03  0.46305045503E+03  0.00000000000E+00 0.  1.
         11    1    4    4    0    0  0.12396522249E+03  0.64900024965E+02  0.51602060078E+03  0.53465563689E+03  0.00000000000E+00 0. -1.
<mgrwt>
<rscale>  0 0.26730730E+03</rscale>
<asrwt>0</asrwt>
<pdfrwt beam="1">  1        1 0.24747712E+00 0.27085186E+03</pdfrwt>
<pdfrwt beam="2">  1       -1 0.70837753E-02 0.27085186E+03</pdfrwt>
<totfact> 0.63011721E+02</totfact>
</mgrwt>
</event>
<event>
 8    1  0.1154424E-005  0.1413354E+03  0.7546771E-02  0.1217079E+00
          1   -1    0    0  501    0  0.00000000000E+00  0.00000000000E+00  0.46566430762E+02  0.46566430762E+02  0.00000000000E+00 0. -1.
         -1   -1    0    0    0  501 -0.00000000000E+00 -0.00000000000E+00 -0.40153062018E+03  0.40153062018E+03  0.00000000000E+00 0.  1.
         23    2    1    2    0    0 -0.80447643424E+02 -0.30716566898E+02 -0.23572324004E+03  0.27484750134E+03  0.11207306671E+03 0.  0.
         23    2    1    2    0    0  0.80447643424E+02  0.30716566898E+02 -0.11924094938E+03  0.17324954960E+03  0.91551469758E+02 0.  0.
          5    1    3    3  502    0 -0.56298104034E+02 -0.60383227329E+02 -0.82332902496E+02  0.11668936324E+03  0.47000000000E+01 0. -1.
         -5    1    3    3    0  502 -0.24149539390E+02  0.29666660431E+02 -0.15339033755E+03  0.15815813810E+03  0.47000000000E+01 0.  1.
        -11    1    4    4    0    0 -0.13689558219E+02  0.25051707919E+02 -0.44708233038E+02  0.53045435009E+02  0.00000000000E+00 0.  1.
         11    1    4    4    0    0  0.94137201643E+02  0.56648589788E+01 -0.74532716339E+02  0.12020411459E+03  0.00000000000E+00 0. -1.
<mgrwt>
<rscale>  0 0.13724929E+03</rscale>
<asrwt>0</asrwt>
<pdfrwt beam="1">  1        1 0.71640661E-02 0.14133543E+03</pdfrwt>
<pdfrwt beam="2">  1       -1 0.61773943E-01 0.14133543E+03</pdfrwt>
<totfact> 0.26895833E+03</totfact>
</mgrwt>
</event>
<event>
 8    1  0.1154424E-005  0.2206065E+03  0.7546771E-02  0.1136452E+00
          2   -1    0    0  501    0  0.00000000000E+00  0.00000000000E+00  0.18652009097E+03  0.18652009097E+03  0.00000000000E+00 0. -1.
         -2   -1    0    0    0  501 -0.00000000000E+00 -0.00000000000E+00 -0.39389141547E+03  0.39389141547E+03  0.00000000000E+00 0.  1.
         23    2    1    2    0    0  0.16616227535E+03 -0.73707857345E+02 -0.28572356067E+03  0.36097807825E+03  0.12499787947E+03 0.  0.
         23    2    1    2    0    0 -0.16616227535E+03  0.73707857345E+02  0.78352236165E+02  0.21943342820E+03  0.94705894820E+02 0.  0.
          5    1    3    3  502    0  0.98000728400E+02 -0.69588433269E+02 -0.26241619611E+03  0.28867116723E+03  0.47000000000E+01 0. -1.
         -5    1    3    3    0  502  0.68161546954E+02 -0.41194240759E+01 -0.23307364557E+02  0.72306911015E+02  0.47000000000E+01 0. -1.
        -11    1    4    4    0    0 -0.10640647240E+03  0.74528072943E+02  0.12505924527E+02  0.13051118409E+03  0.00000000000E+00 0.  1.
         11    1    4    4    0    0 -0.59755802955E+02 -0.82021559849E+00  0.65846311638E+02  0.88922244105E+02  0.00000000000E+00 0. -1.
<mgrwt>
<rscale>  0 0.21658846E+03</rscale>
<asrwt>0</asrwt>
<pdfrwt beam="1">  1        2 0.28695399E-01 0.22060648E+03</pdfrwt>
<pdfrwt beam="2">  1       -2 0.60598679E-01 0.22060648E+03</pdfrwt>
<totfact> 0.47843203E+02</totfact>
</mgrwt>
</event>
<event>
 8    1  0.1154424E-005  0.1612859E+03  0.7546771E-02  0.1194673E+00
         -1   -1    0    0    0  501 -0.00000000000E+00  0.00000000000E+00  0.57057099734E+02  0.57057099734E+02  0.00000000000E+00 0.  1.
          1   -1    0    0  501    0  0.00000000000E+00 -0.00000000000E+00 -0.39306149032E+03  0.39306149032E+03  0.00000000000E+00 0. -1.
         23    2    1    2    0    0  0.10190517330E+03 -0.20108880359E+01 -0.20243019606E+03  0.25882642452E+03  0.12499770293E+03 0.  0.
         23    2    1    2    0    0 -0.10190517330E+03  0.20108880359E+01 -0.13357419452E+03  0.19129216553E+03  0.91443529764E+02 0.  0.
          5    1    3    3  502    0  0.11970092179E+03  0.29636133635E+02 -0.14158718362E+03  0.18781808129E+03  0.47000000000E+01 0.  1.
         -5    1    3    3    0  502 -0.17795748497E+02 -0.31647021671E+02 -0.60843012445E+02  0.71008343232E+02  0.47000000000E+01 0.  1.
        -11    1    4    4    0    0 -0.72175711427E+02 -0.37362928577E+02 -0.10958040597E+03  0.13643015475E+03  0.00000000000E+00 0. -1.
         11    1    4    4    0    0 -0.29729461869E+02  0.39373816613E+02 -0.23993788544E+02  0.54862010777E+02  0.00000000000E+00 0.  1.
<mgrwt>
<rscale>  0 0.15481899E+03</rscale>
<asrwt>0</asrwt>
<pdfrwt beam="2">  1        1 0.60470998E-01 0.16128588E+03</pdfrwt>
<pdfrwt beam="1">  1       -1 0.87780153E-02 0.16128588E+03</pdfrwt>
<totfact> 0.44954118E+03</totfact>
</mgrwt>
</event>
<event>
 8    1  0.1154424E-005  0.1329537E+03  0.7546771E-02  0.1235381E+00
          2   -1    0    0  501    0  0.00000000000E+00  0.00000000000E+00  0.42799661831E+03  0.42799661831E+03  0.00000000000E+00 0. -1.
         -2   -1    0    0    0  501 -0.00000000000E+00 -0.00000000000E+00 -0.32592280583E+02  0.32592280583E+02  0.00000000000E+00 0.  1.
         23    2    1    2    0    0  0.22829836005E+02  0.39121605353E+02  0.21839424751E+03  0.25568093959E+03  0.12499997642E+03 0.  0.
         23    2    1    2    0    0 -0.22829836005E+02 -0.39121605353E+02  0.17701009021E+03  0.20490795930E+03  0.92752349467E+02 0.  0.
          5    1    3    3  502    0 -0.28343497752E+01  0.77902027904E+02  0.17612383521E+03  0.19266150321E+03  0.47000000000E+01 0.  1.
         -5    1    3    3    0  502  0.25664185780E+02 -0.38780422551E+02  0.42270412304E+02  0.63019436377E+02  0.47000000000E+01 0.  1.
        -11    1    4    4    0    0  0.14739237158E+02 -0.28243729844E+02  0.10017466680E+02  0.33396152865E+02  0.00000000000E+00 0.  1.
         11    1    4    4    0    0 -0.37569073162E+02 -0.10877875509E+02  0.16699262353E+03  0.17151180644E+03  0.00000000000E+00 0. -1.
<mgrwt>
<rscale>  0 0.12480100E+03</rscale>
<asrwt>0</asrwt>
<pdfrwt beam="1">  1        2 0.65845630E-01 0.13295373E+03</pdfrwt>
<pdfrwt beam="2">  1       -2 0.50141973E-02 0.13295373E+03</pdfrwt>
<totfact> 0.13626737E+04</totfact>
</mgrwt>
</event>
<event>
 8    1  0.1154424E-005  0.1383232E+03  0.7546771E-02  0.1226336E+00
         -2   -1    0    0    0  501 -0.00000000000E+00  0.00000000000E+00  0.16393672457E+03  0.16393672457E+03  0.00000000000E+00 0.  1.
          2   -1    0    0  501    0  0.00000000000E+00 -0.00000000000E+00 -0.96174433059E+02  0.96174433059E+02  0.00000000000E+00 0. -1.
         23    2    1    2    0    0  0.31220455818E+02 -0.50344060714E+02  0.55257246109E+02  0.14895191202E+03  0.12499627008E+03 0.  0.
         23    2    1    2    0    0 -0.31220455818E+02  0.50344060714E+02  0.12505045401E+02  0.11115924561E+03  0.93224247994E+02 0.  0.
          5    1    3    3  502    0  0.71106983569E+02 -0.44494058095E+02  0.47334038179E+01  0.84145228206E+02  0.47000000000E+01 0. -1.
         -5    1    3    3    0  502 -0.39886527751E+02 -0.58500026195E+01  0.50523842291E+02  0.64806683811E+02  0.47000000000E+01 0. -1.
        -11    1    4    4    0    0  0.70963873244E+01 -0.75590160443E+01 -0.28634350648E+02  0.30453628251E+02  0.00000000000E+00 0. -1.
         11    1    4    4    0    0 -0.38316843143E+02  0.57903076759E+02  0.41139396049E+02  0.80705617362E+02  0.00000000000E+00 0.  1.
<mgrwt>
<rscale>  0 0.13075740E+03</rscale>
<asrwt>0</asrwt>
<pdfrwt beam="2">  1        2 0.14796067E-01 0.13832320E+03</pdfrwt>
<pdfrwt beam="1">  1       -2 0.25221035E-01 0.13832320E+03</pdfrwt>
<totfact> 0.52820615E+03</totfact>
</mgrwt>
</event>
<event>
 8    1  0.1154424E-005  0.1257283E+03  0.7546771E-02  0.1249429E+00
         -1   -1    0    0    0  501 -0.00000000000E+00  0.00000000000E+00  0.68743089508E+03  0.68743089508E+03  0.00000000000E+00 0.  1.
          1   -1    0    0  501    0  0.00000000000E+00 -0.00000000000E+00 -0.17222828256E+02  0.17222828256E+02  0.00000000000E+00 0. -1.
         23    2    1    2    0    0 -0.96493667001E+00  0.13488376619E+02  0.38180706381E+03  0.40197543504E+03  0.12499899596E+03 0.  0.
         23    2    1    2    0    0  0.96493667001E+00 -0.13488376619E+02  0.28840100301E+03  0.30267828830E+03  0.90863305371E+02 0.  0.
          5    1    3    3  502    0 -0.43756971468E+02  0.51749809530E+02  0.19525334766E+03  0.20673334301E+03  0.47000000000E+01 0.  1.
         -5    1    3    3    0  502  0.42792034798E+02 -0.38261432910E+02  0.18655371615E+03  0.19524209203E+03  0.47000000000E+01 0.  1.
        -11    1    4    4    0    0 -0.43479489298E+02 -0.15491197047E+02  0.17133946585E+03  0.17744761405E+03  0.00000000000E+00 0.  1.
         11    1    4    4    0    0  0.44444425968E+02  0.20028204280E+01  0.11706153716E+03  0.12523067425E+03  0.00000000000E+00 0. -1.
<mgrwt>
<rscale>  0 0.11624153E+03</rscale>
<asrwt>0</asrwt>
<pdfrwt beam="2">  1        1 0.26496664E-02 0.12572834E+03</pdfrwt>
<pdfrwt beam="1">  1       -1 0.10575858E+00 0.12572834E+03</pdfrwt>
<totfact> 0.34485306E+03</totfact>
</mgrwt>
</event>
<event>
 8    1  0.1154424E-005  0.1697164E+03  0.7546771E-02  0.1184497E+00
         -2   -1    0    0    0  501 -0.00000000000E+00  0.00000000000E+00  0.10440325298E+03  0.10440325298E+03  0.00000000000E+00 0.  1.
          2   -1    0    0  501    0  0.00000000000E+00 -0.00000000000E+00 -0.34960336897E+03  0.34960336897E+03  0.00000000000E+00 0. -1.
         23    2    1    2    0    0  0.87294129622E+02  0.83110806037E+02 -0.19864752450E+01  0.16972802265E+03  0.11948215114E+03 0.  0.
         23    2    1    2    0    0 -0.87294129622E+02 -0.83110806037E+02 -0.24321364074E+03  0.28427859930E+03  0.84461682621E+02 0.  0.
          5    1    3    3  502    0  0.31531301003E+01 -0.99856963864E+01 -0.37509614367E+02  0.39226490178E+02  0.47000000000E+01 0. -1.
         -5    1    3    3    0  502  0.84140999522E+02  0.93096502423E+02  0.35523139122E+02  0.13050153247E+03  0.47000000000E+01 0.  1.
        -11    1    4    4    0    0 -0.10429339448E+03 -0.74047336288E+02 -0.21230945809E+03  0.24786170769E+03  0.00000000000E+00 0. -1.
         11    1    4    4    0    0  0.16999264855E+02 -0.90634697494E+01 -0.30904182649E+02  0.36416891612E+02  0.00000000000E+00 0.  1.
<mgrwt>
<rscale>  0 0.16377733E+03</rscale>
<asrwt>0</asrwt>
<pdfrwt beam="2">  1        2 0.53785134E-01 0.16971640E+03</pdfrwt>
<pdfrwt beam="1">  1       -2 0.16062039E-01 0.16971640E+03</pdfrwt>
<totfact> 0.27696729E+03</totfact>
</mgrwt>
</event>
<event>
 8    1  0.1154424E-005  0.1250345E+03  0.7546771E-02  0.1247108E+00
         -2   -1    0    0    0  501 -0.00000000000E+00  0.00000000000E+00  0.11124851474E+03  0.11124851474E+03  0.00000000000E+00 0.  1.
          2   -1    0    0  501    0  0.00000000000E+00 -0.00000000000E+00 -0.11301323385E+03  0.11301323385E+03  0.00000000000E+00 0. -1.
         23    2    1    2    0    0 -0.77456671216E+00 -0.28943063912E+01  0.11306932698E+02  0.12554468902E+03  0.12499858100E+03 0.  0.
         23    2    1    2    0    0  0.77456671216E+00  0.28943063912E+01 -0.13071651808E+02  0.98717059570E+02  0.97801905943E+02 0.  0.
          5    1    3    3  502    0 -0.14648961339E+02 -0.18747187417E+01 -0.55252349087E+02  0.57384830037E+02  0.47000000000E+01 0. -1.
         -5    1    3    3    0  502  0.13874394627E+02 -0.10195876495E+01  0.66559281786E+02  0.68159858986E+02  0.47000000000E+01 0. -1.
        -11    1    4    4    0    0 -0.81275370783E+01 -0.34819433367E+02  0.25597245392E+02  0.43973500778E+02  0.00000000000E+00 0.  1.
         11    1    4    4    0    0  0.89021037905E+01  0.37713739758E+02 -0.38668897201E+02  0.54743558792E+02  0.00000000000E+00 0. -1.
<mgrwt>
<rscale>  0 0.11760075E+03</rscale>
<asrwt>0</asrwt>
<pdfrwt beam="2">  1        2 0.17386651E-01 0.12503448E+03</pdfrwt>
<pdfrwt beam="1">  1       -2 0.17115156E-01 0.12503448E+03</pdfrwt>
<totfact> 0.84063288E+03</totfact>
</mgrwt>
</event>
<event>
 8    1  0.1154424E-005  0.3819269E+03  0.7546771E-02  0.1051064E+00
          2   -1    0    0  501    0  0.00000000000E+00  0.00000000000E+00  0.16291209338E+04  0.16291209338E+04  0.00000000000E+00 0.  1.
         -2   -1    0    0    0  501 -0.00000000000E+00 -0.00000000000E+00 -0.87612744887E+02  0.87612744887E+02  0.00000000000E+00 0. -1.
         23    2    1    2    0    0  0.24201025482E+03 -0.26771500566E+03  0.74111502235E+03  0.83373837011E+03  0.12501162250E+03 0.  0.
         23    2    1    2    0    0 -0.24201025482E+03  0.26771500566E+03  0.80039316657E+03  0.88299530858E+03  0.93868025340E+02 0.  0.
          5    1    3    3  502    0  0.58188731784E+02 -0.11968102186E+03  0.37671084211E+03  0.39955303035E+03  0.47000000000E+01 0. -1.
         -5    1    3    3    0  502  0.18382152304E+03 -0.14803398380E+03  0.36440418024E+03  0.43418533977E+03  0.47000000000E+01 0. -1.
        -11    1    4    4    0    0 -0.24710286067E+03  0.25165830833E+03  0.78307837888E+03  0.85883844544E+03  0.00000000000E+00 0.  1.
         11    1    4    4    0    0  0.50926058526E+01  0.16056697336E+02  0.17314787693E+02  0.24156863136E+02  0.00000000000E+00 0. -1.
<mgrwt>
<rscale>  0 0.37964893E+03</rscale>
<asrwt>0</asrwt>
<pdfrwt beam="1">  1        2 0.25063397E+00 0.38192695E+03</pdfrwt>
<pdfrwt beam="2">  1       -2 0.13478885E-01 0.38192695E+03</pdfrwt>
<totfact> 0.47100245E+02</totfact>
</mgrwt>
</event>
<event>
 8    1  0.1154424E-005  0.1275117E+03  0.7546771E-02  0.1245731E+00
         -2   -1    0    0    0  501 -0.00000000000E+00  0.00000000000E+00  0.98244112071E+02  0.98244112071E+02  0.00000000000E+00 0.  1.
          2   -1    0    0  501    0  0.00000000000E+00 -0.00000000000E+00 -0.14438472925E+03  0.14438472925E+03  0.00000000000E+00 0. -1.
         23    2    1    2    0    0  0.83592699777E+01  0.23723947630E+02  0.17072664164E+02  0.12864960910E+03  0.12500617175E+03 0.  0.
         23    2    1    2    0    0 -0.83592699777E+01 -0.23723947630E+02 -0.63213281342E+02  0.11397923222E+03  0.91447489592E+02 0.  0.
          5    1    3    3  502    0 -0.19107029628E+02  0.68374985153E+02  0.25018746175E+02  0.75420453698E+02  0.47000000000E+01 0.  1.
         -5    1    3    3    0  502  0.27466299606E+02 -0.44651037523E+02 -0.79460820109E+01  0.53229155406E+02  0.47000000000E+01 0.  1.
        -11    1    4    4    0    0 -0.45030040099E+02 -0.34344597026E+02 -0.36271767794E+02  0.67252486907E+02  0.00000000000E+00 0.  1.
         11    1    4    4    0    0  0.36670770121E+02  0.10620649396E+02 -0.26941513548E+02  0.46726745309E+02  0.00000000000E+00 0. -1.
<mgrwt>
<rscale>  0 0.11841723E+03</rscale>
<asrwt>0</asrwt>
<pdfrwt beam="2">  1        2 0.22213035E-01 0.12751175E+03</pdfrwt>
<pdfrwt beam="1">  1       -2 0.15114479E-01 0.12751175E+03</pdfrwt>
<totfact> 0.78292920E+03</totfact>
</mgrwt>
</event>
<event>
 7    1  0.1154424E-005  0.3726399E+03  0.7546771E-02  0.1054815E+00
          1   -1    0    0  501    0  0.00000000000E+00  0.00000000000E+00  0.86989604212E+03  0.86989604212E+03  0.00000000000E+00 0. -1.
         -1   -1    0    0    0  501 -0.00000000000E+00 -0.00000000000E+00 -0.17079979659E+03  0.17079979659E+03  0.00000000000E+00 0.  1.
         23    2    1    2    0    0  0.31247749109E+03 -0.13041754558E+03  0.18456428980E+03  0.40539777129E+03  0.12502982548E+03 0.  0.
          5    1    3    3  502    0  0.23793318774E+03 -0.15278714562E+03  0.13945085546E+03  0.31531689581E+03  0.47000000000E+01 0.  1.
         -5    1    3    3    0  502  0.74544303354E+02  0.22369600044E+02  0.45113434342E+02  0.90080875477E+02  0.47000000000E+01 0.  1.
        -11    1    1    2    0    0 -0.51479258247E+02  0.56870298235E+02  0.34801064140E+02  0.84234547048E+02  0.00000000000E+00 0.  1.
         11    1    1    2    0    0 -0.26099823285E+03  0.73547247345E+02  0.47973089159E+03  0.55106352037E+03  0.00000000000E+00 0. -1.
<mgrwt>
<rscale>  0 0.36968187E+03</rscale>
<asrwt>0</asrwt>
<pdfrwt beam="1">  1        1 0.13383016E+00 0.37263991E+03</pdfrwt>
<pdfrwt beam="2">  1       -1 0.26276892E-01 0.37263991E+03</pdfrwt>
<totfact> 0.25756908E+02</totfact>
</mgrwt>
</event>
<event>
 8    1  0.1154424E-005  0.1707417E+03  0.7546771E-02  0.1183300E+00
         -2   -1    0    0    0  501 -0.00000000000E+00  0.00000000000E+00  0.33751762483E+02  0.33751762483E+02  0.00000000000E+00 0.  1.
          2   -1    0    0  501    0  0.00000000000E+00 -0.00000000000E+00 -0.75838363223E+03  0.75838363223E+03  0.00000000000E+00 0. -1.
         23    2    1    2    0    0  0.10162027184E+03 -0.56591079911E+02 -0.41506219931E+03  0.44880881977E+03  0.12499398961E+03 0.  0.
         23    2    1    2    0    0 -0.10162027184E+03  0.56591079911E+02 -0.30956967043E+03  0.34332657494E+03  0.92252513403E+02 0.  0.
          5    1    3    3  502    0  0.41766925863E+02  0.34350602352E+02 -0.81709122542E+02  0.98096435637E+02  0.47000000000E+01 0.  1.
         -5    1    3    3    0  502  0.59853345979E+02 -0.90941682263E+02 -0.33335307677E+03  0.35071238414E+03  0.47000000000E+01 0.  1.
        -11    1    4    4    0    0 -0.96160712612E+01  0.50851376697E+02 -0.15437319803E+03  0.16281712320E+03  0.00000000000E+00 0. -1.
         11    1    4    4    0    0 -0.92004200581E+02  0.57397032142E+01 -0.15519647240E+03  0.18050945173E+03  0.00000000000E+00 0.  1.
<mgrwt>
<rscale>  0 0.16487528E+03</rscale>
<asrwt>0</asrwt>
<pdfrwt beam="2">  1        2 0.11667441E+00 0.17074170E+03</pdfrwt>
<pdfrwt beam="1">  1       -2 0.51925786E-02 0.17074170E+03</pdfrwt>
<totfact> 0.68525539E+03</totfact>
</mgrwt>
</event>
<event>
 8    1  0.1154424E-005  0.1378832E+03  0.7546771E-02  0.1234086E+00
          4   -1    0    0  501    0  0.00000000000E+00  0.00000000000E+00  0.52926562446E+02  0.52926562446E+02  0.00000000000E+00 0.  1.
         -4   -1    0    0    0  501 -0.00000000000E+00 -0.00000000000E+00 -0.39443155649E+03  0.39443155649E+03  0.00000000000E+00 0. -1.
         23    2    1    2    0    0 -0.58196773485E+02  0.10679736884E-01 -0.32209584513E+03  0.35036768827E+03  0.12499967590E+03 0.  0.
         23    2    1    2    0    0  0.58196773485E+02 -0.10679736884E-01 -0.19409148918E+02  0.96990430672E+02  0.75123658205E+02 0.  0.
          5    1    3    3  502    0 -0.48940811003E+02  0.50996973646E+02 -0.25937208164E+03  0.26887145821E+03  0.47000000000E+01 0. -1.
         -5    1    3    3    0  502 -0.92559624813E+01 -0.50986293909E+02 -0.62723763483E+02  0.81496230057E+02  0.47000000000E+01 0. -1.
        -11    1    4    4    0    0  0.26569074558E+01  0.16697491529E+02 -0.33304562818E+02  0.37350492434E+02  0.00000000000E+00 0. -1.
         11    1    4    4    0    0  0.55539866029E+02 -0.16708171266E+02  0.13895413900E+02  0.59639938238E+02  0.00000000000E+00 0.  1.
<mgrwt>
<rscale>  0 0.12563109E+03</rscale>
<asrwt>0</asrwt>
<pdfrwt beam="1">  1        4 0.81425481E-02 0.13788322E+03</pdfrwt>
<pdfrwt beam="2">  1       -4 0.60681778E-01 0.13788322E+03</pdfrwt>
<totfact> 0.46267798E+02</totfact>
</mgrwt>
</event>
<event>
 8    1  0.1154424E-005  0.1364799E+03  0.7546771E-02  0.1229477E+00
         -1   -1    0    0    0  501 -0.00000000000E+00  0.00000000000E+00  0.70330310191E+02  0.70330310191E+02  0.00000000000E+00 0. -1.
          1   -1    0    0  501    0  0.00000000000E+00 -0.00000000000E+00 -0.23594175396E+03  0.23594175396E+03  0.00000000000E+00 0.  1.
         23    2    1    2    0    0 -0.31625256091E+02 -0.44740663807E+02 -0.43104251856E+02  0.14312492797E+03  0.12499953863E+03 0.  0.
         23    2    1    2    0    0  0.31625256091E+02  0.44740663807E+02 -0.12250719191E+03  0.16314713618E+03  0.92774415397E+02 0.  0.
          5    1    3    3  502    0  0.33589083119E+02 -0.47403982089E+02 -0.50694019663E+02  0.77248544661E+02  0.47000000000E+01 0. -1.
         -5    1    3    3    0  502 -0.65214339210E+02  0.26633182815E+01  0.75897678076E+01  0.65876383311E+02  0.47000000000E+01 0. -1.
        -11    1    4    4    0    0  0.55921396709E+01  0.50694083559E+02 -0.16163519626E+02  0.53501602786E+02  0.00000000000E+00 0. -1.
         11    1    4    4    0    0  0.26033116420E+02 -0.59534197520E+01 -0.10634367229E+03  0.10964553339E+03  0.00000000000E+00 0.  1.
<mgrwt>
<rscale>  0 0.12864734E+03</rscale>
<asrwt>0</asrwt>
<pdfrwt beam="2">  1        1 0.36298731E-01 0.13647992E+03</pdfrwt>
<pdfrwt beam="1">  1       -1 0.10820048E-01 0.13647992E+03</pdfrwt>
<totfact> 0.61086562E+03</totfact>
</mgrwt>
</event>
<event>
 8    1  0.1154424E-005  0.1292200E+03  0.7546771E-02  0.1242435E+00
         -1   -1    0    0    0  501 -0.00000000000E+00  0.00000000000E+00  0.80268021546E+02  0.80268021546E+02  0.00000000000E+00 0.  1.
          1   -1    0    0  501    0  0.00000000000E+00 -0.00000000000E+00 -0.16818713338E+03  0.16818713338E+03  0.00000000000E+00 0. -1.
         23    2    1    2    0    0  0.30245018571E+02 -0.12556743643E+02 -0.22597867399E+02  0.13118106747E+03  0.12500150356E+03 0.  0.
         23    2    1    2    0    0 -0.30245018571E+02  0.12556743643E+02 -0.65321244436E+02  0.11727408746E+03  0.91727387709E+02 0.  0.
          5    1    3    3  502    0 -0.23054296632E+02 -0.33087355757E+02 -0.52637142983E+02  0.66475804061E+02  0.47000000000E+01 0. -1.
         -5    1    3    3    0  502  0.53299315203E+02  0.20530612114E+02  0.30039275584E+02  0.64705263406E+02  0.47000000000E+01 0. -1.
        -11    1    4    4    0    0 -0.48431013952E+02  0.40483232319E+02 -0.50330581549E+02  0.80731794545E+02  0.00000000000E+00 0. -1.
         11    1    4    4    0    0  0.18185995382E+02 -0.27926488676E+02 -0.14990662887E+02  0.36542292916E+02  0.00000000000E+00 0.  1.
<mgrwt>
<rscale>  0 0.12040227E+03</rscale>
<asrwt>0</asrwt>
<pdfrwt beam="2">  1        1 0.25874943E-01 0.12922000E+03</pdfrwt>
<pdfrwt beam="1">  1       -1 0.12348927E-01 0.12922000E+03</pdfrwt>
<totfact> 0.75634329E+03</totfact>
</mgrwt>
</event>
<event>
 8    1  0.1154424E-005  0.1436172E+03  0.7546771E-02  0.1218218E+00
         -2   -1    0    0    0  501 -0.00000000000E+00  0.00000000000E+00  0.36115099689E+02  0.36115099689E+02  0.00000000000E+00 0.  1.
          2   -1    0    0  501    0  0.00000000000E+00 -0.00000000000E+00 -0.51485568961E+03  0.51485568961E+03  0.00000000000E+00 0. -1.
         23    2    1    2    0    0 -0.70453473097E+02 -0.59760146990E+01 -0.18079953911E+03  0.23089906543E+03  0.12500600166E+03 0.  0.
         23    2    1    2    0    0  0.70453473097E+02  0.59760146990E+01 -0.29794105081E+03  0.32007172386E+03  0.93153819227E+02 0.  0.
          5    1    3    3  502    0 -0.57874368476E+02  0.99975281962E+00 -0.93958277192E+01  0.58828680172E+02  0.47000000000E+01 0. -1.
         -5    1    3    3    0  502 -0.12579104621E+02 -0.69757675187E+01 -0.17140371139E+03  0.17207038526E+03  0.47000000000E+01 0. -1.
        -11    1    4    4    0    0  0.62007991791E+02 -0.77472175426E+01 -0.29745760326E+03  0.30395071338E+03  0.00000000000E+00 0. -1.
         11    1    4    4    0    0  0.84454813058E+01  0.13723232242E+02 -0.48344755233E+00  0.16121010489E+02  0.00000000000E+00 0.  1.
<mgrwt>
<rscale>  0 0.13642812E+03</rscale>
<asrwt>0</asrwt>
<pdfrwt beam="2">  1        2 0.79208566E-01 0.14361722E+03</pdfrwt>
<pdfrwt beam="1">  1       -2 0.55561693E-02 0.14361722E+03</pdfrwt>
<totfact> 0.95997678E+03</totfact>
</mgrwt>
</event>
<event>
 8    1  0.1154424E-005  0.1313856E+03  0.7546771E-02  0.1243542E+00
          1   -1    0    0  501    0  0.00000000000E+00  0.00000000000E+00  0.12785117919E+03  0.12785117919E+03  0.00000000000E+00 0. -1.
         -1   -1    0    0    0  501 -0.00000000000E+00 -0.00000000000E+00 -0.11749899184E+03  0.11749899184E+03  0.00000000000E+00 0.  1.
         23    2    1    2    0    0  0.12737800035E+02  0.38407894489E+02 -0.45344332490E+02  0.13899026736E+03  0.12499907209E+03 0.  0.
         23    2    1    2    0    0 -0.12737800035E+02 -0.38407894489E+02  0.55696519840E+02  0.10635990367E+03  0.81073478266E+02 0.  0.
          5    1    3    3  502    0 -0.40097479560E+02  0.24082233064E+02 -0.65363633947E+02  0.80512461515E+02  0.47000000000E+01 0. -1.
         -5    1    3    3    0  502  0.52835279596E+02  0.14325661425E+02  0.20019301458E+02  0.58477805842E+02  0.47000000000E+01 0. -1.
        -11    1    4    4    0    0 -0.15227766529E+02 -0.63312016244E+02  0.44931519646E+02  0.79114712488E+02  0.00000000000E+00 0. -1.
         11    1    4    4    0    0  0.24899664935E+01  0.24904121755E+02  0.10765000195E+02  0.27245191185E+02  0.00000000000E+00 0.  1.
<mgrwt>
<rscale>  0 0.11973083E+03</rscale>
<asrwt>0</asrwt>
<pdfrwt beam="1">  1        1 0.19669412E-01 0.13138564E+03</pdfrwt>
<pdfrwt beam="2">  1       -1 0.18076768E-01 0.13138564E+03</pdfrwt>
<totfact> 0.58926136E+03</totfact>
</mgrwt>
</event>
<event>
 8    1  0.1154424E-005  0.1444572E+03  0.7546771E-02  0.1218262E+00
         -1   -1    0    0    0  501 -0.00000000000E+00  0.00000000000E+00  0.20645610706E+03  0.20645610706E+03  0.00000000000E+00 0.  1.
          1   -1    0    0  501    0  0.00000000000E+00 -0.00000000000E+00 -0.10946687389E+03  0.10946687389E+03  0.00000000000E+00 0. -1.
         23    2    1    2    0    0  0.61391154242E+02  0.38349438883E+02  0.13221405888E+03  0.19582758629E+03  0.12501333091E+03 0.  0.
         23    2    1    2    0    0 -0.61391154242E+02 -0.38349438883E+02 -0.35224825702E+02  0.12009539465E+03  0.89121053572E+02 0.  0.
          5    1    3    3  502    0  0.89244029283E+02 -0.42517562525E+01  0.10490189666E+03  0.13787339162E+03  0.47000000000E+01 0. -1.
         -5    1    3    3    0  502 -0.27852875041E+02  0.42601195135E+02  0.27312162217E+02  0.57954194671E+02  0.47000000000E+01 0. -1.
        -11    1    4    4    0    0 -0.64807520848E+01  0.15353751558E+02  0.19601486180E+02  0.25728507437E+02  0.00000000000E+00 0.  1.
         11    1    4    4    0    0 -0.54910402158E+02 -0.53703190441E+02 -0.54826311881E+02  0.94366887218E+02  0.00000000000E+00 0. -1.
<mgrwt>
<rscale>  0 0.13639629E+03</rscale>
<asrwt>0</asrwt>
<pdfrwt beam="2">  1        1 0.16841058E-01 0.14445721E+03</pdfrwt>
<pdfrwt beam="1">  1       -1 0.31762478E-01 0.14445721E+03</pdfrwt>
<totfact> 0.28704124E+03</totfact>
</mgrwt>
</event>
<event>
 8    1  0.1154424E-005  0.1348694E+03  0.7546771E-02  0.1233392E+00
          1   -1    0    0  501    0  0.00000000000E+00  0.00000000000E+00  0.31028316929E+02  0.31028316929E+02  0.00000000000E+00 0. -1.
         -1   -1    0    0    0  501 -0.00000000000E+00 -0.00000000000E+00 -0.46128740349E+03  0.46128740349E+03  0.00000000000E+00 0.  1.
         23    2    1    2    0    0  0.47481772510E+02 -0.17552738364E+02 -0.21721630584E+03  0.25568080986E+03  0.12500854236E+03 0.  0.
         23    2    1    2    0    0 -0.47481772510E+02  0.17552738364E+02 -0.21304278072E+03  0.23663491056E+03  0.89700820133E+02 0.  0.
          5    1    3    3  502    0  0.65926771917E+02  0.28988778418E+02 -0.71748486205E+02  0.10176749875E+03  0.47000000000E+01 0. -1.
         -5    1    3    3    0  502 -0.18444999407E+02 -0.46541516782E+02 -0.14546781963E+03  0.15391331111E+03  0.47000000000E+01 0. -1.
        -11    1    4    4    0    0 -0.70356341033E+02  0.30489168266E+02 -0.15569423514E+03  0.17355200650E+03  0.00000000000E+00 0.  1.
         11    1    4    4    0    0  0.22874568524E+02 -0.12936429902E+02 -0.57348545588E+02  0.63082904061E+02  0.00000000000E+00 0. -1.
<mgrwt>
<rscale>  0 0.12607925E+03</rscale>
<asrwt>0</asrwt>
<pdfrwt beam="1">  1        1 0.47735871E-02 0.13486939E+03</pdfrwt>
<pdfrwt beam="2">  1       -1 0.70967294E-01 0.13486939E+03</pdfrwt>
<totfact> 0.35563179E+03</totfact>
</mgrwt>
</event>
<event>
 8    1  0.1154424E-005  0.1356056E+03  0.7546771E-02  0.1231868E+00
         -2   -1    0    0    0  501 -0.00000000000E+00  0.00000000000E+00  0.15631458645E+03  0.15631458645E+03  0.00000000000E+00 0.  1.
          2   -1    0    0  501    0  0.00000000000E+00 -0.00000000000E+00 -0.17722790615E+03  0.17722790615E+03  0.00000000000E+00 0. -1.
         23    2    1    2    0    0 -0.42019347796E+02 -0.31593132061E+02  0.10381912927E+03  0.17078434233E+03  0.12500051361E+03 0.  0.
         23    2    1    2    0    0  0.42019347796E+02  0.31593132061E+02 -0.12473244896E+03  0.16275815027E+03  0.90378537670E+02 0.  0.
          5    1    3    3  502    0  0.13434945954E+02 -0.65867378891E+02  0.70104722103E+02  0.97240791008E+02  0.47000000000E+01 0. -1.
         -5    1    3    3    0  502 -0.55454293750E+02  0.34274246830E+02  0.33714407168E+02  0.73543551327E+02  0.47000000000E+01 0. -1.
        -11    1    4    4    0    0  0.92311576851E+00 -0.27474448236E+02 -0.59879656466E+02  0.65888319960E+02  0.00000000000E+00 0.  1.
         11    1    4    4    0    0  0.41096232028E+02  0.59067580297E+02 -0.64852792494E+02  0.96869830305E+02  0.00000000000E+00 0. -1.
<mgrwt>
<rscale>  0 0.12707082E+03</rscale>
<asrwt>0</asrwt>
<pdfrwt beam="2">  1        2 0.27265832E-01 0.13560560E+03</pdfrwt>
<pdfrwt beam="1">  1       -2 0.24048398E-01 0.13560560E+03</pdfrwt>
<totfact> 0.28705320E+03</totfact>
</mgrwt>
</event>
<event>
 8    1  0.1154424E-005  0.1287893E+03  0.7546771E-02  0.1245251E+00
         -3   -1    0    0    0  501 -0.00000000000E+00  0.00000000000E+00  0.23717258886E+03  0.23717258886E+03  0.00000000000E+00 0.  1.
          3   -1    0    0  501    0  0.00000000000E+00 -0.00000000000E+00 -0.75073980849E+02  0.75073980849E+02  0.00000000000E+00 0. -1.
         23    2    1    2    0    0  0.26619391248E+02 -0.15913432508E+02  0.17618922361E+03  0.21824141379E+03  0.12499937141E+03 0.  0.
         23    2    1    2    0    0 -0.26619391248E+02  0.15913432508E+02 -0.14090615602E+02  0.94005155915E+02  0.87616177536E+02 0.  0.
          5    1    3    3  502    0  0.18746073390E+02  0.53935155404E+02  0.65348599633E+02  0.86907685103E+02  0.47000000000E+01 0. -1.
         -5    1    3    3    0  502  0.78733178587E+01 -0.69848587913E+02  0.11084062398E+03  0.13133372869E+03  0.47000000000E+01 0. -1.
        -11    1    4    4    0    0 -0.16117388687E+02  0.55508536468E+01  0.37047582532E+02  0.40781191324E+02  0.00000000000E+00 0.  1.
         11    1    4    4    0    0 -0.10502002561E+02  0.10362578862E+02 -0.51138198134E+02  0.53223964592E+02  0.00000000000E+00 0. -1.
<mgrwt>
<rscale>  0 0.11870364E+03</rscale>
<asrwt>0</asrwt>
<pdfrwt beam="2">  1        3 0.11549843E-01 0.12878925E+03</pdfrwt>
<pdfrwt beam="1">  1       -3 0.36488090E-01 0.12878925E+03</pdfrwt>
<totfact> 0.98276390E+02</totfact>
</mgrwt>
</event>
<event>
 8    1  0.1154424E-005  0.1714593E+03  0.7546771E-02  0.1182563E+00
          1   -1    0    0  501    0  0.00000000000E+00  0.00000000000E+00  0.36828830955E+03  0.36828830955E+03  0.00000000000E+00 0. -1.
         -1   -1    0    0    0  501 -0.00000000000E+00 -0.00000000000E+00 -0.87079062697E+02  0.87079062697E+02  0.00000000000E+00 0.  1.
         23    2    1    2    0    0  0.11707582715E+03 -0.84040895748E+01  0.47044902019E+02  0.17779623294E+03  0.12498359739E+03 0.  0.
         23    2    1    2    0    0 -0.11707582715E+03  0.84040895748E+01  0.23416434484E+03  0.27757113931E+03  0.91844536923E+02 0.  0.
          5    1    3    3  502    0  0.10332093739E+03  0.20171615927E+02 -0.16463016538E+02  0.10665472848E+03  0.47000000000E+01 0. -1.
         -5    1    3    3    0  502  0.13754889754E+02 -0.28575705502E+02  0.63507918557E+02  0.71141504458E+02  0.47000000000E+01 0.  1.
        -11    1    4    4    0    0 -0.31558716290E+02  0.37625685922E+02  0.39753675398E+02  0.63182272218E+02  0.00000000000E+00 0.  1.
         11    1    4    4    0    0 -0.85517110858E+02 -0.29221596347E+02  0.19441066944E+03  0.21438886710E+03  0.00000000000E+00 0. -1.
<mgrwt>
<rscale>  0 0.16555645E+03</rscale>
<asrwt>0</asrwt>
<pdfrwt beam="1">  1        1 0.56659739E-01 0.17145926E+03</pdfrwt>
<pdfrwt beam="2">  1       -1 0.13396779E-01 0.17145926E+03</pdfrwt>
<totfact> 0.25497090E+03</totfact>
</mgrwt>
</event>
<event>
 7    1  0.1154424E-005  0.1980216E+03  0.7546771E-02  0.1173968E+00
          2   -1    0    0  501    0  0.00000000000E+00  0.00000000000E+00  0.27388650750E+03  0.27388650750E+03  0.00000000000E+00 0. -1.
         -2   -1    0    0    0  501 -0.00000000000E+00 -0.00000000000E+00 -0.22154277258E+03  0.22154277258E+03  0.00000000000E+00 0.  1.
         23    2    1    2    0    0 -0.66979097228E+02  0.17918956911E+02  0.21113957674E+03  0.24160124112E+03  0.94783703034E+02 0.  0.
          5    1    1    2  502    0  0.12330467017E+03  0.22867327427E+02 -0.80951541899E+02  0.14933920612E+03  0.47000000000E+01 0. -1.
         -5    1    1    2    0  502 -0.56325572945E+02 -0.40786284338E+02 -0.77844299925E+02  0.10448883284E+03  0.47000000000E+01 0.  1.
        -11    1    3    3    0    0 -0.54284007824E+02 -0.20626274404E+02  0.18358063044E+03  0.19254621412E+03  0.00000000000E+00 0.  1.
         11    1    3    3    0    0 -0.12695089404E+02  0.38545231315E+02  0.27558946305E+02  0.49055026995E+02  0.00000000000E+00 0. -1.
<mgrwt>
<rscale>  0 0.17377401E+03</rscale>
<asrwt>0</asrwt>
<pdfrwt beam="1">  1        2 0.42136386E-01 0.19802160E+03</pdfrwt>
<pdfrwt beam="2">  1       -2 0.34083503E-01 0.19802160E+03</pdfrwt>
<totfact> 0.97173742E+02</totfact>
</mgrwt>
</event>
<event>
 8    1  0.1154424E-005  0.1319022E+03  0.7546771E-02  0.1237663E+00
          2   -1    0    0  501    0  0.00000000000E+00  0.00000000000E+00  0.87183525862E+02  0.87183525862E+02  0.00000000000E+00 0. -1.
         -2   -1    0    0    0  501 -0.00000000000E+00 -0.00000000000E+00 -0.16280938879E+03  0.16280938879E+03  0.00000000000E+00 0.  1.
         23    2    1    2    0    0  0.30228026329E+01  0.42004439953E+02 -0.69053468303E+02  0.14888439525E+03  0.12499868540E+03 0.  0.
         23    2    1    2    0    0 -0.30228026329E+01 -0.42004439953E+02 -0.65723946221E+01  0.10110851940E+03  0.91685473295E+02 0.  0.
          5    1    3    3  502    0 -0.38638128243E+01  0.68691754099E+02 -0.90405319851E+02  0.11370443258E+03  0.47000000000E+01 0.  1.
         -5    1    3    3    0  502  0.68866154571E+01 -0.26687314146E+02  0.21351851548E+02  0.35179962668E+02  0.47000000000E+01 0.  1.
        -11    1    4    4    0    0 -0.45288087037E+02 -0.70218522614E+01  0.18226084965E+00  0.45829580575E+02  0.00000000000E+00 0.  1.
         11    1    4    4    0    0  0.42265284405E+02 -0.34982587691E+02 -0.67546554718E+01  0.55278938828E+02  0.00000000000E+00 0. -1.
<mgrwt>
<rscale>  0 0.12335479E+03</rscale>
<asrwt>0</asrwt>
<pdfrwt beam="1">  1        2 0.13412850E-01 0.13190217E+03</pdfrwt>
<pdfrwt beam="2">  1       -2 0.25047598E-01 0.13190217E+03</pdfrwt>
<totfact> 0.59825758E+03</totfact>
</mgrwt>
</event>
<event>
 8    1  0.1154424E-005  0.1695962E+03  0.7546771E-02  0.1185082E+00
          1   -1    0    0  501    0  0.00000000000E+00  0.00000000000E+00  0.53338283692E+03  0.53338283692E+03  0.00000000000E+00 0. -1.
         -1   -1    0    0    0  501 -0.00000000000E+00 -0.00000000000E+00 -0.48058359586E+02  0.48058359586E+02  0.00000000000E+00 0.  1.
         23    2    1    2    0    0  0.62738040299E+02 -0.95930481391E+02  0.20937642794E+03  0.26944641924E+03  0.12499666119E+03 0.  0.
         23    2    1    2    0    0 -0.62738040299E+02  0.95930481391E+02  0.27594804939E+03  0.31199477726E+03  0.89747958814E+02 0.  0.
          5    1    3    3  502    0  0.25927420114E+02 -0.78784067014E+02  0.34664921250E+02  0.90016149075E+02  0.47000000000E+01 0.  1.
         -5    1    3    3    0  502  0.36810620185E+02 -0.17146414377E+02  0.17471150669E+03  0.17943027017E+03  0.47000000000E+01 0.  1.
        -11    1    4    4    0    0 -0.33878890141E+02 -0.97619068768E+01  0.81616206121E+02  0.88906012872E+02  0.00000000000E+00 0.  1.
         11    1    4    4    0    0 -0.28859150158E+02  0.10569238827E+03  0.19433184327E+03  0.22308876439E+03  0.00000000000E+00 0. -1.
<mgrwt>
<rscale>  0 0.16324402E+03</rscale>
<asrwt>0</asrwt>
<pdfrwt beam="1">  1        1 0.82058894E-01 0.16959624E+03</pdfrwt>
<pdfrwt beam="2">  1       -1 0.73935941E-02 0.16959624E+03</pdfrwt>
<totfact> 0.39365342E+03</totfact>
</mgrwt>
</event>
<event>
 8    1  0.1154424E-005  0.1660650E+03  0.7546771E-02  0.1188711E+00
         -1   -1    0    0    0  501 -0.00000000000E+00  0.00000000000E+00  0.62423159916E+03  0.62423159916E+03  0.00000000000E+00 0.  1.
          1   -1    0    0  501    0  0.00000000000E+00 -0.00000000000E+00 -0.38663339693E+02  0.38663339693E+02  0.00000000000E+00 0. -1.
         23    2    1    2    0    0 -0.85618744410E+02  0.67990197177E+02  0.28099137360E+03  0.32639505353E+03  0.12499737049E+03 0.  0.
         23    2    1    2    0    0  0.85618744410E+02 -0.67990197177E+02  0.30457688587E+03  0.33649988532E+03  0.92259726344E+02 0.  0.
          5    1    3    3  502    0 -0.11170295682E+03  0.28130854910E+02  0.22433978348E+03  0.25222871369E+03  0.47000000000E+01 0. -1.
         -5    1    3    3    0  502  0.26084212407E+02  0.39859342267E+02  0.56651590117E+02  0.74166339843E+02  0.47000000000E+01 0. -1.
        -11    1    4    4    0    0  0.31370157241E+02  0.12711826334E+01  0.18718575056E+03  0.18980044226E+03  0.00000000000E+00 0.  1.
         11    1    4    4    0    0  0.54248587169E+02 -0.69261379810E+02  0.11739113532E+03  0.14669944306E+03  0.00000000000E+00 0. -1.
<mgrwt>
<rscale>  0 0.15998721E+03</rscale>
<asrwt>0</asrwt>
<pdfrwt beam="2">  1        1 0.59482066E-02 0.16606498E+03</pdfrwt>
<pdfrwt beam="1">  1       -1 0.96035623E-01 0.16606498E+03</pdfrwt>
<totfact> 0.14198001E+03</totfact>
</mgrwt>
</event>
<event>
 8    1  0.1154424E-005  0.1349878E+03  0.7546771E-02  0.1232682E+00
          1   -1    0    0  501    0  0.00000000000E+00  0.00000000000E+00  0.17897587001E+03  0.17897587001E+03  0.00000000000E+00 0. -1.
         -1   -1    0    0    0  501 -0.00000000000E+00 -0.00000000000E+00 -0.86991967994E+02  0.86991967994E+02  0.00000000000E+00 0.  1.
         23    2    1    2    0    0  0.50377229946E+02 -0.76513998828E+01  0.13850168548E+02  0.13569646933E+03  0.12500118160E+03 0.  0.
         23    2    1    2    0    0 -0.50377229946E+02  0.76513998828E+01  0.78133733470E+02  0.13027136868E+03  0.90935911359E+02 0.  0.
          5    1    3    3  502    0  0.59836007270E+02 -0.33436471271E+02  0.53608937260E+02  0.87145588134E+02  0.47000000000E+01 0. -1.
         -5    1    3    3    0  502 -0.94587773241E+01  0.25785071388E+02 -0.39758768713E+02  0.48550881192E+02  0.47000000000E+01 0. -1.
        -11    1    4    4    0    0 -0.25170129915E+02 -0.21733531193E+02 -0.94002637172E+01  0.34557875745E+02  0.00000000000E+00 0.  1.
         11    1    4    4    0    0 -0.25207100031E+02  0.29384931076E+02  0.87533997187E+02  0.95713492936E+02  0.00000000000E+00 0. -1.
<mgrwt>
<rscale>  0 0.12654015E+03</rscale>
<asrwt>0</asrwt>
<pdfrwt beam="1">  1        1 0.27534749E-01 0.13498779E+03</pdfrwt>
<pdfrwt beam="2">  1       -1 0.13383380E-01 0.13498779E+03</pdfrwt>
<totfact> 0.61971218E+03</totfact>
</mgrwt>
</event>
<event>
 8    1  0.1154424E-005  0.1557685E+03  0.7546771E-02  0.1201882E+00
          2   -1    0    0  501    0  0.00000000000E+00  0.00000000000E+00  0.64060745947E+02  0.64060745947E+02  0.00000000000E+00 0. -1.
         -2   -1    0    0    0  501 -0.00000000000E+00 -0.00000000000E+00 -0.32501771826E+03  0.32501771826E+03  0.00000000000E+00 0.  1.
         23    2    1    2    0    0  0.51587117173E+02 -0.77307741371E+02 -0.16947200196E+03  0.23018380424E+03  0.12500442693E+03 0.  0.
         23    2    1    2    0    0 -0.51587117173E+02  0.77307741371E+02 -0.91484970351E+02  0.15889465997E+03  0.90776074112E+02 0.  0.
          5    1    3    3  502    0  0.33843861722E+02  0.24294781788E+02 -0.15292943046E+02  0.44627429966E+02  0.47000000000E+01 0.  1.
         -5    1    3    3    0  502  0.17743255451E+02 -0.10160252316E+03 -0.15417905891E+03  0.18555637427E+03  0.47000000000E+01 0.  1.
        -11    1    4    4    0    0  0.52181053531E+01  0.62597686614E+02 -0.18979599969E+02  0.65619541357E+02  0.00000000000E+00 0.  1.
         11    1    4    4    0    0 -0.56805222526E+02  0.14710054757E+02 -0.72505370382E+02  0.93275118608E+02  0.00000000000E+00 0. -1.
<mgrwt>
<rscale>  0 0.14885893E+03</rscale>
<asrwt>0</asrwt>
<pdfrwt beam="1">  1        2 0.98554995E-02 0.15576850E+03</pdfrwt>
<pdfrwt beam="2">  1       -2 0.50002725E-01 0.15576850E+03</pdfrwt>
<totfact> 0.24321933E+03</totfact>
</mgrwt>
</event>
<event>
 8    1  0.1154424E-005  0.1278577E+03  0.7546771E-02  0.1244396E+00
          4   -1    0    0  501    0  0.00000000000E+00  0.00000000000E+00  0.80299994520E+02  0.80299994520E+02  0.00000000000E+00 0. -1.
         -4   -1    0    0    0  501 -0.00000000000E+00 -0.00000000000E+00 -0.33253771826E+03  0.33253771826E+03  0.00000000000E+00 0.  1.
         23    2    1    2    0    0 -0.30100162836E+02  0.37923282559E+01 -0.28371957980E+03  0.31119829626E+03  0.12420619178E+03 0.  0.
         23    2    1    2    0    0  0.30100162836E+02 -0.37923282559E+01  0.31481856058E+02  0.10163941652E+03  0.91755447651E+02 0.  0.
          5    1    3    3  502    0 -0.19924702202E+02 -0.57082794765E+02 -0.18492555047E+03  0.19461497484E+03  0.47000000000E+01 0. -1.
         -5    1    3    3    0  502 -0.10175460634E+02  0.60875123021E+02 -0.98794029324E+02  0.11658332141E+03  0.47000000000E+01 0.  1.
        -11    1    4    4    0    0 -0.18588177651E+02  0.29903736805E+02  0.22410942158E+02  0.41737323245E+02  0.00000000000E+00 0.  1.
         11    1    4    4    0    0  0.48688340486E+02 -0.33696065061E+02  0.90709138996E+01  0.59902093276E+02  0.00000000000E+00 0. -1.
<mgrwt>
<rscale>  0 0.11921620E+03</rscale>
<asrwt>0</asrwt>
<pdfrwt beam="1">  1        4 0.12353846E-01 0.12785765E+03</pdfrwt>
<pdfrwt beam="2">  1       -4 0.51159648E-01 0.12785765E+03</pdfrwt>
<totfact> 0.32183064E+02</totfact>
</mgrwt>
</event>
<event>
 8    1  0.1154424E-005  0.2001124E+03  0.7546771E-02  0.1153882E+00
          1   -1    0    0  501    0  0.00000000000E+00  0.00000000000E+00  0.36139127110E+03  0.36139127110E+03  0.00000000000E+00 0. -1.
         -1   -1    0    0    0  501 -0.00000000000E+00 -0.00000000000E+00 -0.20006303694E+03  0.20006303694E+03  0.00000000000E+00 0.  1.
         23    2    1    2    0    0  0.68249825239E+02 -0.14058196776E+03 -0.11521915728E+03  0.23091218628E+03  0.12499462095E+03 0.  0.
         23    2    1    2    0    0 -0.68249825239E+02  0.14058196776E+03  0.27654739144E+03  0.33054212176E+03  0.91423772817E+02 0.  0.
          5    1    3    3  502    0 -0.18616161402E+02 -0.55524357836E+02 -0.88695988242E+02  0.10638883451E+03  0.47000000000E+01 0. -1.
         -5    1    3    3    0  502  0.86865986641E+02 -0.85057609923E+02 -0.26523169034E+02  0.12452335177E+03  0.47000000000E+01 0. -1.
        -11    1    4    4    0    0  0.14187200587E+02  0.72928765245E+02  0.11930689134E+03  0.14054898001E+03  0.00000000000E+00 0.  1.
         11    1    4    4    0    0 -0.82437025826E+02  0.67653202514E+02  0.15724050011E+03  0.18999314175E+03  0.00000000000E+00 0. -1.
<mgrwt>
<rscale>  0 0.19516685E+03</rscale>
<asrwt>0</asrwt>
<pdfrwt beam="1">  1        1 0.55598657E-01 0.20011243E+03</pdfrwt>
<pdfrwt beam="2">  1       -1 0.30778929E-01 0.20011243E+03</pdfrwt>
<totfact> 0.67803324E+02</totfact>
</mgrwt>
</event>
<event>
 8    1  0.1154424E-005  0.1860906E+03  0.7546771E-02  0.1167609E+00
          1   -1    0    0  501    0  0.00000000000E+00  0.00000000000E+00  0.64276776384E+02  0.64276776384E+02  0.00000000000E+00 0. -1.
         -1   -1    0    0    0  501 -0.00000000000E+00 -0.00000000000E+00 -0.57195670859E+03  0.57195670859E+03  0.00000000000E+00 0.  1.
         23    2    1    2    0    0  0.66302225748E+02 -0.12085994989E+03 -0.39769270790E+03  0.43907768942E+03  0.12500645903E+03 0.  0.
         23    2    1    2    0    0 -0.66302225748E+02  0.12085994989E+03 -0.10998722430E+03  0.19715579555E+03  0.88148202378E+02 0.  0.
          5    1    3    3  502    0  0.60175784181E+02 -0.40605765561E+01 -0.20382072520E+03  0.21260901040E+03  0.47000000000E+01 0. -1.
         -5    1    3    3    0  502  0.61264415668E+01 -0.11679937334E+03 -0.19387198270E+03  0.22646867902E+03  0.47000000000E+01 0. -1.
        -11    1    4    4    0    0 -0.28561985051E+02  0.87330288914E+02 -0.11411035092E+03  0.14650439768E+03  0.00000000000E+00 0.  1.
         11    1    4    4    0    0 -0.37740240697E+02  0.33529660980E+02  0.41231266203E+01  0.50651397872E+02  0.00000000000E+00 0. -1.
<mgrwt>
<rscale>  0 0.18020049E+03</rscale>
<asrwt>0</asrwt>
<pdfrwt beam="1">  1        1 0.98887351E-02 0.18609064E+03</pdfrwt>
<pdfrwt beam="2">  1       -1 0.87993338E-01 0.18609064E+03</pdfrwt>
<totfact> 0.86381161E+02</totfact>
</mgrwt>
</event>
<event>
 8    1  0.1154424E-005  0.1377111E+03  0.7546771E-02  0.1227705E+00
          1   -1    0    0  501    0  0.00000000000E+00  0.00000000000E+00  0.50966756879E+03  0.50966756879E+03  0.00000000000E+00 0. -1.
         -1   -1    0    0    0  501 -0.00000000000E+00 -0.00000000000E+00 -0.30244337885E+02  0.30244337885E+02  0.00000000000E+00 0.  1.
         23    2    1    2    0    0  0.77319073948E+01  0.57267858252E+02  0.29966297904E+03  0.32979122000E+03  0.12499983121E+03 0.  0.
         23    2    1    2    0    0 -0.77319073948E+01 -0.57267858252E+02  0.17976025187E+03  0.21012068668E+03  0.92182237100E+02 0.  0.
          5    1    3    3  502    0 -0.43758985464E+01  0.93641364251E+02  0.16643003964E+03  0.19107302709E+03  0.47000000000E+01 0. -1.
         -5    1    3    3    0  502  0.12107805941E+02 -0.36373505999E+02  0.13323293940E+03  0.13871819291E+03  0.47000000000E+01 0. -1.
        -11    1    4    4    0    0 -0.40327663229E+02 -0.98473961601E+01  0.12080261498E+03  0.12773630423E+03  0.00000000000E+00 0. -1.
         11    1    4    4    0    0  0.32595755834E+02 -0.47420462092E+02  0.58957636887E+02  0.82384382444E+02  0.00000000000E+00 0.  1.
<mgrwt>
<rscale>  0 0.12983199E+03</rscale>
<asrwt>0</asrwt>
<pdfrwt beam="1">  1        1 0.78410389E-01 0.13771110E+03</pdfrwt>
<pdfrwt beam="2">  1       -1 0.46529754E-02 0.13771110E+03</pdfrwt>
<totfact> 0.82560910E+03</totfact>
</mgrwt>
</event>
<event>
 8    1  0.1154424E-005  0.1674734E+03  0.7546771E-02  0.1187018E+00
          4   -1    0    0  501    0  0.00000000000E+00  0.00000000000E+00  0.41572652660E+03  0.41572652660E+03  0.00000000000E+00 0. -1.
         -4   -1    0    0    0  501 -0.00000000000E+00 -0.00000000000E+00 -0.98611796451E+02  0.98611796451E+02  0.00000000000E+00 0.  1.
         23    2    1    2    0    0  0.10623084076E+03  0.33723827515E+02  0.19385879801E+01  0.16748464887E+03  0.12500024565E+03 0.  0.
         23    2    1    2    0    0 -0.10623084076E+03 -0.33723827515E+02  0.31517614216E+03  0.34685367418E+03  0.92461790106E+02 0.  0.
          5    1    3    3  502    0  0.18000979248E+01  0.33529908119E+02 -0.42095736080E+02  0.54052160800E+02  0.47000000000E+01 0.  1.
         -5    1    3    3    0  502  0.10443074284E+03  0.19391939533E+00  0.44034324060E+02  0.11343248807E+03  0.47000000000E+01 0.  1.
        -11    1    4    4    0    0 -0.44206772801E+02 -0.58992053059E+02  0.12366968901E+03  0.14397393189E+03  0.00000000000E+00 0.  1.
         11    1    4    4    0    0 -0.62024067961E+02  0.25268225544E+02  0.19150645316E+03  0.20287974228E+03  0.00000000000E+00 0. -1.
<mgrwt>
<rscale>  0 0.16149647E+03</rscale>
<asrwt>0</asrwt>
<pdfrwt beam="1">  1        4 0.63957926E-01 0.16747343E+03</pdfrwt>
<pdfrwt beam="2">  1       -4 0.15171046E-01 0.16747343E+03</pdfrwt>
<totfact> 0.14816664E+02</totfact>
</mgrwt>
</event>
<event>
 8    1  0.1154424E-005  0.1665045E+03  0.7546771E-02  0.1189667E+00
          2   -1    0    0  501    0  0.00000000000E+00  0.00000000000E+00  0.80597374406E+02  0.80597374406E+02  0.00000000000E+00 0.  1.
         -2   -1    0    0    0  501 -0.00000000000E+00 -0.00000000000E+00 -0.28977314520E+03  0.28977314520E+03  0.00000000000E+00 0. -1.
         23    2    1    2    0    0 -0.10851090751E+03  0.17998220444E+02 -0.12041979376E+03  0.20548644413E+03  0.12500079602E+03 0.  0.
         23    2    1    2    0    0  0.10851090751E+03 -0.17998220444E+02 -0.88755977039E+02  0.16488407548E+03  0.84915145286E+02 0.  0.
          5    1    3    3  502    0 -0.10175772047E+03  0.51909942556E+02 -0.45897701250E+02  0.12319888308E+03  0.47000000000E+01 0. -1.
         -5    1    3    3    0  502 -0.67531870355E+01 -0.33911722112E+02 -0.74522092506E+02  0.82287561048E+02  0.47000000000E+01 0. -1.
        -11    1    4    4    0    0  0.12079645251E+03 -0.11660301296E+02 -0.89876062285E+02  0.15101474146E+03  0.00000000000E+00 0. -1.
         11    1    4    4    0    0 -0.12285545005E+02 -0.63379191472E+01  0.11200852463E+01  0.13869334020E+02  0.00000000000E+00 0.  1.
<mgrwt>
<rscale>  0 0.15914385E+03</rscale>
<asrwt>0</asrwt>
<pdfrwt beam="1">  1        2 0.12399596E-01 0.16650451E+03</pdfrwt>
<pdfrwt beam="2">  1       -2 0.44580484E-01 0.16650451E+03</pdfrwt>
<totfact> 0.23100548E+03</totfact>
</mgrwt>
</event>
<event>
 8    1  0.1154424E-005  0.1960419E+03  0.7546771E-02  0.1157990E+00
          2   -1    0    0  501    0  0.00000000000E+00  0.00000000000E+00  0.38231849393E+03  0.38231849393E+03  0.00000000000E+00 0. -1.
         -2   -1    0    0    0  501 -0.00000000000E+00 -0.00000000000E+00 -0.89970088764E+02  0.89970088764E+02  0.00000000000E+00 0.  1.
         23    2    1    2    0    0 -0.99127305077E+02  0.11387239224E+03  0.15307391278E+03  0.24872486286E+03  0.12505714816E+03 0.  0.
         23    2    1    2    0    0  0.99127305077E+02 -0.11387239224E+03  0.13927449238E+03  0.22356371983E+03  0.88262156483E+02 0.  0.
          5    1    3    3  502    0 -0.11369547021E+03  0.45967572491E+02  0.12005142175E+03  0.17168025959E+03  0.47000000000E+01 0.  1.
         -5    1    3    3    0  502  0.14568165130E+02  0.67904819751E+02  0.33022491025E+02  0.77044603277E+02  0.47000000000E+01 0.  1.
        -11    1    4    4    0    0  0.61920822092E+02 -0.14222592114E+02  0.27390190207E+02  0.69185929600E+02  0.00000000000E+00 0.  1.
         11    1    4    4    0    0  0.37206482985E+02 -0.99649800128E+02  0.11188430218E+03  0.15437779023E+03  0.00000000000E+00 0. -1.
<mgrwt>
<rscale>  0 0.19052297E+03</rscale>
<asrwt>0</asrwt>
<pdfrwt beam="1">  1        2 0.58818229E-01 0.19604192E+03</pdfrwt>
<pdfrwt beam="2">  1       -2 0.13841552E-01 0.19604192E+03</pdfrwt>
<totfact> 0.32305819E+03</totfact>
</mgrwt>
</event>
<event>
 8    1  0.1154424E-005  0.1308431E+03  0.7546771E-02  0.1242285E+00
          2   -1    0    0  501    0  0.00000000000E+00  0.00000000000E+00  0.78516718709E+02  0.78516718709E+02  0.00000000000E+00 0. -1.
         -2   -1    0    0    0  501 -0.00000000000E+00 -0.00000000000E+00 -0.20467485362E+03  0.20467485362E+03  0.00000000000E+00 0.  1.
         23    2    1    2    0    0 -0.99088944225E-01  0.38677940879E+02 -0.13582203882E+03  0.18859361177E+03  0.12499572490E+03 0.  0.
         23    2    1    2    0    0  0.99088944225E-01 -0.38677940879E+02  0.96639039097E+01  0.94597960555E+02  0.85786888118E+02 0.  0.
          5    1    3    3  502    0  0.24677742444E+02  0.79236165052E+01 -0.14533248244E+03  0.14770035586E+03  0.47000000000E+01 0. -1.
         -5    1    3    3    0  502 -0.24776831388E+02  0.30754324374E+02  0.95104436151E+01  0.40893255912E+02  0.47000000000E+01 0. -1.
        -11    1    4    4    0    0 -0.32540106660E+02  0.10933361076E+02 -0.59627830002E+00  0.34332964825E+02  0.00000000000E+00 0.  1.
         11    1    4    4    0    0  0.32639195604E+02 -0.49611301955E+02  0.10260182210E+02  0.60264995730E+02  0.00000000000E+00 0. -1.
<mgrwt>
<rscale>  0 0.12049364E+03</rscale>
<asrwt>0</asrwt>
<pdfrwt beam="1">  1        2 0.12079495E-01 0.13084313E+03</pdfrwt>
<pdfrwt beam="2">  1       -2 0.31488439E-01 0.13084313E+03</pdfrwt>
<totfact> 0.45101256E+03</totfact>
</mgrwt>
</event>
<event>
 8    1  0.1154424E-005  0.2074907E+03  0.7546771E-02  0.1147115E+00
         -2   -1    0    0    0  501 -0.00000000000E+00  0.00000000000E+00  0.45856874228E+02  0.45856874228E+02  0.00000000000E+00 0.  1.
          2   -1    0    0  501    0  0.00000000000E+00 -0.00000000000E+00 -0.93448134587E+03  0.93448134587E+03  0.00000000000E+00 0. -1.
         23    2    1    2    0    0 -0.14633162782E+03  0.77542640111E+02 -0.32731785111E+03  0.38754271157E+03  0.12500628503E+03 0.  0.
         23    2    1    2    0    0  0.14633162782E+03 -0.77542640111E+02 -0.56130662053E+03  0.59279550853E+03  0.94422382628E+02 0.  0.
          5    1    3    3  502    0 -0.14179149717E+02 -0.28457228795E+02 -0.92718561836E+02  0.98130952642E+02  0.47000000000E+01 0.  1.
         -5    1    3    3    0  502 -0.13215247811E+03  0.10599986891E+03 -0.23459928927E+03  0.28941175893E+03  0.47000000000E+01 0.  1.
        -11    1    4    4    0    0  0.10552947341E+03 -0.81163196034E+01 -0.37887608170E+03  0.39338204037E+03  0.00000000000E+00 0.  1.
         11    1    4    4    0    0  0.40802154417E+02 -0.69426320507E+02 -0.18243053883E+03  0.19941346816E+03  0.00000000000E+00 0. -1.
<mgrwt>
<rscale>  0 0.20314172E+03</rscale>
<asrwt>0</asrwt>
<pdfrwt beam="2">  1        2 0.14376637E+00 0.20749067E+03</pdfrwt>
<pdfrwt beam="1">  1       -2 0.70549033E-02 0.20749067E+03</pdfrwt>
<totfact> 0.32985824E+03</totfact>
</mgrwt>
</event>
<event>
 8    1  0.1154424E-005  0.1630061E+03  0.7546771E-02  0.1191643E+00
          2   -1    0    0  501    0  0.00000000000E+00  0.00000000000E+00  0.25686655531E+02  0.25686655531E+02  0.00000000000E+00 0.  1.
         -2   -1    0    0    0  501 -0.00000000000E+00 -0.00000000000E+00 -0.97173118583E+03  0.97173118583E+03  0.00000000000E+00 0. -1.
         23    2    1    2    0    0 -0.71697708084E+02 -0.76191598961E+02 -0.63495414293E+03  0.65554385672E+03  0.12500105347E+03 0.  0.
         23    2    1    2    0    0  0.71697708084E+02  0.76191598961E+02 -0.31109038737E+03  0.34187398464E+03  0.95681090930E+02 0.  0.
          5    1    3    3  502    0 -0.59687407069E+02 -0.75078362340E+02 -0.63537613844E+03  0.64259184118E+03  0.47000000000E+01 0.  1.
         -5    1    3    3    0  502 -0.12010301015E+02 -0.11132366212E+01  0.42199551626E+00  0.12952015537E+02  0.47000000000E+01 0.  1.
        -11    1    4    4    0    0 -0.12715749507E+01  0.61634494380E+02 -0.94234984943E+02  0.11260843746E+03  0.00000000000E+00 0.  1.
         11    1    4    4    0    0  0.72969283035E+02  0.14557104582E+02 -0.21685540243E+03  0.22926554718E+03  0.00000000000E+00 0. -1.
<mgrwt>
<rscale>  0 0.15741785E+03</rscale>
<asrwt>0</asrwt>
<pdfrwt beam="1">  1        2 0.39517934E-02 0.16300609E+03</pdfrwt>
<pdfrwt beam="2">  1       -2 0.14949710E+00 0.16300609E+03</pdfrwt>
<totfact> 0.67687882E+02</totfact>
</mgrwt>
</event>
<event>
 8    1  0.1154424E-005  0.2853372E+03  0.7546771E-02  0.1094725E+00
          1   -1    0    0  501    0  0.00000000000E+00  0.00000000000E+00  0.78215516122E+03  0.78215516122E+03  0.00000000000E+00 0. -1.
         -1   -1    0    0    0  501 -0.00000000000E+00 -0.00000000000E+00 -0.10006779933E+03  0.10006779933E+03  0.00000000000E+00 0.  1.
         23    2    1    2    0    0  0.24844123194E+03  0.63798131924E+02  0.30508274364E+03  0.41772335157E+03  0.12499628240E+03 0.  0.
         23    2    1    2    0    0 -0.24844123194E+03 -0.63798131924E+02  0.37700461825E+03  0.46449960898E+03  0.88510774426E+02 0.  0.
          5    1    3    3  502    0  0.20117569500E+02  0.51767584763E+02  0.73639536453E+02  0.92355133933E+02  0.47000000000E+01 0. -1.
         -5    1    3    3    0  502  0.22832366244E+03  0.12030547161E+02  0.23144320718E+03  0.32536821763E+03  0.47000000000E+01 0. -1.
        -11    1    4    4    0    0 -0.20047487974E+03 -0.16663763748E+02  0.25093389022E+03  0.32161417210E+03  0.00000000000E+00 0.  1.
         11    1    4    4    0    0 -0.47966352197E+02 -0.47134368176E+02  0.12607072803E+03  0.14288543688E+03  0.00000000000E+00 0. -1.
<mgrwt>
<rscale>  0 0.28177258E+03</rscale>
<asrwt>0</asrwt>
<pdfrwt beam="1">  1        1 0.12033156E+00 0.28533720E+03</pdfrwt>
<pdfrwt beam="2">  1       -1 0.15395047E-01 0.28533720E+03</pdfrwt>
<totfact> 0.73746626E+02</totfact>
</mgrwt>
</event>
<event>
 8    1  0.1154424E-005  0.1418056E+03  0.7546771E-02  0.1221603E+00
          2   -1    0    0  501    0  0.00000000000E+00  0.00000000000E+00  0.23139471699E+03  0.23139471699E+03  0.00000000000E+00 0. -1.
         -2   -1    0    0    0  501 -0.00000000000E+00 -0.00000000000E+00 -0.70792906570E+02  0.70792906570E+02  0.00000000000E+00 0.  1.
         23    2    1    2    0    0 -0.63701486428E+02 -0.20674941707E+02  0.10265316060E+03  0.17506145166E+03  0.12499403141E+03 0.  0.
         23    2    1    2    0    0  0.63701486428E+02  0.20674941707E+02  0.57948649813E+02  0.12712617189E+03  0.91201343065E+02 0.  0.
          5    1    3    3  502    0 -0.66975849188E+02 -0.76239160008E+01  0.12870543793E+03  0.14536529236E+03  0.47000000000E+01 0.  1.
         -5    1    3    3    0  502  0.32743627608E+01 -0.13051025706E+02 -0.26052277328E+02  0.29696159305E+02  0.47000000000E+01 0.  1.
        -11    1    4    4    0    0  0.65971753178E+02  0.77004123138E+01 -0.12987066361E+01  0.66432335546E+02  0.00000000000E+00 0.  1.
         11    1    4    4    0    0 -0.22702667504E+01  0.12974529393E+02  0.59247356449E+02  0.60693836345E+02  0.00000000000E+00 0. -1.
<mgrwt>
<rscale>  0 0.13402449E+03</rscale>
<asrwt>0</asrwt>
<pdfrwt beam="1">  1        2 0.35599187E-01 0.14180564E+03</pdfrwt>
<pdfrwt beam="2">  1       -2 0.10891216E-01 0.14180564E+03</pdfrwt>
<totfact> 0.79877907E+03</totfact>
</mgrwt>
</event>
<event>
 8    1  0.1154424E-005  0.1919250E+03  0.7546771E-02  0.1161629E+00
         -1   -1    0    0    0  501 -0.00000000000E+00  0.00000000000E+00  0.62357370487E+02  0.62357370487E+02  0.00000000000E+00 0.  1.
          1   -1    0    0  501    0  0.00000000000E+00 -0.00000000000E+00 -0.56585655036E+03  0.56585655036E+03  0.00000000000E+00 0. -1.
         23    2    1    2    0    0  0.65895298971E+02 -0.12975624847E+03 -0.18484021974E+03  0.26646032908E+03  0.12512524006E+03 0.  0.
         23    2    1    2    0    0 -0.65895298971E+02  0.12975624847E+03 -0.31865896014E+03  0.36175359177E+03  0.90239979124E+02 0.  0.
          5    1    3    3  502    0  0.54901770402E+02 -0.14674563621E+03 -0.18871843052E+03  0.24532676609E+03  0.47000000000E+01 0. -1.
         -5    1    3    3    0  502  0.10993528569E+02  0.16989387735E+02  0.38782107884E+01  0.21133562996E+02  0.47000000000E+01 0. -1.
        -11    1    4    4    0    0 -0.30240938685E+02  0.12847728347E+03 -0.27745934554E+03  0.30725334037E+03  0.00000000000E+00 0. -1.
         11    1    4    4    0    0 -0.35654360286E+02  0.12789650019E+01 -0.41199614600E+02  0.54500251395E+02  0.00000000000E+00 0.  1.
<mgrwt>
<rscale>  0 0.18652974E+03</rscale>
<asrwt>0</asrwt>
<pdfrwt beam="2">  1        1 0.87054852E-01 0.19192499E+03</pdfrwt>
<pdfrwt beam="1">  1       -1 0.95934418E-02 0.19192499E+03</pdfrwt>
<totfact> 0.24552126E+03</totfact>
</mgrwt>
</event>
<event>
 8    1  0.1154424E-005  0.1409033E+03  0.7546771E-02  0.1223122E+00
         -2   -1    0    0    0  501 -0.00000000000E+00  0.00000000000E+00  0.25225217879E+03  0.25225217879E+03  0.00000000000E+00 0.  1.
          2   -1    0    0  501    0  0.00000000000E+00 -0.00000000000E+00 -0.63295347860E+02  0.63295347860E+02  0.00000000000E+00 0. -1.
         23    2    1    2    0    0 -0.63983273237E+02 -0.11663691393E+02  0.10144280901E+03  0.17362140273E+03  0.12499538805E+03 0.  0.
         23    2    1    2    0    0  0.63983273237E+02  0.11663691393E+02  0.87514021911E+02  0.14192612391E+03  0.90853836831E+02 0.  0.
          5    1    3    3  502    0 -0.37783303102E+02 -0.33838533319E+02 -0.14216335210E+02  0.52884955491E+02  0.47000000000E+01 0.  1.
         -5    1    3    3    0  502 -0.26199970135E+02  0.22174841926E+02  0.11565914422E+03  0.12073644724E+03  0.47000000000E+01 0.  1.
        -11    1    4    4    0    0  0.41056200411E+02  0.28288760593E+01  0.10432931711E+03  0.11215266622E+03  0.00000000000E+00 0.  1.
         11    1    4    4    0    0  0.22927072826E+02  0.88348153338E+01 -0.16815295198E+02  0.29773457692E+02  0.00000000000E+00 0. -1.
<mgrwt>
<rscale>  0 0.13296476E+03</rscale>
<asrwt>0</asrwt>
<pdfrwt beam="2">  1        2 0.97377460E-02 0.14090333E+03</pdfrwt>
<pdfrwt beam="1">  1       -2 0.38808027E-01 0.14090333E+03</pdfrwt>
<totfact> 0.40039674E+03</totfact>
</mgrwt>
</event>
<event>
 8    1  0.1154424E-005  0.2270858E+03  0.7546771E-02  0.1131756E+00
          2   -1    0    0  501    0  0.00000000000E+00  0.00000000000E+00  0.45986019933E+03  0.45986019933E+03  0.00000000000E+00 0. -1.
         -2   -1    0    0    0  501 -0.00000000000E+00 -0.00000000000E+00 -0.13650940229E+03  0.13650940229E+03  0.00000000000E+00 0.  1.
         23    2    1    2    0    0 -0.16540364246E+03  0.92657473323E+02  0.21298692016E+02  0.22808240518E+03  0.12499670782E+03 0.  0.
         23    2    1    2    0    0  0.16540364246E+03 -0.92657473323E+02  0.30205210502E+03  0.36828719645E+03  0.91957667513E+02 0.  0.
          5    1    3    3  502    0 -0.15527453806E+03  0.58809151829E+02  0.58932191110E+02  0.17624923165E+03  0.47000000000E+01 0. -1.
         -5    1    3    3    0  502 -0.10129104407E+02  0.33848321494E+02 -0.37633499094E+02  0.51833173529E+02  0.47000000000E+01 0. -1.
        -11    1    4    4    0    0  0.14440915999E+03 -0.73637213411E+02  0.17676866774E+03  0.23984079424E+03  0.00000000000E+00 0.  1.
         11    1    4    4    0    0  0.20994482473E+02 -0.19020259912E+02  0.12528343729E+03  0.12844640221E+03  0.00000000000E+00 0. -1.
<mgrwt>
<rscale>  0 0.22287702E+03</rscale>
<asrwt>0</asrwt>
<pdfrwt beam="1">  1        2 0.70747722E-01 0.22708578E+03</pdfrwt>
<pdfrwt beam="2">  1       -2 0.21001447E-01 0.22708578E+03</pdfrwt>
<totfact> 0.13183558E+03</totfact>
</mgrwt>
</event>
<event>
 8    1  0.1154424E-005  0.1457970E+03  0.7546771E-02  0.1215633E+00
         -1   -1    0    0    0  501 -0.00000000000E+00  0.00000000000E+00  0.74446364357E+02  0.74446364357E+02  0.00000000000E+00 0.  1.
          1   -1    0    0  501    0  0.00000000000E+00 -0.00000000000E+00 -0.25675691959E+03  0.25675691959E+03  0.00000000000E+00 0. -1.
         23    2    1    2    0    0 -0.29449034326E+02  0.69024563359E+02 -0.50588325030E+02  0.15432418447E+03  0.12500055725E+03 0.  0.
         23    2    1    2    0    0  0.29449034326E+02 -0.69024563359E+02 -0.13172223020E+03  0.17687909948E+03  0.91125374810E+02 0.  0.
          5    1    3    3  502    0 -0.23461086576E+02  0.27662569172E+02 -0.89713466033E+02  0.96882590304E+02  0.47000000000E+01 0. -1.
         -5    1    3    3    0  502 -0.59879477508E+01  0.41361994188E+02  0.39125141002E+02  0.57441594162E+02  0.47000000000E+01 0. -1.
        -11    1    4    4    0    0  0.15490207795E+02 -0.28370668820E+02  0.57608285843E+01  0.32833344831E+02  0.00000000000E+00 0.  1.
         11    1    4    4    0    0  0.13958826532E+02 -0.40653894540E+02 -0.13748305879E+03  0.14404575465E+03  0.00000000000E+00 0. -1.
<mgrwt>
<rscale>  0 0.13830145E+03</rscale>
<asrwt>0</asrwt>
<pdfrwt beam="2">  1        1 0.39501065E-01 0.14579703E+03</pdfrwt>
<pdfrwt beam="1">  1       -1 0.11453287E-01 0.14579703E+03</pdfrwt>
<totfact> 0.50608593E+03</totfact>
</mgrwt>
</event>
<event>
 8    1  0.1154424E-005  0.1428512E+03  0.7546771E-02  0.1220312E+00
          1   -1    0    0  501    0  0.00000000000E+00  0.00000000000E+00  0.20949765534E+03  0.20949765534E+03  0.00000000000E+00 0. -1.
         -1   -1    0    0    0  501 -0.00000000000E+00 -0.00000000000E+00 -0.84140623663E+02  0.84140623663E+02  0.00000000000E+00 0.  1.
         23    2    1    2    0    0  0.78120350259E+01 -0.68702463319E+02  0.31728913811E+02  0.14633244196E+03  0.12500161295E+03 0.  0.
         23    2    1    2    0    0 -0.78120350259E+01  0.68702463319E+02  0.93628117871E+02  0.14730583705E+03  0.90286924940E+02 0.  0.
          5    1    3    3  502    0  0.87235628626E+01 -0.12402999026E+02  0.74053197523E+02  0.75735731311E+02  0.47000000000E+01 0.  1.
         -5    1    3    3    0  502 -0.91152783665E+00 -0.56299464293E+02 -0.42324283712E+02  0.70596710649E+02  0.47000000000E+01 0.  1.
        -11    1    4    4    0    0 -0.26276683431E+02  0.20069225262E+02  0.89160512356E+02  0.95093821347E+02  0.00000000000E+00 0. -1.
         11    1    4    4    0    0  0.18464648405E+02  0.48633238056E+02  0.44676055146E+01  0.52212015701E+02  0.00000000000E+00 0.  1.
<mgrwt>
<rscale>  0 0.13493493E+03</rscale>
<asrwt>0</asrwt>
<pdfrwt beam="1">  1        1 0.32230408E-01 0.14285118E+03</pdfrwt>
<pdfrwt beam="2">  1       -1 0.12944711E-01 0.14285118E+03</pdfrwt>
<totfact> 0.53835322E+03</totfact>
</mgrwt>
</event>
<event>
 8    1  0.1154424E-005  0.1373151E+03  0.7546771E-02  0.1228499E+00
         -1   -1    0    0    0  501 -0.00000000000E+00  0.00000000000E+00  0.39689407634E+02  0.39689407634E+02  0.00000000000E+00 0.  1.
          1   -1    0    0  501    0  0.00000000000E+00 -0.00000000000E+00 -0.38540613422E+03  0.38540613422E+03  0.00000000000E+00 0. -1.
         23    2    1    2    0    0  0.18506282605E+02  0.53776749347E+02 -0.16581438537E+03  0.21529015125E+03  0.12498406924E+03 0.  0.
         23    2    1    2    0    0 -0.18506282605E+02 -0.53776749347E+02 -0.17990234122E+03  0.20980539061E+03  0.91755262979E+02 0.  0.
          5    1    3    3  502    0  0.54561475950E+02  0.48869502586E+02 -0.38677797991E+02  0.82965324072E+02  0.47000000000E+01 0.  1.
         -5    1    3    3    0  502 -0.36055193345E+02  0.49072467611E+01 -0.12713658737E+03  0.13232482718E+03  0.47000000000E+01 0.  1.
        -11    1    4    4    0    0 -0.26687016947E+02  0.10487330745E+02 -0.11338388072E+03  0.11695334705E+03  0.00000000000E+00 0.  1.
         11    1    4    4    0    0  0.81807343421E+01 -0.64264080092E+02 -0.66518460498E+02  0.92852043550E+02  0.00000000000E+00 0. -1.
<mgrwt>
<rscale>  0 0.12929912E+03</rscale>
<asrwt>0</asrwt>
<pdfrwt beam="2">  1        1 0.59293251E-01 0.13731511E+03</pdfrwt>
<pdfrwt beam="1">  1       -1 0.61060628E-02 0.13731511E+03</pdfrwt>
<totfact> 0.78872700E+03</totfact>
</mgrwt>
</event>
<event>
 8    1  0.1154424E-005  0.1534408E+03  0.7546771E-02  0.1205696E+00
         -2   -1    0    0    0  501 -0.00000000000E+00  0.00000000000E+00  0.68814766619E+03  0.68814766619E+03  0.00000000000E+00 0.  1.
          2   -1    0    0  501    0  0.00000000000E+00 -0.00000000000E+00 -0.32069342020E+02  0.32069342020E+02  0.00000000000E+00 0. -1.
         23    2    1    2    0    0 -0.67449721245E+02  0.57801289811E+02  0.48178323676E+03  0.50562749742E+03  0.12511444733E+03 0.  0.
         23    2    1    2    0    0  0.67449721245E+02 -0.57801289811E+02  0.17429508742E+03  0.21458951079E+03  0.88201058068E+02 0.  0.
          5    1    3    3  502    0 -0.71922555806E+02  0.91184154278E+02  0.32389626144E+03  0.34411957544E+03  0.47000000000E+01 0. -1.
         -5    1    3    3    0  502  0.44728345609E+01 -0.33382864467E+02  0.15788697532E+03  0.16150792199E+03  0.47000000000E+01 0. -1.
        -11    1    4    4    0    0  0.13678175712E+02  0.23752638828E+02  0.34992483543E+02  0.44449457214E+02  0.00000000000E+00 0. -1.
         11    1    4    4    0    0  0.53771545533E+02 -0.81553928639E+02  0.13930260387E+03  0.17014005358E+03  0.00000000000E+00 0.  1.
<mgrwt>
<rscale>  0 0.14582731E+03</rscale>
<asrwt>0</asrwt>
<pdfrwt beam="2">  1        2 0.49337454E-02 0.15344080E+03</pdfrwt>
<pdfrwt beam="1">  1       -2 0.10586886E+00 0.15344080E+03</pdfrwt>
<totfact> 0.11693181E+03</totfact>
</mgrwt>
</event>
<event>
 8    1  0.1154424E-005  0.1340836E+03  0.7546771E-02  0.1233538E+00
         -1   -1    0    0    0  501 -0.00000000000E+00  0.00000000000E+00  0.46615758410E+02  0.46615758410E+02  0.00000000000E+00 0.  1.
          1   -1    0    0  501    0  0.00000000000E+00 -0.00000000000E+00 -0.31564860384E+03  0.31564860384E+03  0.00000000000E+00 0. -1.
         23    2    1    2    0    0  0.34344883896E+02 -0.34231459154E+02 -0.11808027454E+03  0.17866553018E+03  0.12500822611E+03 0.  0.
         23    2    1    2    0    0 -0.34344883896E+02  0.34231459154E+02 -0.15095257089E+03  0.18359883207E+03  0.92576933579E+02 0.  0.
          5    1    3    3  502    0 -0.23659533657E+02  0.13165932989E+02  0.10797417792E+02  0.29526082627E+02  0.47000000000E+01 0.  1.
         -5    1    3    3    0  502  0.58004417553E+02 -0.47397392143E+02 -0.12887769233E+03  0.14913944756E+03  0.47000000000E+01 0.  1.
        -11    1    4    4    0    0  0.14665381078E+01  0.59899323765E+02 -0.77741657839E+02  0.98152152728E+02  0.00000000000E+00 0.  1.
         11    1    4    4    0    0 -0.35811422004E+02 -0.25667864611E+02 -0.73210913055E+02  0.85446679339E+02  0.00000000000E+00 0. -1.
<mgrwt>
<rscale>  0 0.12598501E+03</rscale>
<asrwt>0</asrwt>
<pdfrwt beam="2">  1        1 0.48561325E-01 0.13408363E+03</pdfrwt>
<pdfrwt beam="1">  1       -1 0.71716549E-02 0.13408363E+03</pdfrwt>
<totfact> 0.79417424E+03</totfact>
</mgrwt>
</event>
<event>
 8    1  0.1154424E-005  0.1267289E+03  0.7546771E-02  0.1247729E+00
          1   -1    0    0  501    0  0.00000000000E+00  0.00000000000E+00  0.33269215370E+03  0.33269215370E+03  0.00000000000E+00 0. -1.
         -1   -1    0    0    0  501 -0.00000000000E+00 -0.00000000000E+00 -0.40017894617E+02  0.40017894617E+02  0.00000000000E+00 0.  1.
         23    2    1    2    0    0 -0.28287675168E+01  0.20653150451E+02  0.11000057135E+03  0.16781040439E+03  0.12500260627E+03 0.  0.
         23    2    1    2    0    0  0.28287675168E+01 -0.20653150451E+02  0.18267368773E+03  0.20489964393E+03  0.90441325415E+02 0.  0.
          5    1    3    3  502    0 -0.29127830830E+02  0.36447999621E+02 -0.64139952334E+01  0.47329869429E+02  0.47000000000E+01 0. -1.
         -5    1    3    3    0  502  0.26299063314E+02 -0.15794849170E+02  0.11641456659E+03  0.12048053496E+03  0.47000000000E+01 0. -1.
        -11    1    4    4    0    0 -0.22214925832E+02  0.12806435624E+01  0.33387296411E+01  0.22500890944E+02  0.00000000000E+00 0.  1.
         11    1    4    4    0    0  0.25043693349E+02 -0.21933794014E+02  0.17933495809E+03  0.18239875299E+03  0.00000000000E+00 0. -1.
<mgrwt>
<rscale>  0 0.11723532E+03</rscale>
<asrwt>0</asrwt>
<pdfrwt beam="1">  1        1 0.51183406E-01 0.12672887E+03</pdfrwt>
<pdfrwt beam="2">  1       -1 0.61565994E-02 0.12672887E+03</pdfrwt>
<totfact> 0.93081671E+03</totfact>
</mgrwt>
</event>
<event>
 7    1  0.1154424E-005  0.1481477E+03  0.7546771E-02  0.1223073E+00
          1   -1    0    0  501    0  0.00000000000E+00  0.00000000000E+00  0.35163106753E+03  0.35163106753E+03  0.00000000000E+00 0. -1.
         -1   -1    0    0    0  501 -0.00000000000E+00 -0.00000000000E+00 -0.48468330579E+02  0.48468330579E+02  0.00000000000E+00 0.  1.
         23    2    1    2    0    0 -0.29657211238E+02 -0.57498182964E+01  0.19240215982E+03  0.21512471331E+03  0.91364328839E+02 0.  0.
          5    1    1    2  502    0  0.69219026745E+02 -0.30890462431E+02  0.10633056793E+03  0.13066665225E+03  0.47000000000E+01 0. -1.
         -5    1    1    2    0  502 -0.39561815506E+02  0.36640280727E+02  0.44300091969E+01  0.54308032550E+02  0.47000000000E+01 0.  1.
        -11    1    3    3    0    0 -0.55502344310E+02  0.19569731274E+02  0.10214656232E+03  0.11788725461E+03  0.00000000000E+00 0.  1.
         11    1    3    3    0    0  0.25845133071E+02 -0.25319549571E+02  0.90255597505E+02  0.97237458702E+02  0.00000000000E+00 0. -1.
<mgrwt>
<rscale>  0 0.13299881E+03</rscale>
<asrwt>0</asrwt>
<pdfrwt beam="1">  1        1 0.54097086E-01 0.14814766E+03</pdfrwt>
<pdfrwt beam="2">  1       -1 0.74566665E-02 0.14814766E+03</pdfrwt>
<totfact> 0.65899225E+03</totfact>
</mgrwt>
</event>
<event>
 8    1  0.1154424E-005  0.1292175E+03  0.7546771E-02  0.1243726E+00
          2   -1    0    0  501    0  0.00000000000E+00  0.00000000000E+00  0.15406178539E+03  0.15406178539E+03  0.00000000000E+00 0. -1.
         -2   -1    0    0    0  501 -0.00000000000E+00 -0.00000000000E+00 -0.12119176682E+03  0.12119176682E+03  0.00000000000E+00 0.  1.
         23    2    1    2    0    0  0.17743573729E+02  0.27502861663E+02 -0.60006612681E+02  0.14247086975E+03  0.12500365336E+03 0.  0.
         23    2    1    2    0    0 -0.17743573729E+02 -0.27502861663E+02  0.92876631256E+02  0.13278268247E+03  0.89072612632E+02 0.  0.
          5    1    3    3  502    0  0.42150741725E+02  0.14201260163E+02  0.26156457624E+02  0.51813232804E+02  0.47000000000E+01 0. -1.
         -5    1    3    3    0  502 -0.24407167996E+02  0.13301601500E+02 -0.86163070305E+02  0.90657636944E+02  0.47000000000E+01 0. -1.
        -11    1    4    4    0    0 -0.11629698668E+02 -0.46662495711E+02  0.10038973352E+03  0.11131368736E+03  0.00000000000E+00 0. -1.
         11    1    4    4    0    0 -0.61138750605E+01  0.19159634049E+02 -0.75131022666E+01  0.21468995105E+02  0.00000000000E+00 0.  1.
<mgrwt>
<rscale>  0 0.11961962E+03</rscale>
<asrwt>0</asrwt>
<pdfrwt beam="1">  1        2 0.23701813E-01 0.12921747E+03</pdfrwt>
<pdfrwt beam="2">  1       -2 0.18644887E-01 0.12921747E+03</pdfrwt>
<totfact> 0.51538461E+03</totfact>
</mgrwt>
</event>
<event>
 8    1  0.1154424E-005  0.1330236E+03  0.7546771E-02  0.1235930E+00
          2   -1    0    0  501    0  0.00000000000E+00  0.00000000000E+00  0.84205867513E+03  0.84205867513E+03  0.00000000000E+00 0.  1.
         -2   -1    0    0    0  501 -0.00000000000E+00 -0.00000000000E+00 -0.19290242758E+02  0.19290242758E+02  0.00000000000E+00 0. -1.
         23    2    1    2    0    0 -0.29933345144E+02  0.34235639570E+02  0.29181431984E+03  0.32070370125E+03  0.12500872995E+03 0.  0.
         23    2    1    2    0    0  0.29933345144E+02 -0.34235639570E+02  0.53095411254E+03  0.54064521664E+03  0.91197020192E+02 0.  0.
          5    1    3    3  502    0 -0.63055392575E+02 -0.49255447690E+01  0.76777409058E+02  0.99584657783E+02  0.47000000000E+01 0.  1.
         -5    1    3    3    0  502  0.33122047431E+02  0.39161184339E+02  0.21503691078E+03  0.22111904346E+03  0.47000000000E+01 0.  1.
        -11    1    4    4    0    0  0.60101415098E+02 -0.61379946644E+01  0.33452437935E+03  0.33993589904E+03  0.00000000000E+00 0. -1.
         11    1    4    4    0    0 -0.30168069954E+02 -0.28097644906E+02  0.19642973318E+03  0.20070931760E+03  0.00000000000E+00 0.  1.
<mgrwt>
<rscale>  0 0.12445064E+03</rscale>
<asrwt>0</asrwt>
<pdfrwt beam="1">  1        2 0.12954746E+00 0.13302356E+03</pdfrwt>
<pdfrwt beam="2">  1       -2 0.29677303E-02 0.13302356E+03</pdfrwt>
<totfact> 0.13638036E+04</totfact>
</mgrwt>
</event>
<event>
 8    1  0.1154424E-005  0.1539382E+03  0.7546771E-02  0.1202997E+00
         -4   -1    0    0    0  501 -0.00000000000E+00  0.00000000000E+00  0.17450665219E+03  0.17450665219E+03  0.00000000000E+00 0.  1.
          4   -1    0    0  501    0  0.00000000000E+00 -0.00000000000E+00 -0.11716342524E+03  0.11716342524E+03  0.00000000000E+00 0. -1.
         23    2    1    2    0    0 -0.60797619512E+01 -0.94023184144E+02  0.21202346031E+02  0.15539151235E+03  0.12173602577E+03 0.  0.
         23    2    1    2    0    0  0.60797619512E+01  0.94023184144E+02  0.36140880924E+02  0.13627856508E+03  0.91587997935E+02 0.  0.
          5    1    3    3  502    0 -0.30237970388E+02 -0.11615645053E+03  0.10379531436E+02  0.12056732777E+03  0.47000000000E+01 0. -1.
         -5    1    3    3    0  502  0.24158208437E+02  0.22133266385E+02  0.10822814595E+02  0.34824184577E+02  0.47000000000E+01 0. -1.
        -11    1    4    4    0    0 -0.32906753697E+02  0.28564965846E+02  0.41137905393E+02  0.59926112612E+02  0.00000000000E+00 0.  1.
         11    1    4    4    0    0  0.38986515648E+02  0.65458218297E+02 -0.49970244690E+01  0.76352452473E+02  0.00000000000E+00 0. -1.
<mgrwt>
<rscale>  0 0.14796461E+03</rscale>
<asrwt>0</asrwt>
<pdfrwt beam="2">  1        4 0.18025142E-01 0.15393824E+03</pdfrwt>
<pdfrwt beam="1">  1       -4 0.26847177E-01 0.15393824E+03</pdfrwt>
<totfact> 0.60576163E+02</totfact>
</mgrwt>
</event>
<event>
 8    1  0.1154424E-005  0.2168773E+03  0.7546771E-02  0.1139399E+00
          3   -1    0    0  501    0  0.00000000000E+00  0.00000000000E+00  0.46574232067E+02  0.46574232067E+02  0.00000000000E+00 0. -1.
         -3   -1    0    0    0  501 -0.00000000000E+00 -0.00000000000E+00 -0.10033861285E+04  0.10033861285E+04  0.00000000000E+00 0.  1.
         23    2    1    2    0    0  0.16948198072E+03  0.51811939401E+02 -0.63072643672E+03  0.66697195910E+03  0.12500854926E+03 0.  0.
         23    2    1    2    0    0 -0.16948198072E+03 -0.51811939401E+02 -0.32608545968E+03  0.38298840144E+03  0.94550355734E+02 0.  0.
          5    1    3    3  502    0  0.14099153226E+03  0.69808274648E+02 -0.60263170678E+03  0.62284739013E+03  0.47000000000E+01 0. -1.
         -5    1    3    3    0  502  0.28490448461E+02 -0.17996335247E+02 -0.28094729942E+02  0.44124568965E+02  0.47000000000E+01 0. -1.
        -11    1    4    4    0    0 -0.12347218352E+03  0.99273200489E+01 -0.20161800752E+03  0.23662999122E+03  0.00000000000E+00 0. -1.
         11    1    4    4    0    0 -0.46009797195E+02 -0.61739259450E+02 -0.12446745216E+03  0.14635841022E+03  0.00000000000E+00 0.  1.
<mgrwt>
<rscale>  0 0.21275943E+03</rscale>
<asrwt>0</asrwt>
<pdfrwt beam="1">  1        3 0.71652673E-02 0.21687728E+03</pdfrwt>
<pdfrwt beam="2">  1       -3 0.15436708E+00 0.21687728E+03</pdfrwt>
<totfact> 0.10006562E+02</totfact>
</mgrwt>
</event>
<event>
 8    1  0.1154424E-005  0.3234488E+03  0.7546771E-02  0.1075432E+00
         -2   -1    0    0    0  501 -0.00000000000E+00  0.00000000000E+00  0.21195615174E+03  0.21195615174E+03  0.00000000000E+00 0.  1.
          2   -1    0    0  501    0  0.00000000000E+00 -0.00000000000E+00 -0.53922076025E+03  0.53922076025E+03  0.00000000000E+00 0. -1.
         23    2    1    2    0    0 -0.17175023120E+03  0.24391502720E+03 -0.37546552748E+02  0.32562071250E+03  0.12500568937E+03 0.  0.
         23    2    1    2    0    0  0.17175023120E+03 -0.24391502720E+03 -0.28971805576E+03  0.42555619948E+03  0.90381661139E+02 0.  0.
          5    1    3    3  502    0 -0.77702695037E+02  0.17756030669E+03  0.23424451259E+02  0.19528483363E+03  0.47000000000E+01 0.  1.
         -5    1    3    3    0  502 -0.94047536164E+02  0.66354720509E+02 -0.60971004007E+02  0.13033587887E+03  0.47000000000E+01 0.  1.
        -11    1    4    4    0    0 -0.21922573775E+01 -0.54310442288E+02 -0.53382647748E+02  0.76184888361E+02  0.00000000000E+00 0. -1.
         11    1    4    4    0    0  0.17394248858E+03 -0.18960458491E+03 -0.23633540802E+03  0.34937131112E+03  0.00000000000E+00 0.  1.
<mgrwt>
<rscale>  0 0.32047261E+03</rscale>
<asrwt>0</asrwt>
<pdfrwt beam="2">  1        2 0.82957039E-01 0.32344877E+03</pdfrwt>
<pdfrwt beam="1">  1       -2 0.32608639E-01 0.32344877E+03</pdfrwt>
<totfact> 0.50253836E+02</totfact>
</mgrwt>
</event>
<event>
 8    1  0.1154424E-005  0.1954305E+03  0.7546771E-02  0.1158373E+00
         -2   -1    0    0    0  501 -0.00000000000E+00  0.00000000000E+00  0.24923023777E+03  0.24923023777E+03  0.00000000000E+00 0. -1.
          2   -1    0    0  501    0  0.00000000000E+00 -0.00000000000E+00 -0.13783520759E+03  0.13783520759E+03  0.00000000000E+00 0.  1.
         23    2    1    2    0    0 -0.13848933595E+03  0.58213312262E+02  0.50984396700E+02  0.20197149954E+03  0.12499996810E+03 0.  0.
         23    2    1    2    0    0  0.13848933595E+03 -0.58213312262E+02  0.60410633480E+02  0.18509394581E+03  0.89678527202E+02 0.  0.
          5    1    3    3  502    0  0.11058718170E+02 -0.10716804760E+02 -0.17309407288E+02  0.23640023953E+02  0.47000000000E+01 0. -1.
         -5    1    3    3    0  502 -0.14954805412E+03  0.68930117023E+02  0.68293803989E+02  0.17833147559E+03  0.47000000000E+01 0. -1.
        -11    1    4    4    0    0 -0.58545661672E+01 -0.22867646729E+02 -0.24609407890E+01  0.23733129619E+02  0.00000000000E+00 0.  1.
         11    1    4    4    0    0  0.14434390212E+03 -0.35345665533E+02  0.62871574269E+02  0.16136081619E+03  0.00000000000E+00 0. -1.
<mgrwt>
<rscale>  0 0.19009808E+03</rscale>
<asrwt>0</asrwt>
<pdfrwt beam="2">  1        2 0.21205417E-01 0.19543049E+03</pdfrwt>
<pdfrwt beam="1">  1       -2 0.38343113E-01 0.19543049E+03</pdfrwt>
<totfact> 0.16570584E+03</totfact>
</mgrwt>
</event>
<event>
 8    1  0.1154424E-005  0.1476601E+03  0.7546771E-02  0.1214031E+00
          3   -1    0    0  501    0  0.00000000000E+00  0.00000000000E+00  0.23121343387E+03  0.23121343387E+03  0.00000000000E+00 0. -1.
         -3   -1    0    0    0  501 -0.00000000000E+00 -0.00000000000E+00 -0.90672365358E+02  0.90672365358E+02  0.00000000000E+00 0.  1.
         23    2    1    2    0    0  0.53685256423E+02  0.57350302555E+02  0.12691587823E+02  0.14820449720E+03  0.12502932708E+03 0.  0.
         23    2    1    2    0    0 -0.53685256423E+02 -0.57350302555E+02  0.12784948069E+03  0.17368130202E+03  0.87455937473E+02 0.  0.
          5    1    3    3  502    0  0.47035345163E+02 -0.27557402763E+02  0.28126814465E+02  0.61521880933E+02  0.47000000000E+01 0. -1.
         -5    1    3    3    0  502  0.66499112606E+01  0.84907705318E+02 -0.15435226642E+02  0.86682616271E+02  0.47000000000E+01 0. -1.
        -11    1    4    4    0    0  0.41737112109E+01 -0.41246629963E+02  0.98430503160E+02  0.10680481403E+03  0.00000000000E+00 0. -1.
         11    1    4    4    0    0 -0.57858967634E+02 -0.16103672592E+02  0.29418977526E+02  0.66876487986E+02  0.00000000000E+00 0.  1.
<mgrwt>
<rscale>  0 0.13947927E+03</rscale>
<asrwt>0</asrwt>
<pdfrwt beam="1">  1        3 0.35571297E-01 0.14766007E+03</pdfrwt>
<pdfrwt beam="2">  1       -3 0.13949595E-01 0.14766007E+03</pdfrwt>
<totfact> 0.76637996E+02</totfact>
</mgrwt>
</event>
<event>
 8    1  0.1154424E-005  0.1255809E+03  0.7546771E-02  0.1249586E+00
         -2   -1    0    0    0  501 -0.00000000000E+00  0.00000000000E+00  0.31508736531E+02  0.31508736531E+02  0.00000000000E+00 0.  1.
          2   -1    0    0  501    0  0.00000000000E+00 -0.00000000000E+00 -0.37537055731E+03  0.37537055731E+03  0.00000000000E+00 0. -1.
         23    2    1    2    0    0  0.11749809916E+02 -0.26585852839E+01 -0.20172707225E+03  0.23762232561E+03  0.12500172736E+03 0.  0.
         23    2    1    2    0    0 -0.11749809916E+02  0.26585852839E+01 -0.14213474853E+03  0.16925696823E+03  0.91107126209E+02 0.  0.
          5    1    3    3  502    0 -0.47185136384E+02 -0.24368905516E+02 -0.13837427336E+03  0.14828961589E+03  0.47000000000E+01 0.  1.
         -5    1    3    3    0  502  0.58934946300E+02  0.21710320232E+02 -0.63352798890E+02  0.89332709727E+02  0.47000000000E+01 0.  1.
        -11    1    4    4    0    0 -0.34170173112E+02 -0.12433096235E+02 -0.15088866274E+02  0.39368216850E+02  0.00000000000E+00 0.  1.
         11    1    4    4    0    0  0.22420363197E+02  0.15091681519E+02 -0.12704588226E+03  0.12988875138E+03  0.00000000000E+00 0. -1.
<mgrwt>
<rscale>  0 0.11615066E+03</rscale>
<asrwt>0</asrwt>
<pdfrwt beam="2">  1        2 0.57749317E-01 0.12558088E+03</pdfrwt>
<pdfrwt beam="1">  1       -2 0.48474979E-02 0.12558088E+03</pdfrwt>
<totfact> 0.16410617E+04</totfact>
</mgrwt>
</event>
<event>
 8    1  0.1154424E-005  0.1362592E+03  0.7546771E-02  0.1230857E+00
          2   -1    0    0  501    0  0.00000000000E+00  0.00000000000E+00  0.10679290852E+03  0.10679290852E+03  0.00000000000E+00 0. -1.
         -2   -1    0    0    0  501 -0.00000000000E+00 -0.00000000000E+00 -0.15298002043E+03  0.15298002043E+03  0.00000000000E+00 0.  1.
         23    2    1    2    0    0 -0.43939240616E+02  0.31777430049E+02 -0.68036861270E+02  0.15230098209E+03  0.12500445084E+03 0.  0.
         23    2    1    2    0    0  0.43939240616E+02 -0.31777430049E+02  0.21849749354E+02  0.10747194686E+03  0.90179520335E+02 0.  0.
          5    1    3    3  502    0 -0.45328140357E+02  0.50962137105E+02  0.12384057220E+02  0.69478303086E+02  0.47000000000E+01 0.  1.
         -5    1    3    3    0  502  0.13888997404E+01 -0.19184707056E+02 -0.80420918490E+02  0.82822679008E+02  0.47000000000E+01 0.  1.
        -11    1    4    4    0    0  0.70164631135E+02 -0.95679149024E+01  0.13196687777E+02  0.72033138390E+02  0.00000000000E+00 0. -1.
         11    1    4    4    0    0 -0.26225390519E+02 -0.22209515146E+02  0.86530615769E+01  0.35438808467E+02  0.00000000000E+00 0.  1.
<mgrwt>
<rscale>  0 0.12773404E+03</rscale>
<asrwt>0</asrwt>
<pdfrwt beam="1">  1        2 0.16429678E-01 0.13625922E+03</pdfrwt>
<pdfrwt beam="2">  1       -2 0.23535388E-01 0.13625922E+03</pdfrwt>
<totfact> 0.52677974E+03</totfact>
</mgrwt>
</event>
<event>
 8    1  0.1154424E-005  0.1281553E+03  0.7546771E-02  0.1243622E+00
          1   -1    0    0  501    0  0.00000000000E+00  0.00000000000E+00  0.22285261889E+02  0.22285261889E+02  0.00000000000E+00 0. -1.
         -1   -1    0    0    0  501 -0.00000000000E+00 -0.00000000000E+00 -0.57131251951E+03  0.57131251951E+03  0.00000000000E+00 0.  1.
         23    2    1    2    0    0  0.17733304172E+02 -0.22028430181E+02 -0.31707225001E+03  0.34199207716E+03  0.12499618913E+03 0.  0.
         23    2    1    2    0    0 -0.17733304172E+02  0.22028430181E+02 -0.23195500761E+03  0.25160570424E+03  0.93287636050E+02 0.  0.
          5    1    3    3  502    0  0.39641778280E+02  0.29168100734E+02 -0.54691797575E+02  0.73726056504E+02  0.47000000000E+01 0.  1.
         -5    1    3    3    0  502 -0.21908474108E+02 -0.51196530915E+02 -0.26238045244E+03  0.26826602065E+03  0.47000000000E+01 0.  1.
        -11    1    4    4    0    0  0.28276604969E+02  0.28404952510E+01 -0.22351194756E+02  0.36155369019E+02  0.00000000000E+00 0. -1.
         11    1    4    4    0    0 -0.46009909141E+02  0.19187934930E+02 -0.20960381285E+03  0.21545033522E+03  0.00000000000E+00 0.  1.
<mgrwt>
<rscale>  0 0.11968258E+03</rscale>
<asrwt>0</asrwt>
<pdfrwt beam="1">  1        1 0.34285020E-02 0.12815525E+03</pdfrwt>
<pdfrwt beam="2">  1       -1 0.87894229E-01 0.12815525E+03</pdfrwt>
<totfact> 0.36118309E+03</totfact>
</mgrwt>
</event>
<event>
 8    1  0.1154424E-005  0.1430435E+03  0.7546771E-02  0.1219564E+00
          2   -1    0    0  501    0  0.00000000000E+00  0.00000000000E+00  0.29589788517E+03  0.29589788517E+03  0.00000000000E+00 0. -1.
         -2   -1    0    0    0  501 -0.00000000000E+00 -0.00000000000E+00 -0.58231955701E+02  0.58231955701E+02  0.00000000000E+00 0.  1.
         23    2    1    2    0    0  0.28912027479E+02  0.63253029236E+02  0.99077093471E+02  0.17400493464E+03  0.12499838314E+03 0.  0.
         23    2    1    2    0    0 -0.28912027479E+02 -0.63253029236E+02  0.13858883600E+03  0.18012490623E+03  0.91658416639E+02 0.  0.
          5    1    3    3  502    0 -0.14968252605E+02  0.92747865397E+01 -0.25441049536E+02  0.31295482948E+02  0.47000000000E+01 0. -1.
         -5    1    3    3    0  502  0.43880280084E+02  0.53978242696E+02  0.12451814301E+03  0.14270945169E+03  0.47000000000E+01 0. -1.
        -11    1    4    4    0    0 -0.57877748677E+02 -0.35345333200E+02  0.54831540105E+02  0.87210229682E+02  0.00000000000E+00 0.  1.
         11    1    4    4    0    0  0.28965721199E+02 -0.27907696036E+02  0.83757295897E+02  0.92914676551E+02  0.00000000000E+00 0. -1.
<mgrwt>
<rscale>  0 0.13546572E+03</rscale>
<asrwt>0</asrwt>
<pdfrwt beam="1">  1        2 0.45522750E-01 0.14304351E+03</pdfrwt>
<pdfrwt beam="2">  1       -2 0.89587626E-02 0.14304351E+03</pdfrwt>
<totfact> 0.83613468E+03</totfact>
</mgrwt>
</event>
<event>
 8    1  0.1974375E-005  0.4118481E+03  0.7546771E-02  0.1040600E+00
          1   -1    0    0  501    0  0.00000000000E+00  0.00000000000E+00  0.97643286006E+02  0.97643286006E+02  0.00000000000E+00 0. -1.
         -1   -1    0    0    0  501 -0.00000000000E+00 -0.00000000000E+00 -0.17336241157E+04  0.17336241157E+04  0.00000000000E+00 0.  1.
         23    2    1    2    0    0  0.39027860858E+03 -0.40938911833E+02 -0.96430264763E+03  0.10485697268E+04  0.12500195586E+03 0.  0.
         23    2    1    2    0    0 -0.39027860858E+03  0.40938911833E+02 -0.67167818204E+03  0.78269767486E+03  0.86433113948E+02 0.  0.
          5    1    3    3  502    0  0.63932259548E+02  0.32141201683E+01 -0.67237333341E+02  0.92954899678E+02  0.47000000000E+01 0.  1.
         -5    1    3    3    0  502  0.32634634903E+03 -0.44153032002E+02 -0.89706531429E+03  0.95561482714E+03  0.47000000000E+01 0.  1.
        -11    1    4    4    0    0 -0.22337400647E+03  0.55993507373E+02 -0.44185514572E+03  0.49826417635E+03  0.00000000000E+00 0.  1.
         11    1    4    4    0    0 -0.16690460211E+03 -0.15054595540E+02 -0.22982303633E+03  0.28443349852E+03  0.00000000000E+00 0. -1.
<mgrwt>
<rscale>  0 0.40931938E+03</rscale>
<asrwt>0</asrwt>
<pdfrwt beam="1">  1        1 0.15022045E-01 0.41184812E+03</pdfrwt>
<pdfrwt beam="2">  1       -1 0.26671139E+00 0.41184812E+03</pdfrwt>
<totfact> 0.22574798E+01</totfact>
</mgrwt>
</event>
<event>
 8    1  0.1154424E-005  0.1677855E+03  0.7546771E-02  0.1186951E+00
         -1   -1    0    0    0  501 -0.00000000000E+00  0.00000000000E+00  0.15275280055E+03  0.15275280055E+03  0.00000000000E+00 0.  1.
          1   -1    0    0  501    0  0.00000000000E+00 -0.00000000000E+00 -0.32408106056E+03  0.32408106056E+03  0.00000000000E+00 0. -1.
         23    2    1    2    0    0 -0.32651979140E+02 -0.10705432517E+03  0.80910337694E+02  0.18627523024E+03  0.12500079350E+03 0.  0.
         23    2    1    2    0    0  0.32651979140E+02  0.10705432517E+03 -0.25223859771E+03  0.29055863088E+03  0.90957284082E+02 0.  0.
          5    1    3    3  502    0  0.38838745009E+02 -0.55579723791E+02  0.21318252733E+01  0.68001385939E+02  0.47000000000E+01 0.  1.
         -5    1    3    3    0  502 -0.71490724150E+02 -0.51474601375E+02  0.78778512420E+02  0.11827384430E+03  0.47000000000E+01 0.  1.
        -11    1    4    4    0    0  0.55513636154E+01  0.50809089089E+02 -0.29024699164E+02  0.58777668664E+02  0.00000000000E+00 0.  1.
         11    1    4    4    0    0  0.27100615525E+02  0.56245236077E+02 -0.22321389854E+03  0.23178096222E+03  0.00000000000E+00 0. -1.
<mgrwt>
<rscale>  0 0.16155626E+03</rscale>
<asrwt>0</asrwt>
<pdfrwt beam="2">  1        1 0.49858624E-01 0.16778551E+03</pdfrwt>
<pdfrwt beam="1">  1       -1 0.23500431E-01 0.16778551E+03</pdfrwt>
<totfact> 0.12183192E+03</totfact>
</mgrwt>
</event>
<event>
 8    1  0.1154424E-005  0.1449325E+03  0.7546771E-02  0.1216922E+00
         -2   -1    0    0    0  501 -0.00000000000E+00  0.00000000000E+00  0.18776613577E+03  0.18776613577E+03  0.00000000000E+00 0.  1.
          2   -1    0    0  501    0  0.00000000000E+00 -0.00000000000E+00 -0.96857341765E+02  0.96857341765E+02  0.00000000000E+00 0. -1.
         23    2    1    2    0    0 -0.59696509415E+01  0.73108617078E+02  0.16161140066E+02  0.14583078638E+03  0.12499971674E+03 0.  0.
         23    2    1    2    0    0  0.59696509415E+01 -0.73108617078E+02  0.74747653939E+02  0.13879269115E+03  0.91080693474E+02 0.  0.
          5    1    3    3  502    0  0.12473296277E+02 -0.38292281410E+01 -0.44123799885E+02  0.46251981843E+02  0.47000000000E+01 0.  1.
         -5    1    3    3    0  502 -0.18442947218E+02  0.76937845219E+02  0.60284939950E+02  0.99578804541E+02  0.47000000000E+01 0.  1.
        -11    1    4    4    0    0 -0.31358613274E+02 -0.11642693142E+02  0.54735190364E+02  0.64147143305E+02  0.00000000000E+00 0.  1.
         11    1    4    4    0    0  0.37328264215E+02 -0.61465923936E+02  0.20012463575E+02  0.74645547845E+02  0.00000000000E+00 0. -1.
<mgrwt>
<rscale>  0 0.13736309E+03</rscale>
<asrwt>0</asrwt>
<pdfrwt beam="2">  1        2 0.14901130E-01 0.14493252E+03</pdfrwt>
<pdfrwt beam="1">  1       -2 0.28887098E-01 0.14493252E+03</pdfrwt>
<totfact> 0.41325474E+03</totfact>
</mgrwt>
</event>
<event>
 8    1  0.1154424E-005  0.1411398E+03  0.7546771E-02  0.1223162E+00
          1   -1    0    0  501    0  0.00000000000E+00  0.00000000000E+00  0.68854658718E+03  0.68854658718E+03  0.00000000000E+00 0. -1.
         -1   -1    0    0    0  501 -0.00000000000E+00 -0.00000000000E+00 -0.31044802375E+02  0.31044802375E+02  0.00000000000E+00 0.  1.
         23    2    1    2    0    0 -0.64551060599E+02 -0.11399830658E+02  0.17682295352E+03  0.22624501122E+03  0.12499461047E+03 0.  0.
         23    2    1    2    0    0  0.64551060599E+02  0.11399830658E+02  0.48067883129E+03  0.49334637834E+03  0.89675607645E+02 0.  0.
          5    1    3    3  502    0  0.31787583066E+02  0.74831316935E+01  0.87202179524E+02  0.93234960239E+02  0.47000000000E+01 0.  1.
         -5    1    3    3    0  502 -0.96338643665E+02 -0.18882962351E+02  0.89620773992E+02  0.13301005098E+03  0.47000000000E+01 0.  1.
        -11    1    4    4    0    0  0.29086984671E+02 -0.36224437052E+02  0.13931647491E+03  0.14685824015E+03  0.00000000000E+00 0.  1.
         11    1    4    4    0    0  0.35464075927E+02  0.47624267710E+02  0.34136235637E+03  0.34648813819E+03  0.00000000000E+00 0. -1.
<mgrwt>
<rscale>  0 0.13293673E+03</rscale>
<asrwt>0</asrwt>
<pdfrwt beam="1">  1        1 0.10593023E+00 0.14113982E+03</pdfrwt>
<pdfrwt beam="2">  1       -1 0.47761240E-02 0.14113982E+03</pdfrwt>
<totfact> 0.52824383E+03</totfact>
</mgrwt>
</event>
<event>
 8    1  0.1154424E-005  0.1497349E+03  0.7546771E-02  0.1210145E+00
         -2   -1    0    0    0  501 -0.00000000000E+00  0.00000000000E+00  0.29407334357E+02  0.29407334357E+02  0.00000000000E+00 0.  1.
          2   -1    0    0  501    0  0.00000000000E+00 -0.00000000000E+00 -0.67702683554E+03  0.67702683554E+03  0.00000000000E+00 0. -1.
         23    2    1    2    0    0 -0.82427168068E+02  0.99263934758E+00 -0.26118909860E+03  0.30106527101E+03  0.12500131525E+03 0.  0.
         23    2    1    2    0    0  0.82427168068E+02 -0.99263934758E+00 -0.38643040258E+03  0.40536889888E+03  0.90555313342E+02 0.  0.
          5    1    3    3  502    0 -0.68118717952E+02 -0.30617200646E+02 -0.57453663331E+02  0.94342917811E+02  0.47000000000E+01 0. -1.
         -5    1    3    3    0  502 -0.14308450115E+02  0.31609839994E+02 -0.20373543527E+03  0.20672235320E+03  0.47000000000E+01 0. -1.
        -11    1    4    4    0    0  0.20647465262E+02 -0.35907276244E+02 -0.72313764605E+02  0.83336251778E+02  0.00000000000E+00 0.  1.
         11    1    4    4    0    0  0.61779702806E+02  0.34914636897E+02 -0.31411663798E+03  0.32203264711E+03  0.00000000000E+00 0. -1.
<mgrwt>
<rscale>  0 0.14239261E+03</rscale>
<asrwt>0</asrwt>
<pdfrwt beam="2">  1        2 0.10415797E+00 0.14973494E+03</pdfrwt>
<pdfrwt beam="1">  1       -2 0.45242057E-02 0.14973494E+03</pdfrwt>
<totfact> 0.95991440E+03</totfact>
</mgrwt>
</event>
<event>
 8    1  0.1154424E-005  0.1354668E+03  0.7546771E-02  0.1228959E+00
          1   -1    0    0  501    0  0.00000000000E+00  0.00000000000E+00  0.76590409813E+02  0.76590409813E+02  0.00000000000E+00 0. -1.
         -1   -1    0    0    0  501 -0.00000000000E+00 -0.00000000000E+00 -0.24146552309E+03  0.24146552309E+03  0.00000000000E+00 0.  1.
         23    2    1    2    0    0 -0.42641233261E+02 -0.30132060948E+02 -0.15559635185E+03  0.20630434870E+03  0.12500017486E+03 0.  0.
         23    2    1    2    0    0  0.42641233261E+02  0.30132060948E+02 -0.92787614238E+01  0.11175158420E+03  0.98367196188E+02 0.  0.
          5    1    3    3  502    0 -0.34223267723E+02  0.45278194186E+02 -0.86542784890E+02  0.10360063001E+03  0.47000000000E+01 0.  1.
         -5    1    3    3    0  502 -0.84179655382E+01 -0.75410255134E+02 -0.69053566960E+02  0.10270371869E+03  0.47000000000E+01 0.  1.
        -11    1    4    4    0    0 -0.10756971588E+02  0.45273840802E+02  0.18015732879E+02  0.49899897093E+02  0.00000000000E+00 0. -1.
         11    1    4    4    0    0  0.53398204850E+02 -0.15141779854E+02 -0.27294494302E+02  0.61851687104E+02  0.00000000000E+00 0.  1.
<mgrwt>
<rscale>  0 0.12899194E+03</rscale>
<asrwt>0</asrwt>
<pdfrwt beam="1">  1        1 0.11783140E-01 0.13546682E+03</pdfrwt>
<pdfrwt beam="2">  1       -1 0.37148542E-01 0.13546682E+03</pdfrwt>
<totfact> 0.34811143E+03</totfact>
</mgrwt>
</event>
<event>
 8    1  0.1154424E-005  0.1521801E+03  0.7546771E-02  0.1206803E+00
          2   -1    0    0  501    0  0.00000000000E+00  0.00000000000E+00  0.90941489453E+02  0.90941489453E+02  0.00000000000E+00 0. -1.
         -2   -1    0    0    0  501 -0.00000000000E+00 -0.00000000000E+00 -0.43194689808E+03  0.43194689808E+03  0.00000000000E+00 0.  1.
         23    2    1    2    0    0 -0.63757979570E+02 -0.58892250232E+02 -0.36487068920E+03  0.39533453009E+03  0.12500157498E+03 0.  0.
         23    2    1    2    0    0  0.63757979570E+02  0.58892250232E+02  0.23865280570E+02  0.12755385745E+03  0.90371775666E+02 0.  0.
          5    1    3    3  502    0 -0.22355907678E+02 -0.65265311548E+02 -0.33877093437E+03  0.34575595942E+03  0.47000000000E+01 0. -1.
         -5    1    3    3    0  502 -0.41402071892E+02  0.63730613161E+01 -0.26099754829E+02  0.49578570669E+02  0.47000000000E+01 0. -1.
        -11    1    4    4    0    0 -0.23486155479E+01  0.46196320904E+02 -0.16445213782E+02  0.49092373302E+02  0.00000000000E+00 0.  1.
         11    1    4    4    0    0  0.66106595118E+02  0.12695929328E+02  0.40310494352E+02  0.78461484146E+02  0.00000000000E+00 0. -1.
<mgrwt>
<rscale>  0 0.14496304E+03</rscale>
<asrwt>0</asrwt>
<pdfrwt beam="1">  1        2 0.13990998E-01 0.15218006E+03</pdfrwt>
<pdfrwt beam="2">  1       -2 0.66453370E-01 0.15218006E+03</pdfrwt>
<totfact> 0.88984534E+02</totfact>
</mgrwt>
</event>
<event>
 8    1  0.1154424E-005  0.2159381E+03  0.7546771E-02  0.1140119E+00
         -1   -1    0    0    0  501 -0.00000000000E+00  0.00000000000E+00  0.50779050167E+02  0.50779050167E+02  0.00000000000E+00 0.  1.
          1   -1    0    0  501    0  0.00000000000E+00 -0.00000000000E+00 -0.88953797967E+03  0.88953797967E+03  0.00000000000E+00 0. -1.
         23    2    1    2    0    0 -0.23687121955E+02 -0.17686368563E+03 -0.33791894246E+03  0.40102178433E+03  0.12160352295E+03 0.  0.
         23    2    1    2    0    0  0.23687121955E+02  0.17686368563E+03 -0.50083998704E+03  0.53929524551E+03  0.90315149140E+02 0.  0.
          5    1    3    3  502    0 -0.13552147836E+02  0.66875394026E+01  0.53729603769E+00  0.15835484876E+02  0.47000000000E+01 0. -1.
         -5    1    3    3    0  502 -0.10134974119E+02 -0.18355122503E+03 -0.33845623849E+03  0.38518629945E+03  0.47000000000E+01 0.  1.
        -11    1    4    4    0    0  0.22113782727E+02  0.20290202742E+01 -0.91927439826E+02  0.94571615735E+02  0.00000000000E+00 0.  1.
         11    1    4    4    0    0  0.15733392278E+01  0.17483466535E+03 -0.40891254722E+03  0.44472362977E+03  0.00000000000E+00 0. -1.
<mgrwt>
<rscale>  0 0.21183740E+03</rscale>
<asrwt>0</asrwt>
<pdfrwt beam="2">  1        1 0.13685198E+00 0.21593809E+03</pdfrwt>
<pdfrwt beam="1">  1       -1 0.78121623E-02 0.21593809E+03</pdfrwt>
<totfact> 0.17351226E+03</totfact>
</mgrwt>
</event>
<event>
 8    1  0.1154424E-005  0.1765061E+03  0.7546771E-02  0.1175361E+00
          1   -1    0    0  501    0  0.00000000000E+00  0.00000000000E+00  0.28819811451E+03  0.28819811451E+03  0.00000000000E+00 0. -1.
         -1   -1    0    0    0  501 -0.00000000000E+00 -0.00000000000E+00 -0.29790741763E+03  0.29790741763E+03  0.00000000000E+00 0.  1.
         23    2    1    2    0    0  0.95170322849E+02  0.80449069892E+02 -0.24453039380E+03  0.30157838921E+03  0.12499987260E+03 0.  0.
         23    2    1    2    0    0 -0.95170322849E+02 -0.80449069892E+02  0.23482109068E+03  0.28452714292E+03  0.10141650376E+03 0.  0.
          5    1    3    3  502    0  0.10852855910E+03  0.94867080558E+02 -0.16329021006E+03  0.21786232766E+03  0.47000000000E+01 0. -1.
         -5    1    3    3    0  502 -0.13358236247E+02 -0.14418010666E+02 -0.81240183741E+02  0.83716061550E+02  0.47000000000E+01 0. -1.
        -11    1    4    4    0    0 -0.49691367612E+02 -0.67625276192E+02  0.59299112984E+02  0.10275599640E+03  0.00000000000E+00 0.  1.
         11    1    4    4    0    0 -0.45478955237E+02 -0.12823793700E+02  0.17552197770E+03  0.18177114652E+03  0.00000000000E+00 0. -1.
<mgrwt>
<rscale>  0 0.17240638E+03</rscale>
<asrwt>0</asrwt>
<pdfrwt beam="1">  1        1 0.44338171E-01 0.17650612E+03</pdfrwt>
<pdfrwt beam="2">  1       -1 0.45831910E-01 0.17650612E+03</pdfrwt>
<totfact> 0.44881180E+02</totfact>
</mgrwt>
</event>
<event>
 8    1  0.1154424E-005  0.1273430E+03  0.7546771E-02  0.1246370E+00
         -4   -1    0    0    0  501 -0.00000000000E+00  0.00000000000E+00  0.13179979734E+04  0.13179979734E+04  0.00000000000E+00 0.  1.
          4   -1    0    0  501    0  0.00000000000E+00 -0.00000000000E+00 -0.94913563792E+01  0.94913563792E+01  0.00000000000E+00 0. -1.
         23    2    1    2    0    0  0.22666996805E+02  0.88255107482E+01  0.84551168577E+03  0.85504751527E+03  0.12499824086E+03 0.  0.
         23    2    1    2    0    0 -0.22666996805E+02 -0.88255107482E+01  0.46299493129E+03  0.47244181455E+03  0.90803520562E+02 0.  0.
          5    1    3    3  502    0 -0.13429341433E+02  0.17280629592E+02  0.77432153807E+03  0.77464501657E+03  0.47000000000E+01 0.  1.
         -5    1    3    3    0  502  0.36096338238E+02 -0.84551188440E+01  0.71190147696E+02  0.80402498704E+02  0.47000000000E+01 0.  1.
        -11    1    4    4    0    0 -0.32221896328E+02  0.35544423260E+02  0.26538773901E+03  0.26968928167E+03  0.00000000000E+00 0. -1.
         11    1    4    4    0    0  0.95548995227E+01 -0.44369934008E+02  0.19760719228E+03  0.20275253288E+03  0.00000000000E+00 0.  1.
<mgrwt>
<rscale>  0 0.11803728E+03</rscale>
<asrwt>0</asrwt>
<pdfrwt beam="2">  1        4 0.14602097E-02 0.12734301E+03</pdfrwt>
<pdfrwt beam="1">  1       -4 0.20276877E+00 0.12734301E+03</pdfrwt>
<totfact> 0.38262118E+02</totfact>
</mgrwt>
</event>
<event>
 8    1  0.1154424E-005  0.1359647E+03  0.7546771E-02  0.1231576E+00
          2   -1    0    0  501    0  0.00000000000E+00  0.00000000000E+00  0.21181205343E+03  0.21181205343E+03  0.00000000000E+00 0. -1.
         -2   -1    0    0    0  501 -0.00000000000E+00 -0.00000000000E+00 -0.84570430918E+02  0.84570430918E+02  0.00000000000E+00 0.  1.
         23    2    1    2    0    0  0.22696732390E+01  0.53442183946E+02  0.55561125169E+01  0.13607819821E+03  0.12500074880E+03 0.  0.
         23    2    1    2    0    0 -0.22696732390E+01 -0.53442183946E+02  0.12168550999E+03  0.16030428614E+03  0.89604030991E+02 0.  0.
          5    1    3    3  502    0  0.43360811393E+02 -0.19582251886E+02  0.18301707559E+02  0.51192451135E+02  0.47000000000E+01 0. -1.
         -5    1    3    3    0  502 -0.41091138154E+02  0.73024435832E+02 -0.12745595042E+02  0.84885747075E+02  0.47000000000E+01 0. -1.
        -11    1    4    4    0    0 -0.36229516380E+02 -0.40286378033E+01  0.78068556720E+02  0.86159777902E+02  0.00000000000E+00 0. -1.
         11    1    4    4    0    0  0.33959843141E+02 -0.49413546143E+02  0.43616953273E+02  0.74144508235E+02  0.00000000000E+00 0.  1.
<mgrwt>
<rscale>  0 0.12726198E+03</rscale>
<asrwt>0</asrwt>
<pdfrwt beam="1">  1        2 0.32586470E-01 0.13596472E+03</pdfrwt>
<pdfrwt beam="2">  1       -2 0.13010836E-01 0.13596472E+03</pdfrwt>
<totfact> 0.65937327E+03</totfact>
</mgrwt>
</event>
<event>
 8    1  0.1154424E-005  0.1431115E+03  0.7546771E-02  0.1219509E+00
         -2   -1    0    0    0  501 -0.00000000000E+00  0.00000000000E+00  0.11369711854E+03  0.11369711854E+03  0.00000000000E+00 0.  1.
          2   -1    0    0  501    0  0.00000000000E+00 -0.00000000000E+00 -0.15128875906E+03  0.15128875906E+03  0.00000000000E+00 0. -1.
         23    2    1    2    0    0 -0.69028504411E+02  0.95745544727E+01  0.26195055145E+01  0.14313544035E+03  0.12499714381E+03 0.  0.
         23    2    1    2    0    0  0.69028504411E+02 -0.95745544727E+01 -0.40211146037E+02  0.12185043725E+03  0.91509487365E+02 0.  0.
          5    1    3    3  502    0 -0.15613135950E+02  0.60385869795E+02  0.22770416313E+02  0.66564293312E+02  0.47000000000E+01 0.  1.
         -5    1    3    3    0  502 -0.53415368461E+02 -0.50811315322E+02 -0.20150910798E+02  0.76571147037E+02  0.47000000000E+01 0.  1.
        -11    1    4    4    0    0  0.36422143726E+02  0.23743922783E+01  0.27536046096E+02  0.45721374945E+02  0.00000000000E+00 0. -1.
         11    1    4    4    0    0  0.32606360685E+02 -0.11948946751E+02 -0.67747192133E+02  0.76129062305E+02  0.00000000000E+00 0.  1.
<mgrwt>
<rscale>  0 0.13550435E+03</rscale>
<asrwt>0</asrwt>
<pdfrwt beam="2">  1        2 0.23275194E-01 0.14311147E+03</pdfrwt>
<pdfrwt beam="1">  1       -2 0.17491864E-01 0.14311147E+03</pdfrwt>
<totfact> 0.58891540E+03</totfact>
</mgrwt>
</event>
<event>
 8    1  0.1154424E-005  0.2229088E+03  0.7546771E-02  0.1134938E+00
         -2   -1    0    0    0  501 -0.00000000000E+00  0.00000000000E+00  0.70643442200E+03  0.70643442200E+03  0.00000000000E+00 0.  1.
          2   -1    0    0  501    0  0.00000000000E+00 -0.00000000000E+00 -0.12359857433E+03  0.12359857433E+03  0.00000000000E+00 0. -1.
         23    2    1    2    0    0  0.17061885194E+03  0.70378409143E+02  0.58272158290E+03  0.62390126099E+03  0.12499770869E+03 0.  0.
         23    2    1    2    0    0 -0.17061885194E+03 -0.70378409143E+02  0.11426476505E+00  0.20613173534E+03  0.91795240333E+02 0.  0.
          5    1    3    3  502    0  0.40793870817E+02 -0.33894655436E+01  0.29012978347E+02  0.50393167051E+02  0.47000000000E+01 0. -1.
         -5    1    3    3    0  502  0.12982498112E+03  0.73767874686E+02  0.55370860456E+03  0.57350809394E+03  0.47000000000E+01 0. -1.
        -11    1    4    4    0    0 -0.11292297425E+02 -0.39577397541E+02  0.13473911819E+02  0.43306266024E+02  0.00000000000E+00 0.  1.
         11    1    4    4    0    0 -0.15932655451E+03 -0.30801011602E+02 -0.13359647054E+02  0.16282546932E+03  0.00000000000E+00 0. -1.
<mgrwt>
<rscale>  0 0.21859068E+03</rscale>
<asrwt>0</asrwt>
<pdfrwt beam="2">  1        2 0.19015166E-01 0.22290882E+03</pdfrwt>
<pdfrwt beam="1">  1       -2 0.10868222E+00 0.22290882E+03</pdfrwt>
<totfact> 0.20843910E+02</totfact>
</mgrwt>
</event>
<event>
 8    1  0.1154424E-005  0.2063282E+03  0.7546771E-02  0.1148823E+00
         -2   -1    0    0    0  501 -0.00000000000E+00  0.00000000000E+00  0.27288863284E+03  0.27288863284E+03  0.00000000000E+00 0.  1.
          2   -1    0    0  501    0  0.00000000000E+00 -0.00000000000E+00 -0.14122504746E+03  0.14122504746E+03  0.00000000000E+00 0. -1.
         23    2    1    2    0    0 -0.12940191472E+03 -0.10102226698E+03  0.74688367614E+02  0.21943031587E+03  0.12498382818E+03 0.  0.
         23    2    1    2    0    0  0.12940191472E+03  0.10102226698E+03  0.56975217760E+02  0.19468336443E+03  0.87778602120E+02 0.  0.
          5    1    3    3  502    0 -0.23905858048E+02 -0.36033952544E+02 -0.33475344900E+02  0.54887380163E+02  0.47000000000E+01 0. -1.
         -5    1    3    3    0  502 -0.10549605667E+03 -0.64988314432E+02  0.10816371251E+03  0.16454293570E+03  0.47000000000E+01 0. -1.
        -11    1    4    4    0    0  0.94860548435E+02  0.31936808145E+02  0.24224470409E+01  0.10012168403E+03  0.00000000000E+00 0. -1.
         11    1    4    4    0    0  0.34541366281E+02  0.69085458831E+02  0.54552770719E+02  0.94561680398E+02  0.00000000000E+00 0.  1.
<mgrwt>
<rscale>  0 0.20108992E+03</rscale>
<asrwt>0</asrwt>
<pdfrwt beam="2">  1        2 0.21726930E-01 0.20632816E+03</pdfrwt>
<pdfrwt beam="1">  1       -2 0.41982867E-01 0.20632816E+03</pdfrwt>
<totfact> 0.13580991E+03</totfact>
</mgrwt>
</event>
<event>
 8    1  0.1154424E-005  0.1616312E+03  0.7546771E-02  0.1193359E+00
          1   -1    0    0  501    0  0.00000000000E+00  0.00000000000E+00  0.40298078259E+03  0.40298078259E+03  0.00000000000E+00 0. -1.
         -1   -1    0    0    0  501 -0.00000000000E+00 -0.00000000000E+00 -0.61030588882E+02  0.61030588882E+02  0.00000000000E+00 0.  1.
         23    2    1    2    0    0 -0.99304468929E+02 -0.25289065814E+02  0.11893470896E+03  0.20067415512E+03  0.12499494845E+03 0.  0.
         23    2    1    2    0    0  0.99304468929E+02  0.25289065814E+02  0.22301548474E+03  0.26333721635E+03  0.95444584348E+02 0.  0.
          5    1    3    3  502    0 -0.10277280848E+03 -0.47412015060E+02  0.13230362958E+03  0.17417373435E+03  0.47000000000E+01 0. -1.
         -5    1    3    3    0  502  0.34683395543E+01  0.22122949245E+02 -0.13368920619E+02  0.26500420772E+02  0.47000000000E+01 0. -1.
        -11    1    4    4    0    0  0.38935360417E+02 -0.17890016897E+02  0.20208013792E+02  0.47374875375E+02  0.00000000000E+00 0.  1.
         11    1    4    4    0    0  0.60369108513E+02  0.43179082711E+02  0.20280747095E+03  0.21596234098E+03  0.00000000000E+00 0. -1.
<mgrwt>
<rscale>  0 0.15593918E+03</rscale>
<asrwt>0</asrwt>
<pdfrwt beam="1">  1        1 0.61997042E-01 0.16163122E+03</pdfrwt>
<pdfrwt beam="2">  1       -1 0.93893216E-02 0.16163122E+03</pdfrwt>
<totfact> 0.39310365E+03</totfact>
</mgrwt>
</event>
<event>
 8    1  0.1154424E-005  0.1615071E+03  0.7546771E-02  0.1194687E+00
          3   -1    0    0  501    0  0.00000000000E+00  0.00000000000E+00  0.13268502845E+03  0.13268502845E+03  0.00000000000E+00 0. -1.
         -3   -1    0    0    0  501 -0.00000000000E+00 -0.00000000000E+00 -0.17229575901E+03  0.17229575901E+03  0.00000000000E+00 0.  1.
         23    2    1    2    0    0  0.29002118157E+02 -0.98087762966E+02 -0.47722786886E+02  0.16841022669E+03  0.12498883136E+03 0.  0.
         23    2    1    2    0    0 -0.29002118157E+02  0.98087762966E+02  0.81120563268E+01  0.13657056076E+03  0.90129798116E+02 0.  0.
          5    1    3    3  502    0  0.68739133242E+02 -0.96907107209E+02 -0.22267724669E+02  0.12097106029E+03  0.47000000000E+01 0. -1.
         -5    1    3    3    0  502 -0.39737015085E+02 -0.11806557574E+01 -0.25455062217E+02  0.47439166396E+02  0.47000000000E+01 0. -1.
        -11    1    4    4    0    0 -0.46319851396E+02  0.50692952480E+02  0.37435333855E+02  0.78209387450E+02  0.00000000000E+00 0. -1.
         11    1    4    4    0    0  0.17317733239E+02  0.47394810486E+02 -0.29323277529E+02  0.58361173314E+02  0.00000000000E+00 0.  1.
<mgrwt>
<rscale>  0 0.15480718E+03</rscale>
<asrwt>0</asrwt>
<pdfrwt beam="1">  1        3 0.20413081E-01 0.16150709E+03</pdfrwt>
<pdfrwt beam="2">  1       -3 0.26507040E-01 0.16150709E+03</pdfrwt>
<totfact> 0.69303992E+02</totfact>
</mgrwt>
</event>
<event>
 8    1  0.1154424E-005  0.1255312E+03  0.7546771E-02  0.1248676E+00
          1   -1    0    0  501    0  0.00000000000E+00  0.00000000000E+00  0.23317756557E+03  0.23317756557E+03  0.00000000000E+00 0. -1.
         -1   -1    0    0    0  501 -0.00000000000E+00 -0.00000000000E+00 -0.71056562128E+02  0.71056562128E+02  0.00000000000E+00 0.  1.
         23    2    1    2    0    0  0.56375117364E+01 -0.10017323468E+02  0.10463944605E+02  0.12596656337E+03  0.12500381052E+03 0.  0.
         23    2    1    2    0    0 -0.56375117364E+01  0.10017323468E+02  0.15165705883E+03  0.17826756432E+03  0.92991035520E+02 0.  0.
          5    1    3    3  502    0 -0.11153751205E+02  0.93431040124E+01  0.64334189901E+02  0.66126225877E+02  0.47000000000E+01 0. -1.
         -5    1    3    3    0  502  0.16791262941E+02 -0.19360427481E+02 -0.53870245296E+02  0.59840337496E+02  0.47000000000E+01 0. -1.
        -11    1    4    4    0    0 -0.40180696448E+02 -0.10756140656E+02  0.33449754251E+02  0.53376670825E+02  0.00000000000E+00 0.  1.
         11    1    4    4    0    0  0.34543184712E+02  0.20773464124E+02  0.11820730458E+03  0.12489089350E+03  0.00000000000E+00 0. -1.
<mgrwt>
<rscale>  0 0.11668022E+03</rscale>
<asrwt>0</asrwt>
<pdfrwt beam="1">  1        1 0.35873471E-01 0.12553120E+03</pdfrwt>
<pdfrwt beam="2">  1       -1 0.10931779E-01 0.12553120E+03</pdfrwt>
<totfact> 0.60681621E+03</totfact>
</mgrwt>
</event>
<event>
 8    1  0.1154424E-005  0.1427514E+03  0.7546771E-02  0.1220395E+00
         -2   -1    0    0    0  501 -0.00000000000E+00  0.00000000000E+00  0.18722687123E+03  0.18722687123E+03  0.00000000000E+00 0.  1.
          2   -1    0    0  501    0  0.00000000000E+00 -0.00000000000E+00 -0.91499591670E+02  0.91499591670E+02  0.00000000000E+00 0. -1.
         23    2    1    2    0    0 -0.50962738386E+02 -0.46430926132E+02  0.80679891818E+02  0.16397318132E+03  0.12499971058E+03 0.  0.
         23    2    1    2    0    0  0.50962738386E+02  0.46430926132E+02  0.15047387741E+02  0.11475328157E+03  0.90492320940E+02 0.  0.
          5    1    3    3  502    0  0.40894739639E+02 -0.16301191057E+02  0.37374028743E+02  0.57939766866E+02  0.47000000000E+01 0.  1.
         -5    1    3    3    0  502 -0.91857478025E+02 -0.30129735075E+02  0.43305863075E+02  0.10603341446E+03  0.47000000000E+01 0.  1.
        -11    1    4    4    0    0  0.64512563630E+02  0.30179803472E+02  0.40279456764E+02  0.81823749859E+02  0.00000000000E+00 0.  1.
         11    1    4    4    0    0 -0.13549825244E+02  0.16251122660E+02 -0.25232069023E+02  0.32929531716E+02  0.00000000000E+00 0. -1.
<mgrwt>
<rscale>  0 0.13487609E+03</rscale>
<asrwt>0</asrwt>
<pdfrwt beam="2">  1        2 0.14076860E-01 0.14275139E+03</pdfrwt>
<pdfrwt beam="1">  1       -2 0.28804134E-01 0.14275139E+03</pdfrwt>
<totfact> 0.44375663E+03</totfact>
</mgrwt>
</event>
<event>
 8    1  0.1154424E-005  0.2612350E+03  0.7546771E-02  0.1108724E+00
          2   -1    0    0  501    0  0.00000000000E+00  0.00000000000E+00  0.56307067067E+03  0.56307067067E+03  0.00000000000E+00 0. -1.
         -2   -1    0    0    0  501 -0.00000000000E+00 -0.00000000000E+00 -0.13096759898E+03  0.13096759898E+03  0.00000000000E+00 0.  1.
         23    2    1    2    0    0 -0.45129826983E+02  0.22418677333E+03  0.97951210431E+02  0.27899489624E+03  0.12628262701E+03 0.  0.
         23    2    1    2    0    0  0.45129826983E+02 -0.22418677333E+03  0.33415186126E+03  0.41504337342E+03  0.91143429916E+02 0.  0.
          5    1    3    3  502    0  0.13059658377E+02  0.16491232675E+02  0.54923793074E+02  0.59001936220E+02  0.47000000000E+01 0. -1.
         -5    1    3    3    0  502 -0.58189485360E+02  0.20769554065E+03  0.43027417358E+02  0.21999296002E+03  0.47000000000E+01 0.  1.
        -11    1    4    4    0    0  0.31544593488E+02 -0.22510815609E+03  0.33018169001E+03  0.40085994030E+03  0.00000000000E+00 0. -1.
         11    1    4    4    0    0  0.13585233495E+02  0.92138276620E+00  0.39701712499E+01  0.14183433120E+02  0.00000000000E+00 0.  1.
<mgrwt>
<rscale>  0 0.25738648E+03</rscale>
<asrwt>0</asrwt>
<pdfrwt beam="1">  1        2 0.86626256E-01 0.26123498E+03</pdfrwt>
<pdfrwt beam="2">  1       -2 0.20148862E-01 0.26123498E+03</pdfrwt>
<totfact> 0.11287430E+03</totfact>
</mgrwt>
</event>
<event>
 8    1  0.1154424E-005  0.1318080E+03  0.7546771E-02  0.1233184E+00
         -2   -1    0    0    0  501 -0.00000000000E+00  0.00000000000E+00  0.98317215370E+03  0.98317215370E+03  0.00000000000E+00 0.  1.
          2   -1    0    0  501    0  0.00000000000E+00 -0.00000000000E+00 -0.18366470936E+02  0.18366470936E+02  0.00000000000E+00 0. -1.
         23    2    1    2    0    0 -0.24722790848E+02  0.57565209759E+02  0.73114583136E+03  0.74293174972E+03  0.11596718615E+03 0.  0.
         23    2    1    2    0    0  0.24722790848E+02 -0.57565209759E+02  0.23365985140E+03  0.25860687491E+03  0.91409079605E+02 0.  0.
          5    1    3    3  502    0  0.10931531431E+02  0.35883279979E+02  0.63034550214E+02  0.73502059033E+02  0.47000000000E+01 0. -1.
         -5    1    3    3    0  502 -0.35654322279E+02  0.21681929780E+02  0.66811128115E+03  0.66942969069E+03  0.47000000000E+01 0.  1.
        -11    1    4    4    0    0 -0.34485533736E+02 -0.21492748016E+02  0.71355852482E+02  0.82114846025E+02  0.00000000000E+00 0.  1.
         11    1    4    4    0    0  0.59208324584E+02 -0.36072461742E+02  0.16230399892E+03  0.17649202889E+03  0.00000000000E+00 0. -1.
<mgrwt>
<rscale>  0 0.12621437E+03</rscale>
<asrwt>0</asrwt>
<pdfrwt beam="2">  1        2 0.28256117E-02 0.13180803E+03</pdfrwt>
<pdfrwt beam="1">  1       -2 0.15125721E+00 0.13180803E+03</pdfrwt>
<totfact> 0.10192942E+03</totfact>
</mgrwt>
</event>
<event>
 7    1  0.1154424E-005  0.2295736E+03  0.7546771E-02  0.1126940E+00
          2   -1    0    0  501    0  0.00000000000E+00  0.00000000000E+00  0.28016995264E+02  0.28016995264E+02  0.00000000000E+00 0. -1.
         -2   -1    0    0    0  501 -0.00000000000E+00 -0.00000000000E+00 -0.47028619801E+03  0.47028619801E+03  0.00000000000E+00 0.  1.
         23    2    1    2    0    0  0.85223352931E+01 -0.19449969420E+02 -0.13664907425E+03  0.16452636164E+03  0.89134856664E+02 0.  0.
          5    1    1    2  502    0 -0.82504155558E+00 -0.22533707836E+02  0.20500199817E+01  0.23124473277E+02  0.47000000000E+01 0. -1.
         -5    1    1    2    0  502 -0.76972937375E+01  0.41983677256E+02 -0.30767014847E+03  0.31065235835E+03  0.47000000000E+01 0.  1.
        -11    1    3    3    0    0 -0.36870328646E+02 -0.25207471928E+02 -0.54199521132E+02  0.70231231417E+02  0.00000000000E+00 0.  1.
         11    1    3    3    0    0  0.45392663939E+02  0.57575025082E+01 -0.82449553118E+02  0.94295130224E+02  0.00000000000E+00 0. -1.
<mgrwt>
<rscale>  0 0.22957357E+03</rscale>
<asrwt>0</asrwt>
<pdfrwt beam="1">  1        2 0.43103071E-02 0.22957357E+03</pdfrwt>
<pdfrwt beam="2">  1       -2 0.72351720E-01 0.22957357E+03</pdfrwt>
<totfact> 0.33617208E+03</totfact>
</mgrwt>
</event>
<event>
 8    1  0.1154424E-005  0.1978343E+03  0.7546771E-02  0.1155890E+00
          1   -1    0    0  501    0  0.00000000000E+00  0.00000000000E+00  0.62539234118E+03  0.62539234118E+03  0.00000000000E+00 0.  1.
         -1   -1    0    0    0  501 -0.00000000000E+00 -0.00000000000E+00 -0.61584702731E+02  0.61584702731E+02  0.00000000000E+00 0. -1.
         23    2    1    2    0    0 -0.13035563331E+03 -0.80755212605E+02  0.19833262669E+03  0.28013257237E+03  0.12499772717E+03 0.  0.
         23    2    1    2    0    0  0.13035563331E+03  0.80755212605E+02  0.36547501176E+03  0.40684447154E+03  0.91850118683E+02 0.  0.
          5    1    3    3  502    0  0.18402315858E+02  0.79939793686E+01  0.64651632643E+01  0.21597158867E+02  0.47000000000E+01 0.  1.
         -5    1    3    3    0  502 -0.14875794916E+03 -0.88749191974E+02  0.19186746342E+03  0.25853541350E+03  0.47000000000E+01 0.  1.
        -11    1    4    4    0    0  0.91385713544E+02  0.48995318730E+02  0.32839446887E+03  0.34437598215E+03  0.00000000000E+00 0.  1.
         11    1    4    4    0    0  0.38969919762E+02  0.31759893875E+02  0.37080542888E+02  0.62468489385E+02  0.00000000000E+00 0. -1.
<mgrwt>
<rscale>  0 0.19287941E+03</rscale>
<asrwt>0</asrwt>
<pdfrwt beam="1">  1        1 0.96214202E-01 0.19783434E+03</pdfrwt>
<pdfrwt beam="2">  1       -1 0.94745701E-02 0.19783434E+03</pdfrwt>
<totfact> 0.21823214E+03</totfact>
</mgrwt>
</event>
<event>
 8    1  0.1154424E-005  0.1598304E+03  0.7546771E-02  0.1196347E+00
          2   -1    0    0  501    0  0.00000000000E+00  0.00000000000E+00  0.11978625725E+04  0.11978625725E+04  0.00000000000E+00 0. -1.
         -2   -1    0    0    0  501 -0.00000000000E+00 -0.00000000000E+00 -0.19166317022E+02  0.19166317022E+02  0.00000000000E+00 0.  1.
         23    2    1    2    0    0 -0.76937143974E+02  0.63237689486E+02  0.50052237990E+03  0.52542211792E+03  0.12500967851E+03 0.  0.
         23    2    1    2    0    0  0.76937143974E+02 -0.63237689486E+02  0.67817387553E+03  0.69160677156E+03  0.92096642283E+02 0.  0.
          5    1    3    3  502    0 -0.91681861722E+02 -0.27196200798E+01  0.27372409965E+03  0.28872120260E+03  0.47000000000E+01 0. -1.
         -5    1    3    3    0  502  0.14744717748E+02  0.65957309565E+02  0.22679828025E+03  0.23670091532E+03  0.47000000000E+01 0. -1.
        -11    1    4    4    0    0 -0.20186008779E+02 -0.26176412207E+01  0.78112489514E+02  0.80721050625E+02  0.00000000000E+00 0.  1.
         11    1    4    4    0    0  0.97123152753E+02 -0.60620048265E+02  0.60006138602E+03  0.61088572094E+03  0.00000000000E+00 0. -1.
<mgrwt>
<rscale>  0 0.15340767E+03</rscale>
<asrwt>0</asrwt>
<pdfrwt beam="1">  1        2 0.18428649E+00 0.15983038E+03</pdfrwt>
<pdfrwt beam="2">  1       -2 0.29486651E-02 0.15983038E+03</pdfrwt>
<totfact> 0.85224485E+03</totfact>
</mgrwt>
</event>
<event>
 8    1  0.1154424E-005  0.1784021E+03  0.7546771E-02  0.1175179E+00
         -2   -1    0    0    0  501 -0.00000000000E+00  0.00000000000E+00  0.47033989166E+02  0.47033989166E+02  0.00000000000E+00 0.  1.
          2   -1    0    0  501    0  0.00000000000E+00 -0.00000000000E+00 -0.63152967264E+03  0.63152967264E+03  0.00000000000E+00 0. -1.
         23    2    1    2    0    0  0.12620422842E+03  0.16569958088E+02 -0.22933883490E+03  0.29055739383E+03  0.12500090854E+03 0.  0.
         23    2    1    2    0    0 -0.12620422842E+03 -0.16569958088E+02 -0.35515684858E+03  0.38800626798E+03  0.90611291331E+02 0.  0.
          5    1    3    3  502    0  0.50733648911E+02 -0.53783290991E+01 -0.34624225839E+01  0.51350831794E+02  0.47000000000E+01 0.  1.
         -5    1    3    3    0  502  0.75470579507E+02  0.21948287187E+02 -0.22587641231E+03  0.23920656204E+03  0.47000000000E+01 0.  1.
        -11    1    4    4    0    0 -0.68026252190E+01  0.90827552906E+01  0.10972010227E+01  0.11400701892E+02  0.00000000000E+00 0.  1.
         11    1    4    4    0    0 -0.11940160320E+03 -0.25652713379E+02 -0.35625404960E+03  0.37660556609E+03  0.00000000000E+00 0. -1.
<mgrwt>
<rscale>  0 0.17258434E+03</rscale>
<asrwt>0</asrwt>
<pdfrwt beam="2">  1        2 0.97158407E-01 0.17840207E+03</pdfrwt>
<pdfrwt beam="1">  1       -2 0.72359987E-02 0.17840207E+03</pdfrwt>
<totfact> 0.51476728E+03</totfact>
</mgrwt>
</event>
<event>
 8    1  0.1154424E-005  0.1367341E+03  0.7546771E-02  0.1229566E+00
          1   -1    0    0  501    0  0.00000000000E+00  0.00000000000E+00  0.67062056632E+02  0.67062056632E+02  0.00000000000E+00 0. -1.
         -1   -1    0    0    0  501 -0.00000000000E+00 -0.00000000000E+00 -0.22164519546E+03  0.22164519546E+03  0.00000000000E+00 0.  1.
         23    2    1    2    0    0  0.11709621651E+02 -0.54147372278E+02 -0.81649656178E+02  0.15925725834E+03  0.12500861897E+03 0.  0.
         23    2    1    2    0    0 -0.11709621651E+02  0.54147372278E+02 -0.72933482647E+02  0.12944999375E+03  0.91481991814E+02 0.  0.
          5    1    3    3  502    0  0.16885479237E+02 -0.13829130887E+02 -0.10819946305E+03  0.11047885804E+03  0.47000000000E+01 0. -1.
         -5    1    3    3    0  502 -0.51758575866E+01 -0.40318241392E+02  0.26549806873E+02  0.48778400298E+02  0.47000000000E+01 0. -1.
        -11    1    4    4    0    0  0.26826251211E+02  0.41902452927E+02 -0.44916395825E+01  0.49956362373E+02  0.00000000000E+00 0. -1.
         11    1    4    4    0    0 -0.38535872861E+02  0.12244919351E+02 -0.68441843064E+02  0.79493631374E+02  0.00000000000E+00 0.  1.
<mgrwt>
<rscale>  0 0.12858828E+03</rscale>
<asrwt>0</asrwt>
<pdfrwt beam="1">  1        1 0.10317239E-01 0.13673408E+03</pdfrwt>
<pdfrwt beam="2">  1       -1 0.34099261E-01 0.13673408E+03</pdfrwt>
<totfact> 0.48087658E+03</totfact>
</mgrwt>
</event>
<event>
 7    1  0.1154424E-005  0.1683163E+03  0.7546771E-02  0.1184646E+00
          1   -1    0    0  501    0  0.00000000000E+00  0.00000000000E+00  0.29392611411E+03  0.29392611411E+03  0.00000000000E+00 0. -1.
         -1   -1    0    0    0  501 -0.00000000000E+00 -0.00000000000E+00 -0.93014933154E+02  0.93014933154E+02  0.00000000000E+00 0.  1.
         23    2    1    2    0    0 -0.81347095070E+02  0.69686110556E+02  0.14676849166E+03  0.21013091738E+03  0.10554860689E+03 0.  0.
          5    1    1    2  502    0  0.98301412361E+02 -0.26292952460E+02 -0.42598604054E+01  0.10195451649E+03  0.47000000000E+01 0. -1.
         -5    1    1    2    0  502 -0.16954317291E+02 -0.43393158097E+02  0.58402549707E+02  0.74855613395E+02  0.47000000000E+01 0.  1.
        -11    1    3    3    0    0 -0.10585248872E+03  0.43317397642E+02  0.11063802419E+03  0.15912862315E+03  0.00000000000E+00 0.  1.
         11    1    3    3    0    0  0.24505393649E+02  0.26368712914E+02  0.36130467461E+02  0.51002294239E+02  0.00000000000E+00 0. -1.
<mgrwt>
<rscale>  0 0.16364092E+03</rscale>
<asrwt>0</asrwt>
<pdfrwt beam="1">  1        1 0.45219402E-01 0.16831634E+03</pdfrwt>
<pdfrwt beam="2">  1       -1 0.14309990E-01 0.16831634E+03</pdfrwt>
<totfact> 0.30478303E+03</totfact>
</mgrwt>
</event>
<event>
 8    1  0.1154424E-005  0.1641752E+03  0.7546771E-02  0.1190812E+00
          4   -1    0    0  501    0  0.00000000000E+00  0.00000000000E+00  0.35371726691E+03  0.35371726691E+03  0.00000000000E+00 0. -1.
         -4   -1    0    0    0  501 -0.00000000000E+00 -0.00000000000E+00 -0.66092682604E+02  0.66092682604E+02  0.00000000000E+00 0.  1.
         23    2    1    2    0    0 -0.28658652848E+02 -0.10251182650E+03  0.14546332392E+03  0.21934692973E+03  0.12499401594E+03 0.  0.
         23    2    1    2    0    0  0.28658652848E+02  0.10251182650E+03  0.14216126039E+03  0.20046301979E+03  0.92981747622E+02 0.  0.
          5    1    3    3  502    0 -0.66513986669E+02 -0.95348272409E+02  0.13678409379E+03  0.17957556010E+03  0.47000000000E+01 0. -1.
         -5    1    3    3    0  502  0.37855333821E+02 -0.71635540918E+01  0.86792301296E+01  0.39771369622E+02  0.47000000000E+01 0. -1.
        -11    1    4    4    0    0  0.25324993003E+02 -0.11380437659E+00  0.71410308388E+02  0.75768069568E+02  0.00000000000E+00 0.  1.
         11    1    4    4    0    0  0.33336598450E+01  0.10262563088E+03  0.70750952003E+02  0.12469495022E+03  0.00000000000E+00 0. -1.
<mgrwt>
<rscale>  0 0.15814051E+03</rscale>
<asrwt>0</asrwt>
<pdfrwt beam="1">  1        4 0.54418040E-01 0.16417520E+03</pdfrwt>
<pdfrwt beam="2">  1       -4 0.10168105E-01 0.16417520E+03</pdfrwt>
<totfact> 0.41339427E+02</totfact>
</mgrwt>
</event>
<event>
 8    1  0.1154424E-005  0.1674640E+03  0.7546771E-02  0.1187849E+00
          2   -1    0    0  501    0  0.00000000000E+00  0.00000000000E+00  0.11366386691E+03  0.11366386691E+03  0.00000000000E+00 0.  1.
         -2   -1    0    0    0  501 -0.00000000000E+00 -0.00000000000E+00 -0.23395282981E+03  0.23395282981E+03  0.00000000000E+00 0. -1.
         23    2    1    2    0    0  0.15750941593E+02  0.11030482591E+03 -0.11896742186E+03  0.20542016676E+03  0.12501580169E+03 0.  0.
         23    2    1    2    0    0 -0.15750941593E+02 -0.11030482591E+03 -0.13215410417E+01  0.14219652996E+03  0.88333798082E+02 0.  0.
          5    1    3    3  502    0  0.13312878314E+02  0.12226109756E+03 -0.46155875040E+02  0.13144376557E+03  0.47000000000E+01 0. -1.
         -5    1    3    3    0  502  0.24380632792E+01 -0.11956271654E+02 -0.72811546818E+02  0.73976401199E+02  0.47000000000E+01 0. -1.
        -11    1    4    4    0    0 -0.29820997873E+02 -0.48056765753E+02  0.37161052963E+02  0.67673395852E+02  0.00000000000E+00 0.  1.
         11    1    4    4    0    0  0.14070056279E+02 -0.62248060152E+02 -0.38482594004E+02  0.74523134111E+02  0.00000000000E+00 0. -1.
<mgrwt>
<rscale>  0 0.16075285E+03</rscale>
<asrwt>0</asrwt>
<pdfrwt beam="1">  1        2 0.17486749E-01 0.16746402E+03</pdfrwt>
<pdfrwt beam="2">  1       -2 0.35992742E-01 0.16746402E+03</pdfrwt>
<totfact> 0.23130634E+03</totfact>
</mgrwt>
</event>
<event>
 8    1  0.1154424E-005  0.1295981E+03  0.7546771E-02  0.1242327E+00
         -1   -1    0    0    0  501 -0.00000000000E+00  0.00000000000E+00  0.41745240865E+02  0.41745240865E+02  0.00000000000E+00 0.  1.
          1   -1    0    0  501    0  0.00000000000E+00 -0.00000000000E+00 -0.34334033598E+03  0.34334033598E+03  0.00000000000E+00 0. -1.
         23    2    1    2    0    0  0.32685609594E+02 -0.10096309550E+02 -0.10816886292E+03  0.16880808044E+03  0.12500152229E+03 0.  0.
         23    2    1    2    0    0 -0.32685609594E+02  0.10096309550E+02 -0.19342623219E+03  0.21627749640E+03  0.90509466956E+02 0.  0.
          5    1    3    3  502    0  0.82101160303E+01  0.55188360616E+02 -0.68430050575E+02  0.88419019302E+02  0.47000000000E+01 0.  1.
         -5    1    3    3    0  502  0.24475493563E+02 -0.65284670166E+02 -0.39738812344E+02  0.80389061136E+02  0.47000000000E+01 0.  1.
        -11    1    4    4    0    0 -0.47829256544E+02  0.63549511177E+01 -0.19473531697E+03  0.20062369466E+03  0.00000000000E+00 0. -1.
         11    1    4    4    0    0  0.15143646951E+02  0.37413584319E+01  0.13090847779E+01  0.15653801737E+02  0.00000000000E+00 0.  1.
<mgrwt>
<rscale>  0 0.12046794E+03</rscale>
<asrwt>0</asrwt>
<pdfrwt beam="2">  1        1 0.52821588E-01 0.12959809E+03</pdfrwt>
<pdfrwt beam="1">  1       -1 0.64223450E-02 0.12959809E+03</pdfrwt>
<totfact> 0.84184948E+03</totfact>
</mgrwt>
</event>
<event>
 8    1  0.1154424E-005  0.1448221E+03  0.7546771E-02  0.1217551E+00
          2   -1    0    0  501    0  0.00000000000E+00  0.00000000000E+00  0.17382129213E+03  0.17382129213E+03  0.00000000000E+00 0. -1.
         -2   -1    0    0    0  501 -0.00000000000E+00 -0.00000000000E+00 -0.10783314734E+03  0.10783314734E+03  0.00000000000E+00 0.  1.
         23    2    1    2    0    0 -0.35018362187E+01  0.73046098148E+02 -0.68161637881E+01  0.14498243714E+03  0.12500180670E+03 0.  0.
         23    2    1    2    0    0  0.35018362187E+01 -0.73046098148E+02  0.72804308586E+02  0.13667200233E+03  0.89614583414E+02 0.  0.
          5    1    3    3  502    0  0.58188585311E+02  0.40630049979E+02 -0.20040308365E+02  0.73894630260E+02  0.47000000000E+01 0. -1.
         -5    1    3    3    0  502 -0.61690421530E+02  0.32416048169E+02  0.13224144577E+02  0.71087806881E+02  0.47000000000E+01 0. -1.
        -11    1    4    4    0    0  0.29960512688E+02  0.62447684975E+01  0.29604038866E+02  0.42579673217E+02  0.00000000000E+00 0.  1.
         11    1    4    4    0    0 -0.26458676469E+02 -0.79290866645E+02  0.43200269720E+02  0.94092329112E+02  0.00000000000E+00 0. -1.
<mgrwt>
<rscale>  0 0.13690780E+03</rscale>
<asrwt>0</asrwt>
<pdfrwt beam="1">  1        2 0.26741737E-01 0.14482212E+03</pdfrwt>
<pdfrwt beam="2">  1       -2 0.16589715E-01 0.14482212E+03</pdfrwt>
<totfact> 0.55196042E+03</totfact>
</mgrwt>
</event>
<event>
 8    1  0.1154424E-005  0.1360831E+03  0.7546771E-02  0.1230344E+00
          1   -1    0    0  501    0  0.00000000000E+00  0.00000000000E+00  0.42864289590E+03  0.42864289590E+03  0.00000000000E+00 0. -1.
         -1   -1    0    0    0  501 -0.00000000000E+00 -0.00000000000E+00 -0.44006972862E+02  0.44006972862E+02  0.00000000000E+00 0.  1.
         23    2    1    2    0    0  0.18972519454E+02  0.50333965387E+02  0.10065305671E+03  0.16926209211E+03  0.12500061374E+03 0.  0.
         23    2    1    2    0    0 -0.18972519454E+02 -0.50333965387E+02  0.28398286633E+03  0.30338777665E+03  0.92219358519E+02 0.  0.
          5    1    3    3  502    0 -0.45082183149E+02 -0.11572138921E+02  0.37701386424E+02  0.60081629264E+02  0.47000000000E+01 0. -1.
         -5    1    3    3    0  502  0.64054702604E+02  0.61906104308E+02  0.62951670284E+02  0.10918046285E+03  0.47000000000E+01 0. -1.
        -11    1    4    4    0    0 -0.44563231834E+02 -0.73186614492E+01  0.20473986512E+03  0.20966129068E+03  0.00000000000E+00 0.  1.
         11    1    4    4    0    0  0.25590712380E+02 -0.43015303938E+02  0.79243001207E+02  0.93726485975E+02  0.00000000000E+00 0. -1.
<mgrwt>
<rscale>  0 0.12807259E+03</rscale>
<asrwt>0</asrwt>
<pdfrwt beam="1">  1        1 0.65945058E-01 0.13608313E+03</pdfrwt>
<pdfrwt beam="2">  1       -1 0.67703038E-02 0.13608313E+03</pdfrwt>
<totfact> 0.59065370E+03</totfact>
</mgrwt>
</event>
<event>
 8    1  0.1154424E-005  0.1165592E+03  0.7546771E-02  0.1258511E+00
         -2   -1    0    0    0  501 -0.00000000000E+00  0.00000000000E+00  0.74028004613E+02  0.74028004613E+02  0.00000000000E+00 0.  1.
          2   -1    0    0  501    0  0.00000000000E+00 -0.00000000000E+00 -0.15311063369E+03  0.15311063369E+03  0.00000000000E+00 0. -1.
         23    2    1    2    0    0 -0.34721408096E+02  0.91607920542E+01 -0.46617323325E+02  0.12553576847E+03  0.11088984642E+03 0.  0.
         23    2    1    2    0    0  0.34721408096E+02 -0.91607920542E+01 -0.32465305753E+02  0.10160286984E+03  0.89328891126E+02 0.  0.
          5    1    3    3  502    0  0.37941305131E+02  0.18969244457E+02 -0.22235611877E+02  0.48123666796E+02  0.47000000000E+01 0. -1.
         -5    1    3    3    0  502 -0.72662713227E+02 -0.98084524027E+01 -0.24381711448E+02  0.77412101672E+02  0.47000000000E+01 0.  1.
        -11    1    4    4    0    0  0.32405429243E+00 -0.42677663513E+02 -0.32386989071E+02  0.53576161072E+02  0.00000000000E+00 0.  1.
         11    1    4    4    0    0  0.34397353804E+02  0.33516871459E+02 -0.78316681588E-01  0.48026708763E+02  0.00000000000E+00 0. -1.
<mgrwt>
<rscale>  0 0.11111942E+03</rscale>
<asrwt>0</asrwt>
<pdfrwt beam="2">  1        2 0.23555482E-01 0.11655923E+03</pdfrwt>
<pdfrwt beam="1">  1       -2 0.11388924E-01 0.11655923E+03</pdfrwt>
<totfact> 0.11475795E+04</totfact>
</mgrwt>
</event>
<event>
 8    1  0.1154424E-005  0.2397201E+03  0.7546771E-02  0.1122886E+00
         -1   -1    0    0    0  501 -0.00000000000E+00  0.00000000000E+00  0.12414219870E+03  0.12414219870E+03  0.00000000000E+00 0.  1.
          1   -1    0    0  501    0  0.00000000000E+00 -0.00000000000E+00 -0.47978435030E+03  0.47978435030E+03  0.00000000000E+00 0. -1.
         23    2    1    2    0    0  0.72418672256E+02 -0.19130384506E+03 -0.87474357393E+02  0.25518131184E+03  0.12499645389E+03 0.  0.
         23    2    1    2    0    0 -0.72418672256E+02  0.19130384506E+03 -0.26816779421E+03  0.34874523716E+03  0.88699770931E+02 0.  0.
          5    1    3    3  502    0 -0.29713879368E+02 -0.29824446776E+02  0.53668400806E+01  0.42700178279E+02  0.47000000000E+01 0.  1.
         -5    1    3    3    0  502  0.10213255162E+03 -0.16147939829E+03 -0.92841197473E+02  0.21248113356E+03  0.47000000000E+01 0.  1.
        -11    1    4    4    0    0 -0.78941730646E+02  0.16062965573E+03 -0.26117230252E+03  0.31661436281E+03  0.00000000000E+00 0. -1.
         11    1    4    4    0    0  0.65230583902E+01  0.30674189336E+02 -0.69954916867E+01  0.32130874344E+02  0.00000000000E+00 0.  1.
<mgrwt>
<rscale>  0 0.23541441E+03</rscale>
<asrwt>0</asrwt>
<pdfrwt beam="2">  1        1 0.73812976E-01 0.23972013E+03</pdfrwt>
<pdfrwt beam="1">  1       -1 0.19098800E-01 0.23972013E+03</pdfrwt>
<totfact> 0.10386987E+03</totfact>
</mgrwt>
</event>
<event>
 8    1  0.1154424E-005  0.2631241E+03  0.7546771E-02  0.1107448E+00
          2   -1    0    0  501    0  0.00000000000E+00  0.00000000000E+00  0.50222606311E+03  0.50222606311E+03  0.00000000000E+00 0.  1.
         -2   -1    0    0    0  501 -0.00000000000E+00 -0.00000000000E+00 -0.13125802297E+03  0.13125802297E+03  0.00000000000E+00 0. -1.
         23    2    1    2    0    0  0.21278522082E+03  0.91284096021E+02  0.21462573114E+03  0.33955631711E+03  0.12499580648E+03 0.  0.
         23    2    1    2    0    0 -0.21278522082E+03 -0.91284096021E+02  0.15634230900E+03  0.29392776897E+03  0.91325130171E+02 0.  0.
          5    1    3    3  502    0  0.85682481984E+02 -0.29225660759E+01  0.14078319130E+03  0.16490004871E+03  0.47000000000E+01 0. -1.
         -5    1    3    3    0  502  0.12710273884E+03  0.94206662097E+02  0.73842539836E+02  0.17465626841E+03  0.47000000000E+01 0. -1.
        -11    1    4    4    0    0 -0.52091308191E+02 -0.42643047674E+01  0.80703506348E+02  0.96149595013E+02  0.00000000000E+00 0.  1.
         11    1    4    4    0    0 -0.16069391263E+03 -0.87019791254E+02  0.75638802647E+02  0.19777817395E+03  0.00000000000E+00 0. -1.
<mgrwt>
<rscale>  0 0.25949331E+03</rscale>
<asrwt>0</asrwt>
<pdfrwt beam="1">  1        2 0.77265547E-01 0.26312409E+03</pdfrwt>
<pdfrwt beam="2">  1       -2 0.20193542E-01 0.26312409E+03</pdfrwt>
<totfact> 0.12806295E+03</totfact>
</mgrwt>
</event>
<event>
 8    1  0.1154424E-005  0.1402590E+03  0.7546771E-02  0.1224714E+00
          1   -1    0    0  501    0  0.00000000000E+00  0.00000000000E+00  0.69193508827E+02  0.69193508827E+02  0.00000000000E+00 0. -1.
         -1   -1    0    0    0  501 -0.00000000000E+00 -0.00000000000E+00 -0.23140523241E+03  0.23140523241E+03  0.00000000000E+00 0.  1.
         23    2    1    2    0    0 -0.53017139006E+02 -0.35153589861E+02 -0.11459575172E+03  0.18112087694E+03  0.12500397531E+03 0.  0.
         23    2    1    2    0    0  0.53017139006E+02  0.35153589861E+02 -0.47615971867E+02  0.11947786430E+03  0.89224925732E+02 0.  0.
          5    1    3    3  502    0  0.15467532085E+02 -0.14318650093E+02  0.19464808622E+02  0.29072961046E+02  0.47000000000E+01 0. -1.
         -5    1    3    3    0  502 -0.68484671091E+02 -0.20834939769E+02 -0.13406056034E+03  0.15204791589E+03  0.47000000000E+01 0. -1.
        -11    1    4    4    0    0  0.78027917379E+02  0.21757764245E+02 -0.38406794926E+02  0.89648413772E+02  0.00000000000E+00 0. -1.
         11    1    4    4    0    0 -0.25010778373E+02  0.13395825616E+02 -0.92091769410E+01  0.29829450526E+02  0.00000000000E+00 0.  1.
<mgrwt>
<rscale>  0 0.13186527E+03</rscale>
<asrwt>0</asrwt>
<pdfrwt beam="1">  1        1 0.10645155E-01 0.14025900E+03</pdfrwt>
<pdfrwt beam="2">  1       -1 0.35600805E-01 0.14025900E+03</pdfrwt>
<totfact> 0.42916725E+03</totfact>
</mgrwt>
</event>
<event>
 8    1  0.1154424E-005  0.1740049E+03  0.7546771E-02  0.1179543E+00
          2   -1    0    0  501    0  0.00000000000E+00  0.00000000000E+00  0.15872001255E+04  0.15872001255E+04  0.00000000000E+00 0. -1.
         -2   -1    0    0    0  501 -0.00000000000E+00 -0.00000000000E+00 -0.17382327322E+02  0.17382327322E+02  0.00000000000E+00 0.  1.
         23    2    1    2    0    0  0.11909481812E+03  0.21619697549E+02  0.98109714474E+03  0.99640820699E+03  0.12500688190E+03 0.  0.
         23    2    1    2    0    0 -0.11909481812E+03 -0.21619697549E+02  0.58872065342E+03  0.60817424581E+03  0.92913499991E+02 0.  0.
          5    1    3    3  502    0  0.11594914393E+03  0.58420415742E+02  0.85871711460E+03  0.86848967861E+03  0.47000000000E+01 0.  1.
         -5    1    3    3    0  502  0.31456741854E+01 -0.36800718192E+02  0.12238003014E+03  0.12791852838E+03  0.47000000000E+01 0.  1.
        -11    1    4    4    0    0 -0.99822612911E+02  0.77327984334E+01  0.53292865372E+03  0.54225206332E+03  0.00000000000E+00 0. -1.
         11    1    4    4    0    0 -0.19272205204E+02 -0.29352495983E+02  0.55791999707E+02  0.65922182497E+02  0.00000000000E+00 0.  1.
<mgrwt>
<rscale>  0 0.16838488E+03</rscale>
<asrwt>0</asrwt>
<pdfrwt beam="1">  1        2 0.24418452E+00 0.17400491E+03</pdfrwt>
<pdfrwt beam="2">  1       -2 0.26742055E-02 0.17400491E+03</pdfrwt>
<totfact> 0.61042631E+03</totfact>
</mgrwt>
</event>
<event>
 8    1  0.1154424E-005  0.1352648E+03  0.7546771E-02  0.1232646E+00
         -1   -1    0    0    0  501 -0.00000000000E+00  0.00000000000E+00  0.29158610108E+02  0.29158610108E+02  0.00000000000E+00 0.  1.
          1   -1    0    0  501    0  0.00000000000E+00 -0.00000000000E+00 -0.52706549649E+03  0.52706549649E+03  0.00000000000E+00 0. -1.
         23    2    1    2    0    0  0.43483766706E+02  0.27988633039E+02 -0.20587729340E+03  0.24633724527E+03  0.12498950725E+03 0.  0.
         23    2    1    2    0    0 -0.43483766706E+02 -0.27988633039E+02 -0.29202959298E+03  0.30988686133E+03  0.89857565636E+02 0.  0.
          5    1    3    3  502    0 -0.69198587432E+01 -0.19765554502E+02  0.68392600556E+01  0.22526141878E+02  0.47000000000E+01 0.  1.
         -5    1    3    3    0  502  0.50403625449E+02  0.47754187541E+02 -0.21271655346E+03  0.22381110339E+03  0.47000000000E+01 0.  1.
        -11    1    4    4    0    0 -0.46266425271E+02  0.17405493763E+02 -0.88808594098E+02  0.10163906585E+03  0.00000000000E+00 0.  1.
         11    1    4    4    0    0  0.27826585645E+01 -0.45394126802E+02 -0.20322099888E+03  0.20824779548E+03  0.00000000000E+00 0. -1.
<mgrwt>
<rscale>  0 0.12656325E+03</rscale>
<asrwt>0</asrwt>
<pdfrwt beam="2">  1        1 0.81086992E-01 0.13526485E+03</pdfrwt>
<pdfrwt beam="1">  1       -1 0.44859404E-02 0.13526485E+03</pdfrwt>
<totfact> 0.83280712E+03</totfact>
</mgrwt>
</event>
<event>
 8    1  0.1154424E-005  0.1460225E+03  0.7546771E-02  0.1225937E+00
          1   -1    0    0  501    0  0.00000000000E+00  0.00000000000E+00  0.81007073905E+03  0.81007073905E+03  0.00000000000E+00 0. -1.
         -1   -1    0    0    0  501 -0.00000000000E+00 -0.00000000000E+00 -0.17879257172E+02  0.17879257172E+02  0.00000000000E+00 0.  1.
         23    2    1    2    0    0 -0.33876275124E+02 -0.67459427968E+02  0.48272548731E+03  0.50432773666E+03  0.12499677365E+03 0.  0.
         23    2    1    2    0    0  0.33876275124E+02  0.67459427968E+02  0.30946599457E+03  0.32362225957E+03  0.57129577759E+02 0.  0.
          5    1    3    3  502    0 -0.81475164240E+02 -0.42438390133E+02  0.29732466242E+03  0.31122863658E+03  0.47000000000E+01 0.  1.
         -5    1    3    3    0  502  0.47598889116E+02 -0.25021037836E+02  0.18540082489E+03  0.19309910008E+03  0.47000000000E+01 0.  1.
        -11    1    4    4    0    0 -0.15958552850E+02  0.18636789153E+02  0.68575011434E+02  0.72832255987E+02  0.00000000000E+00 0.  1.
         11    1    4    4    0    0  0.49834827974E+02  0.48822638815E+02  0.24089098313E+03  0.25079000358E+03  0.00000000000E+00 0. -1.
<mgrwt>
<rscale>  0 0.13102870E+03</rscale>
<asrwt>0</asrwt>
<pdfrwt beam="1">  1        1 0.12462624E+00 0.14602250E+03</pdfrwt>
<pdfrwt beam="2">  1       -1 0.27506556E-02 0.14602250E+03</pdfrwt>
<totfact> 0.93614706E+03</totfact>
</mgrwt>
</event>
<event>
 8    1  0.1154424E-005  0.1419336E+03  0.7546771E-02  0.1220525E+00
          4   -1    0    0  501    0  0.00000000000E+00  0.00000000000E+00  0.10765308183E+03  0.10765308183E+03  0.00000000000E+00 0. -1.
         -4   -1    0    0    0  501 -0.00000000000E+00 -0.00000000000E+00 -0.17627643172E+03  0.17627643172E+03  0.00000000000E+00 0.  1.
         23    2    1    2    0    0 -0.23596724893E+01  0.67188955612E+02 -0.87841329780E+02  0.16691688357E+03  0.12500089197E+03 0.  0.
         23    2    1    2    0    0  0.23596724893E+01 -0.67188955612E+02  0.19217979892E+02  0.11701262998E+03  0.93822710535E+02 0.  0.
          5    1    3    3  502    0  0.73949314158E+01 -0.36508907252E+02 -0.20186933390E+02  0.42628483424E+02  0.47000000000E+01 0. -1.
         -5    1    3    3    0  502 -0.97546039051E+01  0.10369786286E+03 -0.67654396390E+02  0.12428840015E+03  0.47000000000E+01 0. -1.
        -11    1    4    4    0    0 -0.19837930672E+02 -0.39898800331E+02 -0.32013517715E+02  0.54866411197E+02  0.00000000000E+00 0.  1.
         11    1    4    4    0    0  0.22197603161E+02 -0.27290155281E+02  0.51231497607E+02  0.62146218778E+02  0.00000000000E+00 0. -1.
<mgrwt>
<rscale>  0 0.13478378E+03</rscale>
<asrwt>0</asrwt>
<pdfrwt beam="1">  1        4 0.16562013E-01 0.14193360E+03</pdfrwt>
<pdfrwt beam="2">  1       -4 0.27119451E-01 0.14193360E+03</pdfrwt>
<totfact> 0.67997629E+02</totfact>
</mgrwt>
</event>
<event>
 8    1  0.1154424E-005  0.2202813E+03  0.7546771E-02  0.1137062E+00
          1   -1    0    0  501    0  0.00000000000E+00  0.00000000000E+00  0.32377171384E+03  0.32377171384E+03  0.00000000000E+00 0. -1.
         -1   -1    0    0    0  501 -0.00000000000E+00 -0.00000000000E+00 -0.14754758356E+03  0.14754758356E+03  0.00000000000E+00 0.  1.
         23    2    1    2    0    0  0.18035567798E+03  0.19203310000E+02  0.32395125526E+02  0.22265058354E+03  0.12500760176E+03 0.  0.
         23    2    1    2    0    0 -0.18035567798E+03 -0.19203310000E+02  0.14382900475E+03  0.24866871387E+03  0.90842770510E+02 0.  0.
          5    1    3    3  502    0  0.46171925399E+01 -0.25413260600E+02  0.31849603484E+02  0.41275168362E+02  0.47000000000E+01 0. -1.
         -5    1    3    3    0  502  0.17573848544E+03  0.44616570600E+02  0.54552204225E+00  0.18137541518E+03  0.47000000000E+01 0. -1.
        -11    1    4    4    0    0 -0.14593608056E+03  0.60034830558E+01  0.66790703181E+02  0.16060628708E+03  0.00000000000E+00 0.  1.
         11    1    4    4    0    0 -0.34419597418E+02 -0.25206793055E+02  0.77038301572E+02  0.88062426787E+02  0.00000000000E+00 0. -1.
<mgrwt>
<rscale>  0 0.21578862E+03</rscale>
<asrwt>0</asrwt>
<pdfrwt beam="1">  1        1 0.49811033E-01 0.22028127E+03</pdfrwt>
<pdfrwt beam="2">  1       -1 0.22699628E-01 0.22028127E+03</pdfrwt>
<totfact> 0.12969822E+03</totfact>
</mgrwt>
</event>
<event>
 8    1  0.1154424E-005  0.1319341E+03  0.7546771E-02  0.1237122E+00
          2   -1    0    0  501    0  0.00000000000E+00  0.00000000000E+00  0.11447282996E+03  0.11447282996E+03  0.00000000000E+00 0. -1.
         -2   -1    0    0    0  501 -0.00000000000E+00 -0.00000000000E+00 -0.12530961185E+03  0.12530961185E+03  0.00000000000E+00 0.  1.
         23    2    1    2    0    0 -0.13474019841E+02 -0.40014398577E+02 -0.31791349170E+02  0.13571032955E+03  0.12499560936E+03 0.  0.
         23    2    1    2    0    0  0.13474019841E+02  0.40014398577E+02  0.20954567278E+02  0.10407211226E+03  0.92785825196E+02 0.  0.
          5    1    3    3  502    0 -0.65028287423E+02 -0.49875389978E+01  0.42916268630E+00  0.65389814888E+02  0.47000000000E+01 0.  1.
         -5    1    3    3    0  502  0.51554267582E+02 -0.35026859580E+02 -0.32220511856E+02  0.70320514661E+02  0.47000000000E+01 0.  1.
        -11    1    4    4    0    0  0.22834102878E+01 -0.26840716623E+02  0.24196746100E+02  0.36209398686E+02  0.00000000000E+00 0. -1.
         11    1    4    4    0    0  0.11190609553E+02  0.66855115201E+02 -0.32421788225E+01  0.67862713578E+02  0.00000000000E+00 0.  1.
<mgrwt>
<rscale>  0 0.12369573E+03</rscale>
<asrwt>0</asrwt>
<pdfrwt beam="1">  1        2 0.17611205E-01 0.13193409E+03</pdfrwt>
<pdfrwt beam="2">  1       -2 0.19278402E-01 0.13193409E+03</pdfrwt>
<totfact> 0.68196530E+03</totfact>
</mgrwt>
</event>
<event>
 8    1  0.1154424E-005  0.1295358E+03  0.7546771E-02  0.1234571E+00
          4   -1    0    0  501    0  0.00000000000E+00  0.00000000000E+00  0.27216258948E+03  0.27216258948E+03  0.00000000000E+00 0. -1.
         -4   -1    0    0    0  501 -0.00000000000E+00 -0.00000000000E+00 -0.58200910772E+02  0.58200910772E+02  0.00000000000E+00 0.  1.
         23    2    1    2    0    0  0.48907083987E+02 -0.45217161166E+02  0.70596921543E+02  0.14752443342E+03  0.11109922860E+03 0.  0.
         23    2    1    2    0    0 -0.48907083987E+02  0.45217161166E+02  0.14336475716E+03  0.18283906683E+03  0.91870431778E+02 0.  0.
          5    1    3    3  502    0  0.72225835516E+02 -0.13285862959E+02  0.89413145727E+01  0.74129093997E+02  0.47000000000E+01 0. -1.
         -5    1    3    3    0  502 -0.23318751529E+02 -0.31931298207E+02  0.61655606970E+02  0.73395339423E+02  0.47000000000E+01 0.  1.
        -11    1    4    4    0    0 -0.55362795422E+02  0.10184131722E+02  0.29543181235E+02  0.63573227174E+02  0.00000000000E+00 0.  1.
         11    1    4    4    0    0  0.64557114351E+01  0.35033029445E+02  0.11382157593E+03  0.11926583966E+03  0.00000000000E+00 0. -1.
<mgrwt>
<rscale>  0 0.12531928E+03</rscale>
<asrwt>0</asrwt>
<pdfrwt beam="1">  1        4 0.41871167E-01 0.12953584E+03</pdfrwt>
<pdfrwt beam="2">  1       -4 0.89539864E-02 0.12953584E+03</pdfrwt>
<totfact> 0.83166229E+02</totfact>
</mgrwt>
</event>
<event>
 8    1  0.1154424E-005  0.1387616E+03  0.7546771E-02  0.1227099E+00
         -4   -1    0    0    0  501 -0.00000000000E+00  0.00000000000E+00  0.39919915070E+02  0.39919915070E+02  0.00000000000E+00 0.  1.
          4   -1    0    0  501    0  0.00000000000E+00 -0.00000000000E+00 -0.40182530119E+03  0.40182530119E+03  0.00000000000E+00 0. -1.
         23    2    1    2    0    0  0.20206312154E+02  0.56757525882E+02 -0.15190403110E+03  0.20574164029E+03  0.12500030435E+03 0.  0.
         23    2    1    2    0    0 -0.20206312154E+02 -0.56757525882E+02 -0.21000135502E+03  0.23600357597E+03  0.89260332545E+02 0.  0.
          5    1    3    3  502    0  0.70879053832E+02  0.20459033788E+02 -0.10080361499E+03  0.12500348448E+03  0.47000000000E+01 0. -1.
         -5    1    3    3    0  502 -0.50672741678E+02  0.36298492094E+02 -0.51100416106E+02  0.80738155810E+02  0.47000000000E+01 0. -1.
        -11    1    4    4    0    0 -0.42789787514E+02 -0.15985804506E+02 -0.16503583798E+03  0.17124059005E+03  0.00000000000E+00 0. -1.
         11    1    4    4    0    0  0.22583475360E+02 -0.40771721375E+02 -0.44965517033E+02  0.64762985920E+02  0.00000000000E+00 0.  1.
<mgrwt>
<rscale>  0 0.13024042E+03</rscale>
<asrwt>0</asrwt>
<pdfrwt beam="2">  1        4 0.61819280E-01 0.13876162E+03</pdfrwt>
<pdfrwt beam="1">  1       -4 0.61415251E-02 0.13876162E+03</pdfrwt>
<totfact> 0.70813334E+02</totfact>
</mgrwt>
</event>
<event>
 7    1  0.1154424E-005  0.1646529E+03  0.7546771E-02  0.1192332E+00
          1   -1    0    0  501    0  0.00000000000E+00  0.00000000000E+00  0.61872692537E+03  0.61872692537E+03  0.00000000000E+00 0. -1.
         -1   -1    0    0    0  501 -0.00000000000E+00 -0.00000000000E+00 -0.38187823422E+02  0.38187823422E+02  0.00000000000E+00 0.  1.
         23    2    1    2    0    0 -0.43921823154E+01 -0.10232800294E+03  0.33411984399E+03  0.36054838238E+03  0.88706000000E+02 0.  0.
          5    1    1    2  502    0 -0.16965342197E+02  0.22813803739E+02 -0.71784570420E+01  0.29697015379E+02  0.47000000000E+01 0. -1.
         -5    1    1    2    0  502  0.21357524513E+02  0.79514199202E+02  0.25359771500E+03  0.26666935104E+03  0.47000000000E+01 0.  1.
        -11    1    3    3    0    0  0.27909942308E+02 -0.25113700863E+02  0.19180689747E+03  0.19544704850E+03  0.00000000000E+00 0. -1.
         11    1    3    3    0    0 -0.32302124623E+02 -0.77214302078E+02  0.14231294652E+03  0.16510133387E+03  0.00000000000E+00 0.  1.
<mgrwt>
<rscale>  0 0.15682248E+03</rscale>
<asrwt>0</asrwt>
<pdfrwt beam="1">  1        1 0.95188750E-01 0.16465288E+03</pdfrwt>
<pdfrwt beam="2">  1       -1 0.58750502E-02 0.16465288E+03</pdfrwt>
<totfact> 0.45420873E+03</totfact>
</mgrwt>
</event>
<event>
 8    1  0.1154424E-005  0.1322118E+03  0.7546771E-02  0.1238057E+00
          1   -1    0    0  501    0  0.00000000000E+00  0.00000000000E+00  0.87292651840E+03  0.87292651840E+03  0.00000000000E+00 0. -1.
         -1   -1    0    0    0  501 -0.00000000000E+00 -0.00000000000E+00 -0.17748366561E+02  0.17748366561E+02  0.00000000000E+00 0.  1.
         23    2    1    2    0    0 -0.15724761677E+02 -0.40113376603E+02  0.31815173642E+03  0.34452937906E+03  0.12499445802E+03 0.  0.
         23    2    1    2    0    0  0.15724761677E+02  0.40113376603E+02  0.53702641542E+03  0.54614550590E+03  0.89561105652E+02 0.  0.
          5    1    3    3  502    0  0.46424945259E+02 -0.13002418299E+01  0.59318816596E+02  0.75483628513E+02  0.47000000000E+01 0. -1.
         -5    1    3    3    0  502 -0.62149706936E+02 -0.38813134773E+02  0.25883291982E+03  0.26904575054E+03  0.47000000000E+01 0. -1.
        -11    1    4    4    0    0 -0.90126020395E+01 -0.26448129421E+02  0.12967360528E+03  0.13264981890E+03  0.00000000000E+00 0.  1.
         11    1    4    4    0    0  0.24737363716E+02  0.66561506024E+02  0.40735281013E+03  0.41349568700E+03  0.00000000000E+00 0. -1.
<mgrwt>
<rscale>  0 0.12310731E+03</rscale>
<asrwt>0</asrwt>
<pdfrwt beam="1">  1        1 0.13429635E+00 0.13221182E+03</pdfrwt>
<pdfrwt beam="2">  1       -1 0.27305186E-02 0.13221182E+03</pdfrwt>
<totfact> 0.83839941E+03</totfact>
</mgrwt>
</event>
<event>
 8    1  0.1154424E-005  0.1756963E+03  0.7546771E-02  0.1180109E+00
          2   -1    0    0  501    0  0.00000000000E+00  0.00000000000E+00  0.54138500630E+03  0.54138500630E+03  0.00000000000E+00 0. -1.
         -2   -1    0    0    0  501 -0.00000000000E+00 -0.00000000000E+00 -0.48173283688E+02  0.48173283688E+02  0.00000000000E+00 0.  1.
         23    2    1    2    0    0 -0.33138633665E+01 -0.12342834551E+03  0.24655741221E+03  0.30275361908E+03  0.12499463261E+03 0.  0.
         23    2    1    2    0    0  0.33138633665E+01  0.12342834551E+03  0.24665431040E+03  0.28680467091E+03  0.78568646736E+02 0.  0.
          5    1    3    3  502    0 -0.22717235018E+02 -0.14058857157E+03  0.23306540126E+03  0.27317172344E+03  0.47000000000E+01 0.  1.
         -5    1    3    3    0  502  0.19403371651E+02  0.17160226060E+02  0.13492010954E+02  0.29581895636E+02  0.47000000000E+01 0.  1.
        -11    1    4    4    0    0  0.32464851679E+02  0.10554524782E+03  0.20555049108E+03  0.23333403162E+03  0.00000000000E+00 0. -1.
         11    1    4    4    0    0 -0.29150988312E+02  0.17883097697E+02  0.41103819324E+02  0.53470639288E+02  0.00000000000E+00 0.  1.
<mgrwt>
<rscale>  0 0.16784979E+03</rscale>
<asrwt>0</asrwt>
<pdfrwt beam="1">  1        2 0.83289997E-01 0.17569632E+03</pdfrwt>
<pdfrwt beam="2">  1       -2 0.74112748E-02 0.17569632E+03</pdfrwt>
<totfact> 0.59118165E+03</totfact>
</mgrwt>
</event>
<event>
 8    1  0.1296988E-005  0.1613598E+03  0.7546771E-02  0.1196343E+00
          1   -1    0    0  501    0  0.00000000000E+00  0.00000000000E+00  0.68766401290E+03  0.68766401290E+03  0.00000000000E+00 0. -1.
         -1   -1    0    0    0  501 -0.00000000000E+00 -0.00000000000E+00 -0.31581578191E+02  0.31581578191E+02  0.00000000000E+00 0.  1.
         23    2    1    2    0    0 -0.10060669907E+03  0.17028067368E+02  0.32420580231E+03  0.36214140645E+03  0.12500133215E+03 0.  0.
         23    2    1    2    0    0  0.10060669907E+03 -0.17028067368E+02  0.33187663240E+03  0.35710418464E+03  0.83484349293E+02 0.  0.
          5    1    3    3  502    0 -0.13874628201E+02 -0.49696842959E+02  0.10151611513E+03  0.11397321237E+03  0.47000000000E+01 0.  1.
         -5    1    3    3    0  502 -0.86732070872E+02  0.66724910327E+02  0.22268968719E+03  0.24816819408E+03  0.47000000000E+01 0.  1.
        -11    1    4    4    0    0  0.65985231535E+02 -0.40521439443E+02  0.27971620759E+03  0.29023644606E+03  0.00000000000E+00 0. -1.
         11    1    4    4    0    0  0.34621467537E+02  0.23493372074E+02  0.52160424813E+02  0.66867738578E+02  0.00000000000E+00 0.  1.
<mgrwt>
<rscale>  0 0.15341113E+03</rscale>
<asrwt>0</asrwt>
<pdfrwt beam="1">  1        1 0.10579445E+00 0.16135983E+03</pdfrwt>
<pdfrwt beam="2">  1       -1 0.48587049E-02 0.16135983E+03</pdfrwt>
<totfact> 0.51914778E+03</totfact>
</mgrwt>
</event>
<event>
 8    1  0.1154424E-005  0.1415818E+03  0.7546771E-02  0.1222784E+00
          1   -1    0    0  501    0  0.00000000000E+00  0.00000000000E+00  0.44563978013E+02  0.44563978013E+02  0.00000000000E+00 0. -1.
         -1   -1    0    0    0  501 -0.00000000000E+00 -0.00000000000E+00 -0.39588597397E+03  0.39588597397E+03  0.00000000000E+00 0.  1.
         23    2    1    2    0    0 -0.44564491265E+02  0.49348276885E+02 -0.26291095824E+03  0.29860938467E+03  0.12499658530E+03 0.  0.
         23    2    1    2    0    0  0.44564491265E+02 -0.49348276885E+02 -0.88411037720E+02  0.14184056732E+03  0.88774932456E+02 0.  0.
          5    1    3    3  502    0 -0.65884320655E+02 -0.34733798669E+01 -0.65483873719E+02  0.93075430663E+02  0.47000000000E+01 0. -1.
         -5    1    3    3    0  502  0.21319829390E+02  0.52821656752E+02 -0.19742708452E+03  0.20553395401E+03  0.47000000000E+01 0. -1.
        -11    1    4    4    0    0 -0.33882900104E+01  0.20449013544E+02 -0.38009401357E+02  0.43293847780E+02  0.00000000000E+00 0.  1.
         11    1    4    4    0    0  0.47952781275E+02 -0.69797290429E+02 -0.50401636363E+02  0.98546719536E+02  0.00000000000E+00 0. -1.
<mgrwt>
<rscale>  0 0.13319977E+03</rscale>
<asrwt>0</asrwt>
<pdfrwt beam="1">  1        1 0.68559964E-02 0.14158175E+03</pdfrwt>
<pdfrwt beam="2">  1       -1 0.60905536E-01 0.14158175E+03</pdfrwt>
<totfact> 0.29326593E+03</totfact>
</mgrwt>
</event>
<event>
 8    1  0.1154424E-005  0.1273306E+03  0.7546771E-02  0.1245684E+00
          1   -1    0    0  501    0  0.00000000000E+00  0.00000000000E+00  0.20449811454E+02  0.20449811454E+02  0.00000000000E+00 0. -1.
         -1   -1    0    0    0  501 -0.00000000000E+00 -0.00000000000E+00 -0.60841444780E+03  0.60841444780E+03  0.00000000000E+00 0.  1.
         23    2    1    2    0    0  0.19915867617E+02  0.13885697005E+02 -0.35508952610E+03  0.37722890663E+03  0.12499448824E+03 0.  0.
         23    2    1    2    0    0 -0.19915867617E+02 -0.13885697005E+02 -0.23287511024E+03  0.25163535262E+03  0.92195874917E+02 0.  0.
          5    1    3    3  502    0  0.62224505126E+02  0.17140197863E+02 -0.10366621073E+03  0.12220658194E+03  0.47000000000E+01 0. -1.
         -5    1    3    3    0  502 -0.42308637510E+02 -0.32545008579E+01 -0.25142331537E+03  0.25502232470E+03  0.47000000000E+01 0. -1.
        -11    1    4    4    0    0 -0.47047087676E+02 -0.36858900176E+02 -0.14860779690E+03  0.16017579181E+03  0.00000000000E+00 0.  1.
         11    1    4    4    0    0  0.27131220059E+02  0.22973203170E+02 -0.84267313340E+02  0.91459560809E+02  0.00000000000E+00 0. -1.
<mgrwt>
<rscale>  0 0.11844514E+03</rscale>
<asrwt>0</asrwt>
<pdfrwt beam="1">  1        1 0.31461248E-02 0.12733058E+03</pdfrwt>
<pdfrwt beam="2">  1       -1 0.93602225E-01 0.12733058E+03</pdfrwt>
<totfact> 0.35566206E+03</totfact>
</mgrwt>
</event>
<event>
 8    1  0.1154424E-005  0.1370651E+03  0.7546771E-02  0.1229320E+00
         -3   -1    0    0    0  501 -0.00000000000E+00  0.00000000000E+00  0.29841844942E+03  0.29841844942E+03  0.00000000000E+00 0.  1.
          3   -1    0    0  501    0  0.00000000000E+00 -0.00000000000E+00 -0.57999692439E+02  0.57999692439E+02  0.00000000000E+00 0. -1.
         23    2    1    2    0    0 -0.55125444465E+02 -0.11187427496E+02  0.19966724371E+03  0.24218557548E+03  0.12499148610E+03 0.  0.
         23    2    1    2    0    0  0.55125444465E+02  0.11187427496E+02  0.40751513271E+02  0.11423256638E+03  0.90688589288E+02 0.  0.
          5    1    3    3  502    0 -0.19875495390E+02  0.24778130355E+02 -0.39756656958E+01  0.32355632873E+02  0.47000000000E+01 0.  1.
         -5    1    3    3    0  502 -0.35249949075E+02 -0.35965557851E+02  0.20364290941E+03  0.20982994261E+03  0.47000000000E+01 0.  1.
        -11    1    4    4    0    0  0.61406958631E+02 -0.23258323039E+02  0.44039372728E+02  0.79064723544E+02  0.00000000000E+00 0.  1.
         11    1    4    4    0    0 -0.62815141661E+01  0.34445750534E+02 -0.32878594571E+01  0.35167842838E+02  0.00000000000E+00 0. -1.
<mgrwt>
<rscale>  0 0.12875171E+03</rscale>
<asrwt>0</asrwt>
<pdfrwt beam="2">  1        3 0.89230298E-02 0.13706511E+03</pdfrwt>
<pdfrwt beam="1">  1       -3 0.45910530E-01 0.13706511E+03</pdfrwt>
<totfact> 0.97564817E+02</totfact>
</mgrwt>
</event>
<event>
 8    1  0.1154424E-005  0.2255057E+03  0.7546771E-02  0.1133203E+00
          2   -1    0    0  501    0  0.00000000000E+00  0.00000000000E+00  0.57973624965E+03  0.57973624965E+03  0.00000000000E+00 0. -1.
         -2   -1    0    0    0  501 -0.00000000000E+00 -0.00000000000E+00 -0.10655256445E+03  0.10655256445E+03  0.00000000000E+00 0.  1.
         23    2    1    2    0    0  0.73260123843E+02  0.17280408429E+03  0.75805013266E+02  0.23790590690E+03  0.12499809281E+03 0.  0.
         23    2    1    2    0    0 -0.73260123843E+02 -0.17280408429E+03  0.39737867194E+03  0.44838290720E+03  0.88933262969E+02 0.  0.
          5    1    3    3  502    0  0.39131459696E+02  0.16659613017E+03  0.20451008023E+02  0.17241193536E+03  0.47000000000E+01 0.  1.
         -5    1    3    3    0  502  0.34128664148E+02  0.62079541230E+01  0.55354005243E+02  0.65493971534E+02  0.47000000000E+01 0.  1.
        -11    1    4    4    0    0 -0.60820613010E+01 -0.24617549260E+02  0.15109938735E+03  0.15321240178E+03  0.00000000000E+00 0. -1.
         11    1    4    4    0    0 -0.67178062542E+02 -0.14818653503E+03  0.24627928458E+03  0.29517050541E+03  0.00000000000E+00 0.  1.
<mgrwt>
<rscale>  0 0.22091485E+03</rscale>
<asrwt>0</asrwt>
<pdfrwt beam="1">  1        2 0.89190190E-01 0.22550570E+03</pdfrwt>
<pdfrwt beam="2">  1       -2 0.16392703E-01 0.22550570E+03</pdfrwt>
<totfact> 0.15456491E+03</totfact>
</mgrwt>
</event>
<event>
 8    1  0.1154424E-005  0.1692348E+03  0.7546771E-02  0.1185513E+00
         -1   -1    0    0    0  501 -0.00000000000E+00  0.00000000000E+00  0.70272515428E+02  0.70272515428E+02  0.00000000000E+00 0.  1.
          1   -1    0    0  501    0  0.00000000000E+00 -0.00000000000E+00 -0.36088758628E+03  0.36088758628E+03  0.00000000000E+00 0. -1.
         23    2    1    2    0    0 -0.11264250792E+03  0.18107129139E+02 -0.19075304062E+03  0.25500419908E+03  0.12499686526E+03 0.  0.
         23    2    1    2    0    0  0.11264250792E+03 -0.18107129139E+02 -0.99862030237E+02  0.17615590264E+03  0.89678727880E+02 0.  0.
          5    1    3    3  502    0 -0.57061608133E+02 -0.50160490820E+02 -0.11934781224E+03  0.14155596861E+03  0.47000000000E+01 0. -1.
         -5    1    3    3    0  502 -0.55580899789E+02  0.68267619959E+02 -0.71405228375E+02  0.11344823046E+03  0.47000000000E+01 0. -1.
        -11    1    4    4    0    0  0.45527981199E+02  0.23205868262E+02 -0.28698717836E+01  0.51181496245E+02  0.00000000000E+00 0.  1.
         11    1    4    4    0    0  0.67114526723E+02 -0.41312997401E+02 -0.96992158454E+02  0.12497440639E+03  0.00000000000E+00 0. -1.
<mgrwt>
<rscale>  0 0.16285295E+03</rscale>
<asrwt>0</asrwt>
<pdfrwt beam="2">  1        1 0.55521167E-01 0.16923480E+03</pdfrwt>
<pdfrwt beam="1">  1       -1 0.10811156E-01 0.16923480E+03</pdfrwt>
<totfact> 0.36469865E+03</totfact>
</mgrwt>
</event>
<event>
 8    1  0.1154424E-005  0.1743071E+03  0.7546771E-02  0.1179408E+00
          2   -1    0    0  501    0  0.00000000000E+00  0.00000000000E+00  0.30270532878E+02  0.30270532878E+02  0.00000000000E+00 0. -1.
         -2   -1    0    0    0  501 -0.00000000000E+00 -0.00000000000E+00 -0.88386976770E+03  0.88386976770E+03  0.00000000000E+00 0.  1.
         23    2    1    2    0    0  0.10554182771E+03 -0.60160530930E+02 -0.42849291805E+03  0.46258960442E+03  0.12499837767E+03 0.  0.
         23    2    1    2    0    0 -0.10554182771E+03  0.60160530930E+02 -0.42510631677E+03  0.45155069615E+03  0.91783897086E+02 0.  0.
          5    1    3    3  502    0  0.26833897681E+02  0.16528412166E+02 -0.25624413233E+03  0.25821772175E+03  0.47000000000E+01 0.  1.
         -5    1    3    3    0  502  0.78707930030E+02 -0.76688943095E+02 -0.17224878572E+03  0.20437188267E+03  0.47000000000E+01 0.  1.
        -11    1    4    4    0    0  0.14566911842E+02  0.14514938510E+02 -0.97562239103E+02  0.99705911858E+02  0.00000000000E+00 0.  1.
         11    1    4    4    0    0 -0.12010873955E+03  0.45645592419E+02 -0.32754407766E+03  0.35184478430E+03  0.00000000000E+00 0. -1.
<mgrwt>
<rscale>  0 0.16851233E+03</rscale>
<asrwt>0</asrwt>
<pdfrwt beam="1">  1        2 0.46570055E-02 0.17430709E+03</pdfrwt>
<pdfrwt beam="2">  1       -2 0.13597995E+00 0.17430709E+03</pdfrwt>
<totfact> 0.69362972E+02</totfact>
</mgrwt>
</event>
<event>
 8    1  0.1154424E-005  0.1206436E+03  0.7546771E-02  0.1250951E+00
         -2   -1    0    0    0  501 -0.00000000000E+00  0.00000000000E+00  0.87835526636E+02  0.87835526636E+02  0.00000000000E+00 0.  1.
          2   -1    0    0  501    0  0.00000000000E+00 -0.00000000000E+00 -0.15762158697E+03  0.15762158697E+03  0.00000000000E+00 0. -1.
         23    2    1    2    0    0  0.36283675431E+02 -0.14791470970E+02  0.36400497427E+01  0.12069846195E+03  0.11410335682E+03 0.  0.
         23    2    1    2    0    0 -0.36283675431E+02  0.14791470970E+02 -0.73426110076E+02  0.12475865166E+03  0.92941028652E+02 0.  0.
          5    1    3    3  502    0  0.18629515208E+02  0.47071326979E+02  0.19196905642E+02  0.54345007560E+02  0.47000000000E+01 0. -1.
         -5    1    3    3    0  502  0.17654160223E+02 -0.61862797949E+02 -0.15556855900E+02  0.66353454385E+02  0.47000000000E+01 0.  1.
        -11    1    4    4    0    0 -0.28792031022E+02 -0.17201993545E+02  0.10079101935E+02  0.35021106894E+02  0.00000000000E+00 0.  1.
         11    1    4    4    0    0 -0.74916444092E+01  0.31993464515E+02 -0.83505212011E+02  0.89737544766E+02  0.00000000000E+00 0. -1.
<mgrwt>
<rscale>  0 0.11536152E+03</rscale>
<asrwt>0</asrwt>
<pdfrwt beam="2">  1        2 0.24249475E-01 0.12064356E+03</pdfrwt>
<pdfrwt beam="1">  1       -2 0.13513158E-01 0.12064356E+03</pdfrwt>
<totfact> 0.84820631E+03</totfact>
</mgrwt>
</event>
<event>
 8    1  0.1154424E-005  0.1463327E+03  0.7546771E-02  0.1214860E+00
         -1   -1    0    0    0  501 -0.00000000000E+00  0.00000000000E+00  0.74619685764E+03  0.74619685764E+03  0.00000000000E+00 0.  1.
          1   -1    0    0  501    0  0.00000000000E+00 -0.00000000000E+00 -0.26802649979E+02  0.26802649979E+02  0.00000000000E+00 0. -1.
         23    2    1    2    0    0 -0.59924825051E+02  0.46871117122E+02  0.52704147867E+03  0.54697895050E+03  0.12500146310E+03 0.  0.
         23    2    1    2    0    0  0.59924825051E+02 -0.46871117122E+02  0.19235272899E+03  0.22602055712E+03  0.91092445412E+02 0.  0.
          5    1    3    3  502    0  0.50836544814E+00  0.43582388123E+02  0.51730705189E+02  0.67807365746E+02  0.47000000000E+01 0. -1.
         -5    1    3    3    0  502 -0.60433190499E+02  0.32887289989E+01  0.47531077348E+03  0.47917158476E+03  0.47000000000E+01 0. -1.
        -11    1    4    4    0    0 -0.12257856592E+01 -0.55968291676E+02  0.77773330839E+02  0.95826109247E+02  0.00000000000E+00 0.  1.
         11    1    4    4    0    0  0.61150610710E+02  0.90971745537E+01  0.11457939815E+03  0.13019444787E+03  0.00000000000E+00 0. -1.
<mgrwt>
<rscale>  0 0.13886838E+03</rscale>
<asrwt>0</asrwt>
<pdfrwt beam="2">  1        1 0.41234852E-02 0.14633268E+03</pdfrwt>
<pdfrwt beam="1">  1       -1 0.11479950E+00 0.14633268E+03</pdfrwt>
<totfact> 0.15652302E+03</totfact>
</mgrwt>
</event>
<event>
 8    1  0.1364013E-005  0.2124969E+03  0.7546771E-02  0.1143322E+00
          1   -1    0    0  501    0  0.00000000000E+00  0.00000000000E+00  0.36564388030E+03  0.36564388030E+03  0.00000000000E+00 0. -1.
         -1   -1    0    0    0  501 -0.00000000000E+00 -0.00000000000E+00 -0.11362018444E+03  0.11362018444E+03  0.00000000000E+00 0.  1.
         23    2    1    2    0    0  0.12966278114E+03 -0.11276921409E+03  0.11628473524E+03  0.24223351125E+03  0.12500240744E+03 0.  0.
         23    2    1    2    0    0 -0.12966278114E+03  0.11276921409E+03  0.13573896062E+03  0.23703055349E+03  0.90714306474E+02 0.  0.
          5    1    3    3  502    0  0.45463706998E+02  0.19211791271E+02  0.44435120752E+01  0.49778272142E+02  0.47000000000E+01 0. -1.
         -5    1    3    3    0  502  0.84199074138E+02 -0.13198100536E+03  0.11184122317E+03  0.19245523911E+03  0.47000000000E+01 0. -1.
        -11    1    4    4    0    0 -0.76328450661E+02  0.10545524147E+03  0.12813615806E+03  0.18266284607E+03  0.00000000000E+00 0. -1.
         11    1    4    4    0    0 -0.53334330475E+02  0.73139726140E+01  0.76028025625E+01  0.54367707413E+02  0.00000000000E+00 0.  1.
<mgrwt>
<rscale>  0 0.20779791E+03</rscale>
<asrwt>0</asrwt>
<pdfrwt beam="1">  1        1 0.56252904E-01 0.21249690E+03</pdfrwt>
<pdfrwt beam="2">  1       -1 0.17480029E-01 0.21249690E+03</pdfrwt>
<totfact> 0.16986273E+03</totfact>
</mgrwt>
</event>
<event>
 8    1  0.1154424E-005  0.1822833E+03  0.7546771E-02  0.1170960E+00
          2   -1    0    0  501    0  0.00000000000E+00  0.00000000000E+00  0.35965219481E+03  0.35965219481E+03  0.00000000000E+00 0.  1.
         -2   -1    0    0    0  501 -0.00000000000E+00 -0.00000000000E+00 -0.89473489773E+02  0.89473489773E+02  0.00000000000E+00 0. -1.
         23    2    1    2    0    0 -0.79646657693E+02 -0.10610543053E+03  0.78000514666E+02  0.19827075621E+03  0.12500104004E+03 0.  0.
         23    2    1    2    0    0  0.79646657693E+02  0.10610543053E+03  0.19217819037E+03  0.25085492837E+03  0.91617606195E+02 0.  0.
          5    1    3    3  502    0 -0.79456295882E+02 -0.14712234839E+02  0.48061046155E+01  0.81086012671E+02  0.47000000000E+01 0.  1.
         -5    1    3    3    0  502 -0.19036181059E+00 -0.91393195689E+02  0.73194410051E+02  0.11718474354E+03  0.47000000000E+01 0.  1.
        -11    1    4    4    0    0  0.14611195690E+01  0.23695634164E+02  0.10502985354E+03  0.10767956205E+03  0.00000000000E+00 0.  1.
         11    1    4    4    0    0  0.78185538124E+02  0.82409796365E+02  0.87148336831E+02  0.14317536632E+03  0.00000000000E+00 0. -1.
<mgrwt>
<rscale>  0 0.17677587E+03</rscale>
<asrwt>0</asrwt>
<pdfrwt beam="1">  1        2 0.55331106E-01 0.18228333E+03</pdfrwt>
<pdfrwt beam="2">  1       -2 0.13765152E-01 0.18228333E+03</pdfrwt>
<totfact> 0.34715090E+03</totfact>
</mgrwt>
</event>
<event>
 8    1  0.1154424E-005  0.1544941E+03  0.7546771E-02  0.1202163E+00
         -2   -1    0    0    0  501 -0.00000000000E+00  0.00000000000E+00  0.47832347874E+02  0.47832347874E+02  0.00000000000E+00 0.  1.
          2   -1    0    0  501    0  0.00000000000E+00 -0.00000000000E+00 -0.43812061598E+03  0.43812061598E+03  0.00000000000E+00 0. -1.
         23    2    1    2    0    0  0.23941118647E+02  0.87579831959E+02 -0.17703277054E+03  0.23496603166E+03  0.12500012024E+03 0.  0.
         23    2    1    2    0    0 -0.23941118647E+02 -0.87579831959E+02 -0.21325549756E+03  0.25098693220E+03  0.96297085960E+02 0.  0.
          5    1    3    3  502    0  0.39356399276E+02  0.93432103597E+02 -0.62576135290E+02  0.11923232303E+03  0.47000000000E+01 0.  1.
         -5    1    3    3    0  502 -0.15415280629E+02 -0.58522716374E+01 -0.11445663525E+03  0.11573370863E+03  0.47000000000E+01 0.  1.
        -11    1    4    4    0    0  0.32216992936E+02 -0.88700849756E+01 -0.36303127684E+02  0.49340957844E+02  0.00000000000E+00 0.  1.
         11    1    4    4    0    0 -0.56158111583E+02 -0.78709746984E+02 -0.17695236988E+03  0.20164597435E+03  0.00000000000E+00 0. -1.
<mgrwt>
<rscale>  0 0.14863291E+03</rscale>
<asrwt>0</asrwt>
<pdfrwt beam="2">  1        2 0.67403174E-01 0.15449412E+03</pdfrwt>
<pdfrwt beam="1">  1       -2 0.73588225E-02 0.15449412E+03</pdfrwt>
<totfact> 0.74946605E+03</totfact>
</mgrwt>
</event>
<event>
 8    1  0.1154424E-005  0.1730355E+03  0.7546771E-02  0.1180895E+00
          2   -1    0    0  501    0  0.00000000000E+00  0.00000000000E+00  0.25178307341E+03  0.25178307341E+03  0.00000000000E+00 0. -1.
         -2   -1    0    0    0  501 -0.00000000000E+00 -0.00000000000E+00 -0.11415480920E+03  0.11415480920E+03  0.00000000000E+00 0.  1.
         23    2    1    2    0    0 -0.91046671881E+02 -0.77652174537E+02  0.18590713013E+02  0.17403134687E+03  0.12498775304E+03 0.  0.
         23    2    1    2    0    0  0.91046671881E+02  0.77652174537E+02  0.11903755120E+03  0.19190653574E+03  0.91317157171E+02 0.  0.
          5    1    3    3  502    0  0.23083456464E+02 -0.20980897409E+02 -0.23952858847E+02  0.39609007376E+02  0.47000000000E+01 0. -1.
         -5    1    3    3    0  502 -0.11413012834E+03 -0.56671277129E+02  0.42543571860E+02  0.13442233949E+03  0.47000000000E+01 0. -1.
        -11    1    4    4    0    0  0.75127820246E+02  0.96625242190E+02  0.81904021376E+02  0.14727150275E+03  0.00000000000E+00 0.  1.
         11    1    4    4    0    0  0.15918851635E+02 -0.18973067652E+02  0.37133529820E+02  0.44635032995E+02  0.00000000000E+00 0. -1.
<mgrwt>
<rscale>  0 0.16711083E+03</rscale>
<asrwt>0</asrwt>
<pdfrwt beam="1">  1        2 0.38735857E-01 0.17303553E+03</pdfrwt>
<pdfrwt beam="2">  1       -2 0.17562278E-01 0.17303553E+03</pdfrwt>
<totfact> 0.33930995E+03</totfact>
</mgrwt>
</event>
<event>
 8    1  0.1154424E-005  0.1455014E+03  0.7546771E-02  0.1216110E+00
         -2   -1    0    0    0  501 -0.00000000000E+00  0.00000000000E+00  0.35427570083E+03  0.35427570083E+03  0.00000000000E+00 0.  1.
          2   -1    0    0  501    0  0.00000000000E+00 -0.00000000000E+00 -0.52179451619E+02  0.52179451619E+02  0.00000000000E+00 0. -1.
         23    2    1    2    0    0 -0.26582525390E+02  0.69552175646E+02  0.21719698601E+03  0.26142910078E+03  0.12500603270E+03 0.  0.
         23    2    1    2    0    0  0.26582525390E+02 -0.69552175646E+02  0.84899263201E+02  0.14502605166E+03  0.90997444888E+02 0.  0.
          5    1    3    3  502    0  0.28856521280E+02 -0.22993138625E+02  0.48267268511E+02  0.60936052167E+02  0.47000000000E+01 0. -1.
         -5    1    3    3    0  502 -0.55439046671E+02  0.92545314271E+02  0.16892971750E+03  0.20049304862E+03  0.47000000000E+01 0. -1.
        -11    1    4    4    0    0  0.24039166162E+02 -0.10238211741E+02 -0.14024728387E+02  0.29654603281E+02  0.00000000000E+00 0. -1.
         11    1    4    4    0    0  0.25433592282E+01 -0.59313963905E+02  0.98923991588E+02  0.11537144838E+03  0.00000000000E+00 0.  1.
<mgrwt>
<rscale>  0 0.13795331E+03</rscale>
<asrwt>0</asrwt>
<pdfrwt beam="2">  1        2 0.80276082E-02 0.14550135E+03</pdfrwt>
<pdfrwt beam="1">  1       -2 0.54503952E-01 0.14550135E+03</pdfrwt>
<totfact> 0.26331301E+03</totfact>
</mgrwt>
</event>
<event>
 8    1  0.1154424E-005  0.1473563E+03  0.7546771E-02  0.1213144E+00
         -1   -1    0    0    0  501 -0.00000000000E+00  0.00000000000E+00  0.27865187232E+02  0.27865187232E+02  0.00000000000E+00 0.  1.
          1   -1    0    0  501    0  0.00000000000E+00 -0.00000000000E+00 -0.67997469507E+03  0.67997469507E+03  0.00000000000E+00 0. -1.
         23    2    1    2    0    0 -0.19636627719E+02  0.75522012308E+02 -0.27579232112E+03  0.31269038258E+03  0.12499879793E+03 0.  0.
         23    2    1    2    0    0  0.19636627719E+02 -0.75522012308E+02 -0.37631718672E+03  0.39514949971E+03  0.91865829413E+02 0.  0.
          5    1    3    3  502    0 -0.39148089906E+02 -0.22757970189E+02 -0.66351374991E+02  0.80467963274E+02  0.47000000000E+01 0.  1.
         -5    1    3    3    0  502  0.19511462187E+02  0.98279982496E+02 -0.20944094613E+03  0.23222241931E+03  0.47000000000E+01 0.  1.
        -11    1    4    4    0    0  0.42572607153E+02 -0.11274963657E+02 -0.22349045769E+03  0.22778835870E+03  0.00000000000E+00 0. -1.
         11    1    4    4    0    0 -0.22935979433E+02 -0.64247048651E+02 -0.15282672903E+03  0.16736114101E+03  0.00000000000E+00 0.  1.
<mgrwt>
<rscale>  0 0.14013741E+03</rscale>
<asrwt>0</asrwt>
<pdfrwt beam="2">  1        1 0.10461147E+00 0.14735627E+03</pdfrwt>
<pdfrwt beam="1">  1       -1 0.42869527E-02 0.14735627E+03</pdfrwt>
<totfact> 0.63209841E+03</totfact>
</mgrwt>
</event>
<event>
 8    1  0.1154424E-005  0.1397821E+03  0.7546771E-02  0.1221455E+00
         -1   -1    0    0    0  501 -0.00000000000E+00  0.00000000000E+00  0.34851985558E+02  0.34851985558E+02  0.00000000000E+00 0.  1.
          1   -1    0    0  501    0  0.00000000000E+00 -0.00000000000E+00 -0.47858764701E+03  0.47858764701E+03  0.00000000000E+00 0. -1.
         23    2    1    2    0    0  0.50369178751E+02  0.37100900500E+02 -0.23736178226E+03  0.27546260830E+03  0.12500200762E+03 0.  0.
         23    2    1    2    0    0 -0.50369178751E+02 -0.37100900500E+02 -0.20637387919E+03  0.23797702426E+03  0.10064469723E+03 0.  0.
          5    1    3    3  502    0  0.44031052006E+02  0.50424478018E+02 -0.41316541871E+02  0.78806777350E+02  0.47000000000E+01 0. -1.
         -5    1    3    3    0  502  0.63381267449E+01 -0.13323577518E+02 -0.19604524039E+03  0.19665583095E+03  0.47000000000E+01 0. -1.
        -11    1    4    4    0    0 -0.80605843430E+02 -0.30530931394E+02 -0.13480493858E+03  0.16000566001E+03  0.00000000000E+00 0. -1.
         11    1    4    4    0    0  0.30236664679E+02 -0.65699691065E+01 -0.71568940605E+02  0.77971364258E+02  0.00000000000E+00 0.  1.
<mgrwt>
<rscale>  0 0.13412839E+03</rscale>
<asrwt>0</asrwt>
<pdfrwt beam="2">  1        1 0.73628871E-01 0.13978209E+03</pdfrwt>
<pdfrwt beam="1">  1       -1 0.53618438E-02 0.13978209E+03</pdfrwt>
<totfact> 0.72711998E+03</totfact>
</mgrwt>
</event>
<event>
 8    1  0.1154424E-005  0.1604526E+03  0.7546771E-02  0.1195810E+00
         -2   -1    0    0    0  501 -0.00000000000E+00  0.00000000000E+00  0.14945117107E+03  0.14945117107E+03  0.00000000000E+00 0.  1.
          2   -1    0    0  501    0  0.00000000000E+00 -0.00000000000E+00 -0.19585732648E+03  0.19585732648E+03  0.00000000000E+00 0. -1.
         23    2    1    2    0    0 -0.32820946403E+02 -0.95045124059E+02  0.61635960248E+02  0.17188377978E+03  0.12503700262E+03 0.  0.
         23    2    1    2    0    0  0.32820946403E+02  0.95045124059E+02 -0.10804211566E+03  0.17342471777E+03  0.91061758419E+02 0.  0.
          5    1    3    3  502    0 -0.70277914051E+02 -0.96226988105E+02  0.61365766040E+02  0.13411362975E+03  0.47000000000E+01 0. -1.
         -5    1    3    3    0  502  0.37456967648E+02  0.11818640455E+01  0.27019420820E+00  0.37770150025E+02  0.47000000000E+01 0. -1.
        -11    1    4    4    0    0 -0.21209208203E+02  0.33287189983E+02 -0.75415260745E+02  0.85119498840E+02  0.00000000000E+00 0.  1.
         11    1    4    4    0    0  0.54030154606E+02  0.61757934076E+02 -0.32626854911E+02  0.88305218926E+02  0.00000000000E+00 0. -1.
<mgrwt>
<rscale>  0 0.15385842E+03</rscale>
<asrwt>0</asrwt>
<pdfrwt beam="2">  1        2 0.30131896E-01 0.16045262E+03</pdfrwt>
<pdfrwt beam="1">  1       -2 0.22992488E-01 0.16045262E+03</pdfrwt>
<totfact> 0.28047133E+03</totfact>
</mgrwt>
</event>
<event>
 8    1  0.1154424E-005  0.1291268E+03  0.7546771E-02  0.1244923E+00
         -1   -1    0    0    0  501 -0.00000000000E+00  0.00000000000E+00  0.40259459985E+03  0.40259459985E+03  0.00000000000E+00 0.  1.
          1   -1    0    0  501    0  0.00000000000E+00 -0.00000000000E+00 -0.30718860978E+02  0.30718860978E+02  0.00000000000E+00 0. -1.
         23    2    1    2    0    0 -0.11996113162E+02 -0.15300562675E+02  0.22999049160E+03  0.26376002548E+03  0.12765465470E+03 0.  0.
         23    2    1    2    0    0  0.11996113162E+02  0.15300562675E+02  0.14188524727E+03  0.16955343534E+03  0.90768552342E+02 0.  0.
          5    1    3    3  502    0 -0.37899210224E+02 -0.38593936235E+02  0.32740757337E+02  0.63402596482E+02  0.47000000000E+01 0. -1.
         -5    1    3    3    0  502  0.25903097062E+02  0.23293373560E+02  0.19724973426E+03  0.20035742900E+03  0.47000000000E+01 0.  1.
        -11    1    4    4    0    0 -0.29419722023E+02  0.32699484291E+02  0.94630173955E+02  0.10435346731E+03  0.00000000000E+00 0.  1.
         11    1    4    4    0    0  0.41415835185E+02 -0.17398921616E+02  0.47255073317E+02  0.65199968034E+02  0.00000000000E+00 0. -1.
<mgrwt>
<rscale>  0 0.11889987E+03</rscale>
<asrwt>0</asrwt>
<pdfrwt beam="2">  1        1 0.47259789E-02 0.12912678E+03</pdfrwt>
<pdfrwt beam="1">  1       -1 0.61937627E-01 0.12912678E+03</pdfrwt>
<totfact> 0.46845617E+03</totfact>
</mgrwt>
</event>
<event>
 8    1  0.1154424E-005  0.1261437E+03  0.7546771E-02  0.1249504E+00
          2   -1    0    0  501    0  0.00000000000E+00  0.00000000000E+00  0.40482296130E+03  0.40482296130E+03  0.00000000000E+00 0. -1.
         -2   -1    0    0    0  501 -0.00000000000E+00 -0.00000000000E+00 -0.30392941919E+02  0.30392941919E+02  0.00000000000E+00 0.  1.
         23    2    1    2    0    0  0.12710760286E+02  0.71617672188E+01  0.17157003748E+03  0.21295188279E+03  0.12529713598E+03 0.  0.
         23    2    1    2    0    0 -0.12710760286E+02 -0.71617672188E+01  0.20285998189E+03  0.22226402043E+03  0.89645235154E+02 0.  0.
          5    1    3    3  502    0 -0.33301141447E+02 -0.87598537517E+01  0.15857705903E+03  0.16234061325E+03  0.47000000000E+01 0. -1.
         -5    1    3    3    0  502  0.46011901733E+02  0.15921620970E+02  0.12992978455E+02  0.50611269541E+02  0.47000000000E+01 0.  1.
        -11    1    4    4    0    0 -0.32531627610E+02 -0.31541507433E+02  0.17329475588E+03  0.17912075787E+03  0.00000000000E+00 0. -1.
         11    1    4    4    0    0  0.19820867325E+02  0.24379740215E+02  0.29565226014E+02  0.43143262553E+02  0.00000000000E+00 0.  1.
<mgrwt>
<rscale>  0 0.11619838E+03</rscale>
<asrwt>0</asrwt>
<pdfrwt beam="1">  1        2 0.62280452E-01 0.12614367E+03</pdfrwt>
<pdfrwt beam="2">  1       -2 0.46758375E-02 0.12614367E+03</pdfrwt>
<totfact> 0.15988365E+04</totfact>
</mgrwt>
</event>
<event>
 8    1  0.1154424E-005  0.1559520E+03  0.7546771E-02  0.1200822E+00
         -2   -1    0    0    0  501 -0.00000000000E+00  0.00000000000E+00  0.74142900940E+03  0.74142900940E+03  0.00000000000E+00 0.  1.
          2   -1    0    0  501    0  0.00000000000E+00 -0.00000000000E+00 -0.30516055118E+02  0.30516055118E+02  0.00000000000E+00 0. -1.
         23    2    1    2    0    0 -0.43907646285E+02  0.83714781906E+02  0.49148150465E+03  0.51563078832E+03  0.12403626221E+03 0.  0.
         23    2    1    2    0    0  0.43907646285E+02 -0.83714781906E+02  0.21943144964E+03  0.25631427620E+03  0.92794401674E+02 0.  0.
          5    1    3    3  502    0 -0.69617002160E+02  0.16605199622E+01  0.22589681438E+03  0.23643338398E+03  0.47000000000E+01 0. -1.
         -5    1    3    3    0  502  0.25709355875E+02  0.82054261944E+02  0.26558469027E+03  0.27919740434E+03  0.47000000000E+01 0.  1.
        -11    1    4    4    0    0  0.28956439552E+02  0.48951297584E+01  0.14939966850E+02  0.32949056077E+02  0.00000000000E+00 0.  1.
         11    1    4    4    0    0  0.14951206733E+02 -0.88609911664E+02  0.20449148279E+03  0.22336522012E+03  0.00000000000E+00 0. -1.
<mgrwt>
<rscale>  0 0.14971599E+03</rscale>
<asrwt>0</asrwt>
<pdfrwt beam="2">  1        2 0.46947783E-02 0.15595205E+03</pdfrwt>
<pdfrwt beam="1">  1       -2 0.11406599E+00 0.15595205E+03</pdfrwt>
<totfact> 0.10477447E+03</totfact>
</mgrwt>
</event>
<event>
 8    1  0.1154424E-005  0.1368488E+03  0.7546771E-02  0.1229844E+00
         -3   -1    0    0    0  501 -0.00000000000E+00  0.00000000000E+00  0.13726917457E+03  0.13726917457E+03  0.00000000000E+00 0.  1.
          3   -1    0    0  501    0  0.00000000000E+00 -0.00000000000E+00 -0.10800137896E+03  0.10800137896E+03  0.00000000000E+00 0. -1.
         23    2    1    2    0    0 -0.12031189628E+02  0.54390389580E+02  0.25023304344E+02  0.13911779775E+03  0.12499812754E+03 0.  0.
         23    2    1    2    0    0  0.12031189628E+02 -0.54390389580E+02  0.42444912684E+01  0.10615275577E+03  0.90262549542E+02 0.  0.
          5    1    3    3  502    0  0.11716345317E+02  0.81447477932E+02 -0.16400150667E+02  0.84035821831E+02  0.47000000000E+01 0.  1.
         -5    1    3    3    0  502 -0.23747534945E+02 -0.27057088351E+02  0.41423455011E+02  0.55081975918E+02  0.47000000000E+01 0.  1.
        -11    1    4    4    0    0 -0.17978411263E+02 -0.35334900363E+02  0.39586393545E+02  0.56025538901E+02  0.00000000000E+00 0.  1.
         11    1    4    4    0    0  0.30009600891E+02 -0.19055489217E+02 -0.35341902277E+02  0.50127216874E+02  0.00000000000E+00 0. -1.
<mgrwt>
<rscale>  0 0.12840346E+03</rscale>
<asrwt>0</asrwt>
<pdfrwt beam="2">  1        3 0.16615597E-01 0.13684881E+03</pdfrwt>
<pdfrwt beam="1">  1       -3 0.21118335E-01 0.13684881E+03</pdfrwt>
<totfact> 0.14575234E+03</totfact>
</mgrwt>
</event>
<event>
 8    1  0.1154424E-005  0.1684002E+03  0.7546771E-02  0.1186541E+00
          2   -1    0    0  501    0  0.00000000000E+00  0.00000000000E+00  0.10861439913E+04  0.10861439913E+04  0.00000000000E+00 0. -1.
         -2   -1    0    0    0  501 -0.00000000000E+00 -0.00000000000E+00 -0.22516918256E+02  0.22516918256E+02  0.00000000000E+00 0.  1.
         23    2    1    2    0    0  0.29782146576E+02  0.10884741665E+03  0.54477170650E+03  0.57020596072E+03  0.12499555620E+03 0.  0.
         23    2    1    2    0    0 -0.29782146576E+02 -0.10884741665E+03  0.51885536656E+03  0.53845494885E+03  0.89376194648E+02 0.  0.
          5    1    3    3  502    0  0.62417294352E+01  0.12472082491E+03  0.50991406058E+03  0.52500350716E+03  0.47000000000E+01 0.  1.
         -5    1    3    3    0  502  0.23540417141E+02 -0.15873408253E+02  0.34857645917E+02  0.45202453558E+02  0.47000000000E+01 0.  1.
        -11    1    4    4    0    0 -0.57223427255E+02 -0.56763559809E+02  0.23147675437E+03  0.24510836412E+03  0.00000000000E+00 0.  1.
         11    1    4    4    0    0  0.27441280679E+02 -0.52083856843E+02  0.28737861220E+03  0.29334658474E+03  0.00000000000E+00 0. -1.
<mgrwt>
<rscale>  0 0.16192470E+03</rscale>
<asrwt>0</asrwt>
<pdfrwt beam="1">  1        2 0.16709903E+00 0.16840019E+03</pdfrwt>
<pdfrwt beam="2">  1       -2 0.34641421E-02 0.16840019E+03</pdfrwt>
<totfact> 0.77892268E+03</totfact>
</mgrwt>
</event>
<event>
 8    1  0.1154424E-005  0.1548801E+03  0.7546771E-02  0.1203320E+00
         -1   -1    0    0    0  501 -0.00000000000E+00  0.00000000000E+00  0.35823683799E+02  0.35823683799E+02  0.00000000000E+00 0.  1.
          1   -1    0    0  501    0  0.00000000000E+00 -0.00000000000E+00 -0.62035591341E+03  0.62035591341E+03  0.00000000000E+00 0. -1.
         23    2    1    2    0    0 -0.71457076233E+02 -0.57073876793E+02 -0.21432020628E+03  0.26442580596E+03  0.12499725950E+03 0.  0.
         23    2    1    2    0    0  0.71457076233E+02  0.57073876793E+02 -0.37021202333E+03  0.39175379124E+03  0.89724854872E+02 0.  0.
          5    1    3    3  502    0  0.20039192757E+02  0.18807323985E+02 -0.13411471226E+02  0.30939331639E+02  0.47000000000E+01 0.  1.
         -5    1    3    3    0  502 -0.91496268990E+02 -0.75881200778E+02 -0.20090873505E+03  0.23348647432E+03  0.47000000000E+01 0.  1.
        -11    1    4    4    0    0  0.17604372301E+02  0.70459538105E+02 -0.20923849573E+03  0.22148410446E+03  0.00000000000E+00 0.  1.
         11    1    4    4    0    0  0.53852703932E+02 -0.13385661312E+02 -0.16097352760E+03  0.17026968679E+03  0.00000000000E+00 0. -1.
<mgrwt>
<rscale>  0 0.14770626E+03</rscale>
<asrwt>0</asrwt>
<pdfrwt beam="2">  1        1 0.95439366E-01 0.15488013E+03</pdfrwt>
<pdfrwt beam="1">  1       -1 0.55113363E-02 0.15488013E+03</pdfrwt>
<totfact> 0.49651015E+03</totfact>
</mgrwt>
</event>
<event>
 8    1  0.1154424E-005  0.1447261E+03  0.7546771E-02  0.1217361E+00
          1   -1    0    0  501    0  0.00000000000E+00  0.00000000000E+00  0.64169061447E+03  0.64169061447E+03  0.00000000000E+00 0. -1.
         -1   -1    0    0    0  501 -0.00000000000E+00 -0.00000000000E+00 -0.49306850036E+02  0.49306850036E+02  0.00000000000E+00 0.  1.
         23    2    1    2    0    0  0.46349997519E+02  0.56309345133E+02  0.79590346597E+02  0.16516735442E+03  0.12500626814E+03 0.  0.
         23    2    1    2    0    0 -0.46349997519E+02 -0.56309345133E+02  0.51279341784E+03  0.52583011009E+03  0.90670561253E+02 0.  0.
          5    1    3    3  502    0  0.68250639680E+02  0.65383835866E+02  0.96897653633E+02  0.13544165197E+03  0.47000000000E+01 0. -1.
         -5    1    3    3    0  502 -0.21900642161E+02 -0.90744907331E+01 -0.17307307036E+02  0.29725702447E+02  0.47000000000E+01 0. -1.
        -11    1    4    4    0    0 -0.32503304374E+02  0.19564196159E+02  0.20789079609E+03  0.21132393538E+03  0.00000000000E+00 0. -1.
         11    1    4    4    0    0 -0.13846693145E+02 -0.75873541292E+02  0.30490262174E+03  0.31450617470E+03  0.00000000000E+00 0.  1.
<mgrwt>
<rscale>  0 0.13704502E+03</rscale>
<asrwt>0</asrwt>
<pdfrwt beam="1">  1        1 0.98721627E-01 0.14472606E+03</pdfrwt>
<pdfrwt beam="2">  1       -1 0.75856697E-02 0.14472606E+03</pdfrwt>
<totfact> 0.29279053E+03</totfact>
</mgrwt>
</event>
<event>
 8    1  0.1154424E-005  0.1571229E+03  0.7546771E-02  0.1199594E+00
         -2   -1    0    0    0  501 -0.00000000000E+00  0.00000000000E+00  0.44434054402E+02  0.44434054402E+02  0.00000000000E+00 0.  1.
          2   -1    0    0  501    0  0.00000000000E+00 -0.00000000000E+00 -0.52277543801E+03  0.52277543801E+03  0.00000000000E+00 0. -1.
         23    2    1    2    0    0 -0.42055659234E+01  0.95106277641E+02 -0.34382622562E+03  0.37802657032E+03  0.12499889444E+03 0.  0.
         23    2    1    2    0    0  0.42055659234E+01 -0.95106277641E+02 -0.13451515799E+03  0.18918292210E+03  0.92913720476E+02 0.  0.
          5    1    3    3  502    0  0.19667406840E+02 -0.23924617856E+02 -0.11194928979E+03  0.11624942028E+03  0.47000000000E+01 0.  1.
         -5    1    3    3    0  502 -0.23872972763E+02  0.11903089550E+03 -0.23187693583E+03  0.26177715004E+03  0.47000000000E+01 0.  1.
        -11    1    4    4    0    0  0.39089489759E+02 -0.89502894621E+02 -0.10048515596E+03  0.14012859424E+03  0.00000000000E+00 0.  1.
         11    1    4    4    0    0 -0.34883923836E+02 -0.56033830204E+01 -0.34030002030E+02  0.49054327858E+02  0.00000000000E+00 0. -1.
<mgrwt>
<rscale>  0 0.15071747E+03</rscale>
<asrwt>0</asrwt>
<pdfrwt beam="2">  1        2 0.80426987E-01 0.15712293E+03</pdfrwt>
<pdfrwt beam="1">  1       -2 0.68360086E-02 0.15712293E+03</pdfrwt>
<totfact> 0.69219168E+03</totfact>
</mgrwt>
</event>
<event>
 8    1  0.1154424E-005  0.1302501E+03  0.7546771E-02  0.1241130E+00
         -2   -1    0    0    0  501 -0.00000000000E+00  0.00000000000E+00  0.50252665248E+03  0.50252665248E+03  0.00000000000E+00 0. -1.
          2   -1    0    0  501    0  0.00000000000E+00 -0.00000000000E+00 -0.26443811745E+02  0.26443811745E+02  0.00000000000E+00 0.  1.
         23    2    1    2    0    0 -0.12341687923E+01 -0.36591814601E+02  0.31091384625E+03  0.33709421577E+03  0.12499842578E+03 0.  0.
         23    2    1    2    0    0  0.12341687923E+01  0.36591814601E+02  0.16516899449E+03  0.19187624846E+03  0.90527420784E+02 0.  0.
          5    1    3    3  502    0 -0.44477018070E+02  0.16427015075E+02  0.58069444327E+02  0.75114594621E+02  0.47000000000E+01 0.  1.
         -5    1    3    3    0  502  0.43242849278E+02 -0.53018829675E+02  0.25284440192E+03  0.26197962115E+03  0.47000000000E+01 0.  1.
        -11    1    4    4    0    0 -0.23909185783E+02  0.17272587403E+02  0.66748716832E+01  0.30241450897E+02  0.00000000000E+00 0.  1.
         11    1    4    4    0    0  0.25143354575E+02  0.19319227197E+02  0.15849412280E+03  0.16163479756E+03  0.00000000000E+00 0. -1.
<mgrwt>
<rscale>  0 0.12120000E+03</rscale>
<asrwt>0</asrwt>
<pdfrwt beam="2">  1        2 0.40682791E-02 0.13025011E+03</pdfrwt>
<pdfrwt beam="1">  1       -2 0.77311786E-01 0.13025011E+03</pdfrwt>
<totfact> 0.30288073E+03</totfact>
</mgrwt>
</event>
<event>
 8    1  0.1154424E-005  0.1259409E+03  0.7546771E-02  0.1247957E+00
          2   -1    0    0  501    0  0.00000000000E+00  0.00000000000E+00  0.56223368231E+03  0.56223368231E+03  0.00000000000E+00 0.  1.
         -2   -1    0    0    0  501 -0.00000000000E+00 -0.00000000000E+00 -0.22080588933E+02  0.22080588933E+02  0.00000000000E+00 0. -1.
         23    2    1    2    0    0  0.13328405254E+02  0.75898290387E+01  0.26273259671E+03  0.29135809063E+03  0.12500347079E+03 0.  0.
         23    2    1    2    0    0 -0.13328405254E+02 -0.75898290387E+01  0.27742049667E+03  0.29295618062E+03  0.92875938209E+02 0.  0.
          5    1    3    3  502    0 -0.34593905542E+02 -0.37321200427E+02  0.63405436231E+02  0.81436783124E+02  0.47000000000E+01 0. -1.
         -5    1    3    3    0  502  0.47922310796E+02  0.44911029465E+02  0.19932716048E+03  0.20992130750E+03  0.47000000000E+01 0. -1.
        -11    1    4    4    0    0  0.30069088481E+02  0.20860551321E+02  0.68224348582E+02  0.77420116397E+02  0.00000000000E+00 0. -1.
         11    1    4    4    0    0 -0.43397493734E+02 -0.28450380360E+02  0.20919614809E+03  0.21553606422E+03  0.00000000000E+00 0.  1.
<mgrwt>
<rscale>  0 0.11710130E+03</rscale>
<asrwt>0</asrwt>
<pdfrwt beam="1">  1        2 0.86497479E-01 0.12594094E+03</pdfrwt>
<pdfrwt beam="2">  1       -2 0.33970141E-02 0.12594094E+03</pdfrwt>
<totfact> 0.17956234E+04</totfact>
</mgrwt>
</event>
<event>
 8    1  0.1154424E-005  0.2454854E+03  0.7546771E-02  0.1118633E+00
         -1   -1    0    0    0  501 -0.00000000000E+00  0.00000000000E+00  0.87025886001E+02  0.87025886001E+02  0.00000000000E+00 0.  1.
          1   -1    0    0  501    0  0.00000000000E+00 -0.00000000000E+00 -0.11563016480E+04  0.11563016480E+04  0.00000000000E+00 0. -1.
         23    2    1    2    0    0 -0.13440306634E+03 -0.16301717793E+03 -0.13339054901E+03  0.27938526207E+03  0.12499720618E+03 0.  0.
         23    2    1    2    0    0  0.13440306634E+03  0.16301717793E+03 -0.93588521298E+03  0.96394227192E+03  0.93084838688E+02 0.  0.
          5    1    3    3  502    0 -0.31268127646E+02 -0.85502824704E+02  0.34871497125E+01  0.91228718351E+02  0.47000000000E+01 0.  1.
         -5    1    3    3    0  502 -0.10313493869E+03 -0.77514353224E+02 -0.13687769872E+03  0.18815654372E+03  0.47000000000E+01 0.  1.
        -11    1    4    4    0    0  0.96847048254E+02  0.16696433752E+03 -0.79264331619E+03  0.81580626834E+03  0.00000000000E+00 0.  1.
         11    1    4    4    0    0  0.37556018085E+02 -0.39471595959E+01 -0.14324189678E+03  0.14813600358E+03  0.00000000000E+00 0. -1.
<mgrwt>
<rscale>  0 0.24174851E+03</rscale>
<asrwt>0</asrwt>
<pdfrwt beam="2">  1        1 0.17789256E+00 0.24548541E+03</pdfrwt>
<pdfrwt beam="1">  1       -1 0.13388598E-01 0.24548541E+03</pdfrwt>
<totfact> 0.47699033E+02</totfact>
</mgrwt>
</event>
<event>
 8    1  0.1154424E-005  0.1594794E+03  0.7546771E-02  0.1196805E+00
          4   -1    0    0  501    0  0.00000000000E+00  0.00000000000E+00  0.11802022643E+03  0.11802022643E+03  0.00000000000E+00 0. -1.
         -4   -1    0    0    0  501 -0.00000000000E+00 -0.00000000000E+00 -0.19540132258E+03  0.19540132258E+03  0.00000000000E+00 0.  1.
         23    2    1    2    0    0  0.96750523886E+02 -0.21140178449E+02 -0.79549062239E+02  0.17821823949E+03  0.12500446618E+03 0.  0.
         23    2    1    2    0    0 -0.96750523886E+02  0.21140178449E+02  0.21679660879E+01  0.13520330953E+03  0.92019909877E+02 0.  0.
          5    1    3    3  502    0  0.81913595746E+02  0.43466476964E+02 -0.42248339254E+02  0.10201070511E+03  0.47000000000E+01 0.  1.
         -5    1    3    3    0  502  0.14836928139E+02 -0.64606655413E+02 -0.37300722985E+02  0.76207534375E+02  0.47000000000E+01 0.  1.
        -11    1    4    4    0    0 -0.11004377635E+03  0.32794721550E+02  0.11162825353E+02  0.11536782543E+03  0.00000000000E+00 0. -1.
         11    1    4    4    0    0  0.13293252468E+02 -0.11654543100E+02 -0.89948592652E+01  0.19835484095E+02  0.00000000000E+00 0.  1.
<mgrwt>
<rscale>  0 0.15302464E+03</rscale>
<asrwt>0</asrwt>
<pdfrwt beam="1">  1        4 0.18156958E-01 0.15947943E+03</pdfrwt>
<pdfrwt beam="2">  1       -4 0.30061741E-01 0.15947943E+03</pdfrwt>
<totfact> 0.48654351E+02</totfact>
</mgrwt>
</event>
<event>
 8    1  0.1154424E-005  0.2742548E+03  0.7546771E-02  0.1100954E+00
         -2   -1    0    0    0  501 -0.00000000000E+00  0.00000000000E+00  0.34831221252E+03  0.34831221252E+03  0.00000000000E+00 0.  1.
          2   -1    0    0  501    0  0.00000000000E+00 -0.00000000000E+00 -0.22372094045E+03  0.22372094045E+03  0.00000000000E+00 0. -1.
         23    2    1    2    0    0 -0.24409460405E+03 -0.27159203388E+01  0.14716141657E+03  0.31124296879E+03  0.12500460449E+03 0.  0.
         23    2    1    2    0    0  0.24409460405E+03  0.27159203388E+01 -0.22570144500E+02  0.26079018418E+03  0.88952553599E+02 0.  0.
          5    1    3    3  502    0 -0.72446610082E+02 -0.20486457505E+02  0.11205499310E+03  0.13508004194E+03  0.47000000000E+01 0. -1.
         -5    1    3    3    0  502 -0.17164799397E+03  0.17770537166E+02  0.35106423467E+02  0.17616292684E+03  0.47000000000E+01 0. -1.
        -11    1    4    4    0    0  0.21350488354E+03  0.31834382343E+02 -0.76546952561E+01  0.21600082767E+03  0.00000000000E+00 0.  1.
         11    1    4    4    0    0  0.30589720510E+02 -0.29118462004E+02 -0.14915449244E+02  0.44789356509E+02  0.00000000000E+00 0. -1.
<mgrwt>
<rscale>  0 0.27057045E+03</rscale>
<asrwt>0</asrwt>
<pdfrwt beam="2">  1        2 0.34418606E-01 0.27425481E+03</pdfrwt>
<pdfrwt beam="1">  1       -2 0.53586494E-01 0.27425481E+03</pdfrwt>
<totfact> 0.50484266E+02</totfact>
</mgrwt>
</event>
<event>
 8    1  0.1154424E-005  0.1430696E+03  0.7546771E-02  0.1220064E+00
          2   -1    0    0  501    0  0.00000000000E+00  0.00000000000E+00  0.43943567120E+03  0.43943567120E+03  0.00000000000E+00 0. -1.
         -2   -1    0    0    0  501 -0.00000000000E+00 -0.00000000000E+00 -0.40879474312E+02  0.40879474312E+02  0.00000000000E+00 0.  1.
         23    2    1    2    0    0  0.58926121674E+02 -0.37042266380E+02  0.15185802250E+03  0.20863786782E+03  0.12499793429E+03 0.  0.
         23    2    1    2    0    0 -0.58926121674E+02  0.37042266380E+02  0.24669817439E+03  0.27167727770E+03  0.90022978481E+02 0.  0.
          5    1    3    3  502    0  0.66253834612E+02 -0.76010237307E+02  0.91330453112E+02  0.13612666323E+03  0.47000000000E+01 0.  1.
         -5    1    3    3    0  502 -0.73277129382E+01  0.38967970926E+02  0.60527569387E+02  0.72511204589E+02  0.47000000000E+01 0.  1.
        -11    1    4    4    0    0 -0.15105614023E+02  0.61630345573E+02  0.14300952890E+03  0.15645511953E+03  0.00000000000E+00 0. -1.
         11    1    4    4    0    0 -0.43820507650E+02 -0.24588079192E+02  0.10368864549E+03  0.11522215817E+03  0.00000000000E+00 0.  1.
<mgrwt>
<rscale>  0 0.13511019E+03</rscale>
<asrwt>0</asrwt>
<pdfrwt beam="1">  1        2 0.67605485E-01 0.14306957E+03</pdfrwt>
<pdfrwt beam="2">  1       -2 0.62891502E-02 0.14306957E+03</pdfrwt>
<totfact> 0.94549431E+03</totfact>
</mgrwt>
</event>
<event>
 8    1  0.1154424E-005  0.1437978E+03  0.7546771E-02  0.1219024E+00
         -1   -1    0    0    0  501 -0.00000000000E+00  0.00000000000E+00  0.79672342608E+02  0.79672342608E+02  0.00000000000E+00 0.  1.
          1   -1    0    0  501    0  0.00000000000E+00 -0.00000000000E+00 -0.22678750288E+03  0.22678750288E+03  0.00000000000E+00 0. -1.
         23    2    1    2    0    0  0.56831206690E+02  0.42364577795E+02 -0.39104839174E+02  0.14902012483E+03  0.12511301152E+03 0.  0.
         23    2    1    2    0    0 -0.56831206690E+02 -0.42364577795E+02 -0.10801032110E+03  0.15743972067E+03  0.89980512740E+02 0.  0.
          5    1    3    3  502    0  0.63160385040E+01  0.41376869339E+02  0.37992422600E+02  0.56722586627E+02  0.47000000000E+01 0. -1.
         -5    1    3    3    0  502  0.50515168186E+02  0.98770845602E+00 -0.77097261774E+02  0.92297538200E+02  0.47000000000E+01 0. -1.
        -11    1    4    4    0    0  0.38762087401E+00  0.11482896315E+02  0.10290076696E+02  0.15423775029E+02  0.00000000000E+00 0.  1.
         11    1    4    4    0    0 -0.57218827564E+02 -0.53847474111E+02 -0.11830039780E+03  0.14201594564E+03  0.00000000000E+00 0. -1.
<mgrwt>
<rscale>  0 0.13585018E+03</rscale>
<asrwt>0</asrwt>
<pdfrwt beam="2">  1        1 0.34890385E-01 0.14379781E+03</pdfrwt>
<pdfrwt beam="1">  1       -1 0.12257283E-01 0.14379781E+03</pdfrwt>
<totfact> 0.53113733E+03</totfact>
</mgrwt>
</event>
<event>
 8    1  0.1154424E-005  0.1262332E+03  0.7546771E-02  0.1248656E+00
          3   -1    0    0  501    0  0.00000000000E+00  0.00000000000E+00  0.77046925036E+02  0.77046925036E+02  0.00000000000E+00 0. -1.
         -3   -1    0    0    0  501 -0.00000000000E+00 -0.00000000000E+00 -0.16145794816E+03  0.16145794816E+03  0.00000000000E+00 0.  1.
         23    2    1    2    0    0  0.91920477392E+01  0.15034854587E+02 -0.72461759732E+02  0.14555246782E+03  0.12499709465E+03 0.  0.
         23    2    1    2    0    0 -0.91920477392E+01 -0.15034854587E+02 -0.11949263393E+02  0.92952405380E+02  0.90481070817E+02 0.  0.
          5    1    3    3  502    0 -0.35941356434E+02 -0.24486152585E+02  0.86166380334E+01  0.44583508406E+02  0.47000000000E+01 0.  1.
         -5    1    3    3    0  502  0.45133404174E+02  0.39521007173E+02 -0.81078397766E+02  0.10096895941E+03  0.47000000000E+01 0.  1.
        -11    1    4    4    0    0 -0.30332156195E+02 -0.70654914276E+01 -0.43897338738E+02  0.53823203331E+02  0.00000000000E+00 0.  1.
         11    1    4    4    0    0  0.21140108456E+02 -0.79693631597E+01  0.31948075346E+02  0.39129202049E+02  0.00000000000E+00 0. -1.
<mgrwt>
<rscale>  0 0.11669189E+03</rscale>
<asrwt>0</asrwt>
<pdfrwt beam="1">  1        3 0.11853373E-01 0.12623317E+03</pdfrwt>
<pdfrwt beam="2">  1       -3 0.24839684E-01 0.12623317E+03</pdfrwt>
<totfact> 0.19090972E+03</totfact>
</mgrwt>
</event>
<event>
 8    1  0.1154424E-005  0.1296267E+03  0.7546771E-02  0.1241349E+00
          1   -1    0    0  501    0  0.00000000000E+00  0.00000000000E+00  0.92989668392E+02  0.92989668392E+02  0.00000000000E+00 0. -1.
         -1   -1    0    0    0  501 -0.00000000000E+00 -0.00000000000E+00 -0.20227211879E+03  0.20227211879E+03  0.00000000000E+00 0.  1.
         23    2    1    2    0    0  0.12617914159E+01 -0.34307158481E+02 -0.14112184641E+03  0.19162063815E+03  0.12499808075E+03 0.  0.
         23    2    1    2    0    0 -0.12617914159E+01  0.34307158481E+02  0.31839396009E+02  0.10364114903E+03  0.92461707719E+02 0.  0.
          5    1    3    3  502    0  0.13919333597E+02  0.33794727812E+02 -0.10911715224E+03  0.11517149990E+03  0.47000000000E+01 0. -1.
         -5    1    3    3    0  502 -0.12657542181E+02 -0.68101886293E+02 -0.32004694167E+02  0.76449138252E+02  0.47000000000E+01 0. -1.
        -11    1    4    4    0    0  0.36359310946E+02  0.28489627479E+02 -0.98032953829E+01  0.47220366017E+02  0.00000000000E+00 0.  1.
         11    1    4    4    0    0 -0.37621102362E+02  0.58175310017E+01  0.41642691392E+02  0.56420783017E+02  0.00000000000E+00 0. -1.
<mgrwt>
<rscale>  0 0.12106608E+03</rscale>
<asrwt>0</asrwt>
<pdfrwt beam="1">  1        1 0.14306103E-01 0.12962675E+03</pdfrwt>
<pdfrwt beam="2">  1       -1 0.31118787E-01 0.12962675E+03</pdfrwt>
<totfact> 0.36480225E+03</totfact>
</mgrwt>
</event>
<event>
 8    1  0.1154424E-005  0.1330785E+03  0.7546771E-02  0.1235825E+00
         -2   -1    0    0    0  501 -0.00000000000E+00  0.00000000000E+00  0.11439816248E+02  0.11439816248E+02  0.00000000000E+00 0.  1.
          2   -1    0    0  501    0  0.00000000000E+00 -0.00000000000E+00 -0.12101700709E+04  0.12101700709E+04  0.00000000000E+00 0. -1.
         23    2    1    2    0    0  0.17021060601E+02  0.42362879963E+02 -0.70595545857E+03  0.71838917405E+03  0.12500226319E+03 0.  0.
         23    2    1    2    0    0 -0.17021060601E+02 -0.42362879963E+02 -0.49277479604E+03  0.50322071306E+03  0.91212698324E+02 0.  0.
          5    1    3    3  502    0  0.49958927721E+02 -0.26380792336E+02 -0.30611177012E+03  0.31131711560E+03  0.47000000000E+01 0.  1.
         -5    1    3    3    0  502 -0.32937867120E+02  0.68743672300E+02 -0.39984368845E+03  0.40707205845E+03  0.47000000000E+01 0.  1.
        -11    1    4    4    0    0 -0.19005172425E+02  0.25390406289E+02 -0.10958812404E+03  0.11408517099E+03  0.00000000000E+00 0.  1.
         11    1    4    4    0    0  0.19841118249E+01 -0.67753286253E+02 -0.38318667200E+03  0.38913554207E+03  0.00000000000E+00 0. -1.
<mgrwt>
<rscale>  0 0.12451782E+03</rscale>
<asrwt>0</asrwt>
<pdfrwt beam="2">  1        2 0.18618011E+00 0.13307853E+03</pdfrwt>
<pdfrwt beam="1">  1       -2 0.17599708E-02 0.13307853E+03</pdfrwt>
<totfact> 0.17647911E+04</totfact>
</mgrwt>
</event>
<event>
 8    1  0.1154424E-005  0.1320264E+03  0.7546771E-02  0.1238190E+00
          1   -1    0    0  501    0  0.00000000000E+00  0.00000000000E+00  0.52782009353E+03  0.52782009353E+03  0.00000000000E+00 0. -1.
         -1   -1    0    0    0  501 -0.00000000000E+00 -0.00000000000E+00 -0.25423494553E+02  0.25423494553E+02  0.00000000000E+00 0.  1.
         23    2    1    2    0    0 -0.32060333522E+02  0.27885185768E+02  0.29519271364E+03  0.32337241799E+03  0.12500213584E+03 0.  0.
         23    2    1    2    0    0  0.32060333522E+02 -0.27885185768E+02  0.20720388534E+03  0.22987117009E+03  0.90010311450E+02 0.  0.
          5    1    3    3  502    0 -0.79805908689E+02  0.89357573456E+01  0.18057579766E+03  0.19768292673E+03  0.47000000000E+01 0.  1.
         -5    1    3    3    0  502  0.47745575166E+02  0.18949428422E+02  0.11461691598E+03  0.12568949126E+03  0.47000000000E+01 0.  1.
        -11    1    4    4    0    0  0.98386837018E+01  0.28888527726E+01 -0.69447353537E+01  0.12384446554E+02  0.00000000000E+00 0.  1.
         11    1    4    4    0    0  0.22221649820E+02 -0.30774038540E+02  0.21414862069E+03  0.21748672353E+03  0.00000000000E+00 0. -1.
<mgrwt>
<rscale>  0 0.12302408E+03</rscale>
<asrwt>0</asrwt>
<pdfrwt beam="1">  1        1 0.81203083E-01 0.13202645E+03</pdfrwt>
<pdfrwt beam="2">  1       -1 0.39113072E-02 0.13202645E+03</pdfrwt>
<totfact> 0.10151348E+04</totfact>
</mgrwt>
</event>
<event>
 8    1  0.1154424E-005  0.1326696E+03  0.7546771E-02  0.1231599E+00
          1   -1    0    0  501    0  0.00000000000E+00  0.00000000000E+00  0.20071746206E+02  0.20071746206E+02  0.00000000000E+00 0. -1.
         -1   -1    0    0    0  501 -0.00000000000E+00 -0.00000000000E+00 -0.75358885801E+03  0.75358885801E+03  0.00000000000E+00 0.  1.
         23    2    1    2    0    0  0.54360212832E+02  0.37018027495E+02 -0.36178079938E+03  0.38533956140E+03  0.11522093421E+03 0.  0.
         23    2    1    2    0    0 -0.54360212832E+02 -0.37018027495E+02 -0.37173631242E+03  0.38832104281E+03  0.90994391148E+02 0.  0.
          5    1    3    3  502    0  0.85802826512E+02  0.34815025391E+02 -0.19994333022E+03  0.22039427472E+03  0.47000000000E+01 0. -1.
         -5    1    3    3    0  502 -0.31442613680E+02  0.22030021037E+01 -0.16183746916E+03  0.16494528668E+03  0.47000000000E+01 0.  1.
        -11    1    4    4    0    0 -0.51605429765E+02 -0.51807243787E+02 -0.36425044618E+03  0.37151783057E+03  0.00000000000E+00 0.  1.
         11    1    4    4    0    0 -0.27547830673E+01  0.14789216292E+02 -0.74858662415E+01  0.16803212243E+02  0.00000000000E+00 0. -1.
<mgrwt>
<rscale>  0 0.12724713E+03</rscale>
<asrwt>0</asrwt>
<pdfrwt beam="1">  1        1 0.30879614E-02 0.13266963E+03</pdfrwt>
<pdfrwt beam="2">  1       -1 0.11593673E+00 0.13266963E+03</pdfrwt>
<totfact> 0.22706907E+03</totfact>
</mgrwt>
</event>
<event>
 8    1  0.1154424E-005  0.2317731E+03  0.7546771E-02  0.1128273E+00
         -2   -1    0    0    0  501 -0.00000000000E+00  0.00000000000E+00  0.19595874235E+03  0.19595874235E+03  0.00000000000E+00 0.  1.
          2   -1    0    0  501    0  0.00000000000E+00 -0.00000000000E+00 -0.25569604077E+03  0.25569604077E+03  0.00000000000E+00 0. -1.
         23    2    1    2    0    0  0.11873496694E+03  0.15489974260E+03 -0.28390189196E+02  0.23350541396E+03  0.12500741127E+03 0.  0.
         23    2    1    2    0    0 -0.11873496694E+03 -0.15489974260E+03 -0.31347109220E+02  0.21814936917E+03  0.92274500151E+02 0.  0.
          5    1    3    3  502    0  0.64403484163E+02  0.24287041453E+02  0.36214248099E+02  0.77918103931E+02  0.47000000000E+01 0.  1.
         -5    1    3    3    0  502  0.54331482778E+02  0.13061270115E+03 -0.64604437295E+02  0.15558731002E+03  0.47000000000E+01 0.  1.
        -11    1    4    4    0    0 -0.42281065310E+02 -0.12260419670E+03 -0.74493946600E+00  0.12969206786E+03  0.00000000000E+00 0.  1.
         11    1    4    4    0    0 -0.76453901631E+02 -0.32295545903E+02 -0.30602169754E+02  0.88457301301E+02  0.00000000000E+00 0. -1.
<mgrwt>
<rscale>  0 0.22769480E+03</rscale>
<asrwt>0</asrwt>
<pdfrwt beam="2">  1        2 0.39337853E-01 0.23177311E+03</pdfrwt>
<pdfrwt beam="1">  1       -2 0.30147499E-01 0.23177311E+03</pdfrwt>
<totfact> 0.13144608E+03</totfact>
</mgrwt>
</event>
<event>
 8    1  0.1154424E-005  0.1957339E+03  0.7546771E-02  0.1156818E+00
          1   -1    0    0  501    0  0.00000000000E+00  0.00000000000E+00  0.48097073289E+03  0.48097073289E+03  0.00000000000E+00 0. -1.
         -1   -1    0    0    0  501 -0.00000000000E+00 -0.00000000000E+00 -0.12989601880E+03  0.12989601880E+03  0.00000000000E+00 0.  1.
         23    2    1    2    0    0 -0.15011545050E+03 -0.12321830043E+02 -0.21420456779E+02  0.19690245601E+03  0.12500106095E+03 0.  0.
         23    2    1    2    0    0  0.15011545050E+03  0.12321830043E+02  0.37249517087E+03  0.41396429569E+03  0.99635886151E+02 0.  0.
          5    1    3    3  502    0 -0.16426577422E+03  0.14577616126E+02 -0.18015464684E+02  0.16595902639E+03  0.47000000000E+01 0. -1.
         -5    1    3    3    0  502  0.14150323719E+02 -0.26899446169E+02 -0.34049920945E+01  0.30943429621E+02  0.47000000000E+01 0. -1.
        -11    1    4    4    0    0  0.12688759273E+03 -0.31038713915E+02  0.25279034974E+03  0.28454669893E+03  0.00000000000E+00 0. -1.
         11    1    4    4    0    0  0.23227857769E+02  0.43360543958E+02  0.11970482113E+03  0.12941759676E+03  0.00000000000E+00 0.  1.
<mgrwt>
<rscale>  0 0.19183357E+03</rscale>
<asrwt>0</asrwt>
<pdfrwt beam="1">  1        1 0.73995496E-01 0.19573385E+03</pdfrwt>
<pdfrwt beam="2">  1       -1 0.19984003E-01 0.19573385E+03</pdfrwt>
<totfact> 0.96103183E+02</totfact>
</mgrwt>
</event>
<event>
 8    1  0.1154424E-005  0.1617544E+03  0.7546771E-02  0.1193734E+00
          2   -1    0    0  501    0  0.00000000000E+00  0.00000000000E+00  0.51085524631E+03  0.51085524631E+03  0.00000000000E+00 0. -1.
         -2   -1    0    0    0  501 -0.00000000000E+00 -0.00000000000E+00 -0.45937774470E+02  0.45937774470E+02  0.00000000000E+00 0.  1.
         23    2    1    2    0    0 -0.89194916609E+02  0.50825150152E+02  0.19477753593E+03  0.25318527064E+03  0.12500225490E+03 0.  0.
         23    2    1    2    0    0  0.89194916609E+02 -0.50825150152E+02  0.27013993590E+03  0.30360775013E+03  0.93076054567E+02 0.  0.
          5    1    3    3  502    0 -0.93329075199E+02  0.72644520340E+02  0.19757290882E+03  0.23031432199E+03  0.47000000000E+01 0. -1.
         -5    1    3    3    0  502  0.41341585905E+01 -0.21819370188E+02 -0.27953728912E+01  0.22870948652E+02  0.47000000000E+01 0. -1.
        -11    1    4    4    0    0  0.53535185306E+02  0.21686525639E+02  0.11133871286E+03  0.12542978291E+03  0.00000000000E+00 0. -1.
         11    1    4    4    0    0  0.35659731303E+02 -0.72511675792E+02  0.15880122304E+03  0.17817796722E+03  0.00000000000E+00 0.  1.
<mgrwt>
<rscale>  0 0.15561830E+03</rscale>
<asrwt>0</asrwt>
<pdfrwt beam="1">  1        2 0.78593111E-01 0.16175442E+03</pdfrwt>
<pdfrwt beam="2">  1       -2 0.70673503E-02 0.16175442E+03</pdfrwt>
<totfact> 0.67585561E+03</totfact>
</mgrwt>
</event>
<event>
 7    1  0.1154424E-005  0.1874785E+03  0.7546771E-02  0.1171930E+00
         -1   -1    0    0    0  501 -0.00000000000E+00  0.00000000000E+00  0.46039759983E+03  0.46039759983E+03  0.00000000000E+00 0.  1.
          1   -1    0    0  501    0  0.00000000000E+00 -0.00000000000E+00 -0.67286180932E+02  0.67286180932E+02  0.00000000000E+00 0. -1.
         23    2    1    2    0    0  0.12204534496E+03  0.13925013776E+02  0.87998318508E+02  0.16957459604E+03  0.76960167139E+02 0.  0.
          5    1    1    2  502    0 -0.10969619951E+03  0.87429158263E+01  0.31209284527E+03  0.33095880232E+03  0.47000000000E+01 0. -1.
         -5    1    1    2    0  502 -0.12349145452E+02 -0.22667929603E+02 -0.69797448816E+01  0.27150382400E+02  0.47000000000E+01 0.  1.
        -11    1    3    3    0    0  0.11642159808E+02  0.28824675933E+02  0.32991763002E+02  0.45330544378E+02  0.00000000000E+00 0. -1.
         11    1    3    3    0    0  0.11040318516E+03 -0.14899662156E+02  0.55006555506E+02  0.12424405166E+03  0.00000000000E+00 0.  1.
<mgrwt>
<rscale>  0 0.17580110E+03</rscale>
<asrwt>0</asrwt>
<pdfrwt beam="2">  1        1 0.10351720E-01 0.18747849E+03</pdfrwt>
<pdfrwt beam="1">  1       -1 0.70830398E-01 0.18747849E+03</pdfrwt>
<totfact> 0.12694941E+03</totfact>
</mgrwt>
</event>
<event>
 8    1  0.1154424E-005  0.1347189E+03  0.7546771E-02  0.1232855E+00
          2   -1    0    0  501    0  0.00000000000E+00  0.00000000000E+00  0.20461384057E+03  0.20461384057E+03  0.00000000000E+00 0. -1.
         -2   -1    0    0    0  501 -0.00000000000E+00 -0.00000000000E+00 -0.83543121705E+02  0.83543121705E+02  0.00000000000E+00 0.  1.
         23    2    1    2    0    0  0.47390296095E+02 -0.16722324640E+02  0.91324826837E+01  0.13502806132E+03  0.12499479508E+03 0.  0.
         23    2    1    2    0    0 -0.47390296095E+02  0.16722324640E+02  0.11193823618E+03  0.15312890096E+03  0.91612309675E+02 0.  0.
          5    1    3    3  502    0  0.38276560070E+02  0.51401333016E+02  0.14676662542E+02  0.65914236019E+02  0.47000000000E+01 0. -1.
         -5    1    3    3    0  502  0.91137360254E+01 -0.68123657656E+02 -0.55441798581E+01  0.69113825296E+02  0.47000000000E+01 0. -1.
        -11    1    4    4    0    0 -0.44592450606E+02  0.51788358158E+02  0.83447630373E+02  0.10786115013E+03  0.00000000000E+00 0. -1.
         11    1    4    4    0    0 -0.27978454893E+01 -0.35066033518E+02  0.28490605808E+02  0.45267750832E+02  0.00000000000E+00 0.  1.
<mgrwt>
<rscale>  0 0.12642724E+03</rscale>
<asrwt>0</asrwt>
<pdfrwt beam="1">  1        2 0.31479052E-01 0.13471887E+03</pdfrwt>
<pdfrwt beam="2">  1       -2 0.12852788E-01 0.13471887E+03</pdfrwt>
<totfact> 0.69755848E+03</totfact>
</mgrwt>
</event>
<event>
 8    1  0.1154424E-005  0.1435226E+03  0.7546771E-02  0.1219939E+00
          2   -1    0    0  501    0  0.00000000000E+00  0.00000000000E+00  0.31040152152E+02  0.31040152152E+02  0.00000000000E+00 0. -1.
         -2   -1    0    0    0  501 -0.00000000000E+00 -0.00000000000E+00 -0.57152085092E+03  0.57152085092E+03  0.00000000000E+00 0.  1.
         23    2    1    2    0    0  0.59347612607E+02 -0.38095743651E+02 -0.38067410949E+03  0.40683106225E+03  0.12500124307E+03 0.  0.
         23    2    1    2    0    0 -0.59347612607E+02  0.38095743651E+02 -0.15980658928E+03  0.19572994083E+03  0.88309902909E+02 0.  0.
          5    1    3    3  502    0  0.71006189789E+02 -0.68138881543E+02 -0.34378093907E+03  0.35762020390E+03  0.47000000000E+01 0. -1.
         -5    1    3    3    0  502 -0.11658577182E+02  0.30043137892E+02 -0.36893170422E+02  0.49210858355E+02  0.47000000000E+01 0. -1.
        -11    1    4    4    0    0  0.95195342268E+01  0.37209899783E+02 -0.89090334372E+02  0.97016935904E+02  0.00000000000E+00 0. -1.
         11    1    4    4    0    0 -0.68867146833E+02  0.88584386797E+00 -0.70716254908E+02  0.98713004921E+02  0.00000000000E+00 0.  1.
<mgrwt>
<rscale>  0 0.13519880E+03</rscale>
<asrwt>0</asrwt>
<pdfrwt beam="1">  1        2 0.47754081E-02 0.14352260E+03</pdfrwt>
<pdfrwt beam="2">  1       -2 0.87926283E-01 0.14352260E+03</pdfrwt>
<totfact> 0.18593920E+03</totfact>
</mgrwt>
</event>
<event>
 8    1  0.1154424E-005  0.1745705E+03  0.7546771E-02  0.1179841E+00
          1   -1    0    0  501    0  0.00000000000E+00  0.00000000000E+00  0.75666360368E+02  0.75666360368E+02  0.00000000000E+00 0. -1.
         -1   -1    0    0    0  501 -0.00000000000E+00 -0.00000000000E+00 -0.34934000937E+03  0.34934000937E+03  0.00000000000E+00 0.  1.
         23    2    1    2    0    0 -0.11085513496E+03 -0.50590593608E+02 -0.15878031612E+03  0.23597887878E+03  0.12500629318E+03 0.  0.
         23    2    1    2    0    0  0.11085513496E+03  0.50590593608E+02 -0.11489333289E+03  0.18902749096E+03  0.87650700452E+02 0.  0.
          5    1    3    3  502    0 -0.56638891320E+02 -0.45017675272E+02 -0.49045322872E+01  0.72668421848E+02  0.47000000000E+01 0. -1.
         -5    1    3    3    0  502 -0.54216243638E+02 -0.55729183351E+01 -0.15387578383E+03  0.16331045693E+03  0.47000000000E+01 0. -1.
        -11    1    4    4    0    0  0.96218762333E+02  0.66042532559E+02 -0.62300686297E+02  0.13229150330E+03  0.00000000000E+00 0. -1.
         11    1    4    4    0    0  0.14636372624E+02 -0.15451938952E+02 -0.52592646589E+02  0.56735987664E+02  0.00000000000E+00 0.  1.
<mgrwt>
<rscale>  0 0.16810298E+03</rscale>
<asrwt>0</asrwt>
<pdfrwt beam="1">  1        1 0.11640978E-01 0.17457045E+03</pdfrwt>
<pdfrwt beam="2">  1       -1 0.53744619E-01 0.17457045E+03</pdfrwt>
<totfact> 0.18444431E+03</totfact>
</mgrwt>
</event>
<event>
 8    1  0.1154424E-005  0.1700179E+03  0.7546771E-02  0.1184467E+00
          1   -1    0    0  501    0  0.00000000000E+00  0.00000000000E+00  0.18373776161E+03  0.18373776161E+03  0.00000000000E+00 0. -1.
         -1   -1    0    0    0  501 -0.00000000000E+00 -0.00000000000E+00 -0.14973389698E+03  0.14973389698E+03  0.00000000000E+00 0.  1.
         23    2    1    2    0    0  0.69514303449E+02 -0.91921874850E+02 -0.31650535292E+02  0.17293883633E+03  0.12499686103E+03 0.  0.
         23    2    1    2    0    0 -0.69514303449E+02  0.91921874850E+02  0.65654399921E+02  0.16053282227E+03  0.90434602539E+02 0.  0.
          5    1    3    3  502    0 -0.53582844204E+01  0.17072969478E+02  0.23225322954E+02  0.29693486239E+02  0.47000000000E+01 0.  1.
         -5    1    3    3    0  502  0.74872587869E+02 -0.10899484433E+03 -0.54875858246E+02  0.14324535009E+03  0.47000000000E+01 0.  1.
        -11    1    4    4    0    0  0.15392597621E+02 -0.63237971147E+01  0.72816637482E+01  0.18164390945E+02  0.00000000000E+00 0. -1.
         11    1    4    4    0    0 -0.84906901069E+02  0.98245671965E+02  0.58372736173E+02  0.14236843132E+03  0.00000000000E+00 0.  1.
<mgrwt>
<rscale>  0 0.16380434E+03</rscale>
<asrwt>0</asrwt>
<pdfrwt beam="1">  1        1 0.28267348E-01 0.17001790E+03</pdfrwt>
<pdfrwt beam="2">  1       -1 0.23035984E-01 0.17001790E+03</pdfrwt>
<totfact> 0.25558805E+03</totfact>
</mgrwt>
</event>
<event>
 8    1  0.1154424E-005  0.1416136E+03  0.7546771E-02  0.1217735E+00
         -1   -1    0    0    0  501 -0.00000000000E+00  0.00000000000E+00  0.44460223802E+02  0.44460223802E+02  0.00000000000E+00 0.  1.
          1   -1    0    0  501    0  0.00000000000E+00 -0.00000000000E+00 -0.41152237886E+03  0.41152237886E+03  0.00000000000E+00 0. -1.
         23    2    1    2    0    0 -0.81271657316E+02 -0.69922123139E+01 -0.14935864006E+03  0.20582132073E+03  0.11576026689E+03 0.  0.
         23    2    1    2    0    0  0.81271657316E+02  0.69922123139E+01 -0.21770351499E+03  0.25016128193E+03  0.92368139634E+02 0.  0.
          5    1    3    3  502    0 -0.10325454370E+03 -0.57189772747E+01 -0.15118689584E+03  0.18323147920E+03  0.47000000000E+01 0. -1.
         -5    1    3    3    0  502  0.21982886381E+02 -0.12732350392E+01  0.18282557838E+01  0.22589841529E+02  0.47000000000E+01 0.  1.
        -11    1    4    4    0    0  0.26018955177E+02 -0.41849459353E+02 -0.80171219432E+02  0.94105194872E+02  0.00000000000E+00 0.  1.
         11    1    4    4    0    0  0.55252702139E+02  0.48841671667E+02 -0.13753229556E+03  0.15605608706E+03  0.00000000000E+00 0. -1.
<mgrwt>
<rscale>  0 0.13677559E+03</rscale>
<asrwt>0</asrwt>
<pdfrwt beam="2">  1        1 0.63311137E-01 0.14161360E+03</pdfrwt>
<pdfrwt beam="1">  1       -1 0.68400342E-02 0.14161360E+03</pdfrwt>
<totfact> 0.61394214E+03</totfact>
</mgrwt>
</event>
<event>
 7    1  0.1154424E-005  0.1442897E+03  0.7546771E-02  0.1208700E+00
         -2   -1    0    0    0  501 -0.00000000000E+00  0.00000000000E+00  0.19349132873E+03  0.19349132873E+03  0.00000000000E+00 0. -1.
          2   -1    0    0  501    0  0.00000000000E+00 -0.00000000000E+00 -0.10596338151E+03  0.10596338151E+03  0.00000000000E+00 0.  1.
         23    2    1    2    0    0  0.32118825224E+01 -0.65477757321E+02  0.55434504186E+02  0.15163889679E+03  0.12499487138E+03 0.  0.
          5    1    3    3  502    0  0.37614714750E+02  0.24190486555E+02  0.16519645285E+02  0.47906524460E+02  0.47000000000E+01 0. -1.
         -5    1    3    3    0  502 -0.34402832228E+02 -0.89668243876E+02  0.38914858901E+02  0.10373237233E+03  0.47000000000E+01 0. -1.
        -11    1    1    2    0    0 -0.56546882324E+02  0.85187546929E+01  0.39398010057E+02  0.69442942612E+02  0.00000000000E+00 0. -1.
         11    1    1    2    0    0  0.53334999802E+02  0.56959002628E+02 -0.73045670217E+01  0.78372870839E+02  0.00000000000E+00 0.  1.
<mgrwt>
<rscale>  0 0.14349655E+03</rscale>
<asrwt>0</asrwt>
<pdfrwt beam="2">  1        2 0.16302059E-01 0.14428973E+03</pdfrwt>
<pdfrwt beam="1">  1       -2 0.29767897E-01 0.14428973E+03</pdfrwt>
<totfact> 0.35249107E+03</totfact>
</mgrwt>
</event>
<event>
 8    1  0.1154424E-005  0.1493595E+03  0.7546771E-02  0.1209829E+00
         -2   -1    0    0    0  501 -0.00000000000E+00  0.00000000000E+00  0.17478635013E+02  0.17478635013E+02  0.00000000000E+00 0.  1.
          2   -1    0    0  501    0  0.00000000000E+00 -0.00000000000E+00 -0.10755954358E+04  0.10755954358E+04  0.00000000000E+00 0. -1.
         23    2    1    2    0    0  0.81382198284E+02  0.79881668340E+01 -0.54007981285E+03  0.56035208059E+03  0.12498550701E+03 0.  0.
         23    2    1    2    0    0 -0.81382198284E+02 -0.79881668340E+01 -0.51803698798E+03  0.53272199027E+03  0.93506817902E+02 0.  0.
          5    1    3    3  502    0  0.61593850353E+02 -0.48533322232E+02 -0.40454813464E+03  0.41210504608E+03  0.47000000000E+01 0.  1.
         -5    1    3    3    0  502  0.19788347930E+02  0.56521489066E+02 -0.13553167821E+03  0.14824703450E+03  0.47000000000E+01 0.  1.
        -11    1    4    4    0    0 -0.39803055517E+02  0.41991562435E+02 -0.28331561279E+03  0.28916312177E+03  0.00000000000E+00 0.  1.
         11    1    4    4    0    0 -0.41579142767E+02 -0.49979729269E+02 -0.23472137519E+03  0.24355886849E+03  0.00000000000E+00 0. -1.
<mgrwt>
<rscale>  0 0.14263355E+03</rscale>
<asrwt>0</asrwt>
<pdfrwt beam="2">  1        2 0.16547627E+00 0.14935947E+03</pdfrwt>
<pdfrwt beam="1">  1       -2 0.26890199E-02 0.14935947E+03</pdfrwt>
<totfact> 0.11416311E+04</totfact>
</mgrwt>
</event>
<event>
 8    1  0.1154424E-005  0.1355483E+03  0.7546771E-02  0.1234295E+00
         -2   -1    0    0    0  501 -0.00000000000E+00  0.00000000000E+00  0.14053339684E+03  0.14053339684E+03  0.00000000000E+00 0.  1.
          2   -1    0    0  501    0  0.00000000000E+00 -0.00000000000E+00 -0.20102262259E+03  0.20102262259E+03  0.00000000000E+00 0. -1.
         23    2    1    2    0    0 -0.51046951002E+02  0.11799470020E+02  0.88834504182E+02  0.16206456773E+03  0.12501334441E+03 0.  0.
         23    2    1    2    0    0  0.51046951002E+02 -0.11799470020E+02 -0.14932372993E+03  0.17949145170E+03  0.84702929185E+02 0.  0.
          5    1    3    3  502    0 -0.31262256956E+02  0.66834113079E+02  0.65997172315E+02  0.99105217494E+02  0.47000000000E+01 0.  1.
         -5    1    3    3    0  502 -0.19784694046E+02 -0.55034643059E+02  0.22837331867E+02  0.62959350235E+02  0.47000000000E+01 0.  1.
        -11    1    4    4    0    0  0.47090910995E+01  0.18121962882E+02 -0.11041302081E+03  0.11198935772E+03  0.00000000000E+00 0. -1.
         11    1    4    4    0    0  0.46337859902E+02 -0.29921432902E+02 -0.38910709122E+02  0.67502093979E+02  0.00000000000E+00 0.  1.
<mgrwt>
<rscale>  0 0.12549675E+03</rscale>
<asrwt>0</asrwt>
<pdfrwt beam="2">  1        2 0.30926557E-01 0.13554835E+03</pdfrwt>
<pdfrwt beam="1">  1       -2 0.21620523E-01 0.13554835E+03</pdfrwt>
<totfact> 0.30072141E+03</totfact>
</mgrwt>
</event>
<event>
 8    1  0.1154424E-005  0.1302138E+03  0.7546771E-02  0.1240395E+00
         -1   -1    0    0    0  501 -0.00000000000E+00  0.00000000000E+00  0.72520449542E+03  0.72520449542E+03  0.00000000000E+00 0.  1.
          1   -1    0    0  501    0  0.00000000000E+00 -0.00000000000E+00 -0.20765269809E+02  0.20765269809E+02  0.00000000000E+00 0. -1.
         23    2    1    2    0    0  0.33987317087E+02  0.13268877665E+02  0.52529074499E+03  0.54118943120E+03  0.12499773134E+03 0.  0.
         23    2    1    2    0    0 -0.33987317087E+02 -0.13268877665E+02  0.17914848062E+03  0.20478033402E+03  0.92247527102E+02 0.  0.
          5    1    3    3  502    0  0.72031872146E+02  0.32524412612E+02  0.42169270040E+03  0.42906089497E+03  0.47000000000E+01 0.  1.
         -5    1    3    3    0  502 -0.38044555060E+02 -0.19255534947E+02  0.10359804459E+03  0.11212853624E+03  0.47000000000E+01 0.  1.
        -11    1    4    4    0    0  0.18655959114E+02 -0.13094934236E+02  0.56665345207E+01  0.23486841563E+02  0.00000000000E+00 0. -1.
         11    1    4    4    0    0 -0.52643276201E+02 -0.17394342898E+00  0.17348194610E+03  0.18129349246E+03  0.00000000000E+00 0.  1.
<mgrwt>
<rscale>  0 0.12165266E+03</rscale>
<asrwt>0</asrwt>
<pdfrwt beam="2">  1        1 0.31946575E-02 0.13021380E+03</pdfrwt>
<pdfrwt beam="1">  1       -1 0.11156990E+00 0.13021380E+03</pdfrwt>
<totfact> 0.23638578E+03</totfact>
</mgrwt>
</event>
<event>
 7    1  0.1154424E-005  0.3740254E+03  0.7546771E-02  0.1057076E+00
          2   -1    0    0  501    0  0.00000000000E+00  0.00000000000E+00  0.87050866849E+02  0.87050866849E+02  0.00000000000E+00 0. -1.
         -2   -1    0    0    0  501 -0.00000000000E+00 -0.00000000000E+00 -0.14939661114E+04  0.14939661114E+04  0.00000000000E+00 0.  1.
         23    2    1    2    0    0  0.31869693011E+03  0.36871460728E+02 -0.52062487807E+03  0.61903691816E+03  0.96068748846E+02 0.  0.
          5    1    1    2  502    0 -0.39608172360E+02  0.53030623390E+02 -0.79534195000E+02  0.10358007776E+03  0.47000000000E+01 0. -1.
         -5    1    1    2    0  502 -0.27908875775E+03 -0.89902084118E+02 -0.80675617150E+03  0.85839998234E+03  0.47000000000E+01 0.  1.
        -11    1    3    3    0    0  0.20425176625E+02 -0.22563043312E+02 -0.55657653023E+02  0.63435424675E+02  0.00000000000E+00 0.  1.
         11    1    3    3    0    0  0.29827175349E+03  0.59434504040E+02 -0.46496722505E+03  0.55560149349E+03  0.00000000000E+00 0. -1.
<mgrwt>
<rscale>  0 0.36383450E+03</rscale>
<asrwt>0</asrwt>
<pdfrwt beam="1">  1        2 0.13392442E-01 0.37402543E+03</pdfrwt>
<pdfrwt beam="2">  1       -2 0.22984092E+00 0.37402543E+03</pdfrwt>
<totfact> 0.41695314E+01</totfact>
</mgrwt>
</event>
<event>
 7    1  0.1177176E-005  0.1191034E+03  0.7546771E-02  0.1306827E+00
          3   -1    0    0  501    0  0.00000000000E+00  0.00000000000E+00  0.21090659207E+03  0.21090659207E+03  0.00000000000E+00 0. -1.
         -3   -1    0    0    0  501 -0.00000000000E+00 -0.00000000000E+00 -0.33052269696E+02  0.33052269696E+02  0.00000000000E+00 0.  1.
         23    2    1    2    0    0 -0.17545848048E+02  0.27635783809E+02  0.90971458541E+02  0.14987133046E+03  0.11451644464E+03 0.  0.
          5    1    3    3  502    0  0.26266261128E+02  0.55349037485E+02  0.71548454109E+02  0.94311736860E+02  0.47000000000E+01 0. -1.
         -5    1    3    3    0  502 -0.43812109176E+02 -0.27713253676E+02  0.19423004432E+02  0.55559593600E+02  0.47000000000E+01 0.  1.
        -11    1    1    2    0    0  0.13313114573E+02 -0.75366762158E+01  0.42866729574E+02  0.45514799927E+02  0.00000000000E+00 0.  1.
         11    1    1    2    0    0  0.42327334752E+01 -0.20099107593E+02  0.44016134262E+02  0.48572731384E+02  0.00000000000E+00 0. -1.
<mgrwt>
<rscale>  0 0.88378308E+02</rscale>
<asrwt>0</asrwt>
<pdfrwt beam="1">  1        3 0.32447167E-01 0.11910336E+03</pdfrwt>
<pdfrwt beam="2">  1       -3 0.50849647E-02 0.11910336E+03</pdfrwt>
<totfact> 0.45656560E+03</totfact>
</mgrwt>
</event>
<event>
 8    1  0.1154424E-005  0.1656231E+03  0.7546771E-02  0.1188881E+00
         -1   -1    0    0    0  501 -0.00000000000E+00  0.00000000000E+00  0.41954348632E+02  0.41954348632E+02  0.00000000000E+00 0.  1.
          1   -1    0    0  501    0  0.00000000000E+00 -0.00000000000E+00 -0.66701556203E+03  0.66701556203E+03  0.00000000000E+00 0. -1.
         23    2    1    2    0    0 -0.81930989941E+02  0.71274249895E+02 -0.19660237960E+03  0.25706711776E+03  0.12505319490E+03 0.  0.
         23    2    1    2    0    0  0.81930989941E+02 -0.71274249895E+02 -0.42845883380E+03  0.45190279291E+03  0.94055601479E+02 0.  0.
          5    1    3    3  502    0 -0.31208056404E+02  0.63137189979E+02 -0.19283040271E+03  0.20534337524E+03  0.47000000000E+01 0. -1.
         -5    1    3    3    0  502 -0.50722933537E+02  0.81370599156E+01 -0.37719768916E+01  0.51723742521E+02  0.47000000000E+01 0. -1.
        -11    1    4    4    0    0  0.38277169102E+02 -0.84152216066E+01 -0.40084633966E+02  0.56060106220E+02  0.00000000000E+00 0.  1.
         11    1    4    4    0    0  0.43653820839E+02 -0.62859028288E+02 -0.38837419983E+03  0.39584268669E+03  0.00000000000E+00 0. -1.
<mgrwt>
<rscale>  0 0.15983694E+03</rscale>
<asrwt>0</asrwt>
<pdfrwt beam="2">  1        1 0.10261778E+00 0.16562309E+03</pdfrwt>
<pdfrwt beam="1">  1       -1 0.64545151E-02 0.16562309E+03</pdfrwt>
<totfact> 0.35519157E+03</totfact>
</mgrwt>
</event>
<event>
 8    1  0.1154424E-005  0.2437528E+03  0.7546771E-02  0.1120001E+00
          1   -1    0    0  501    0  0.00000000000E+00  0.00000000000E+00  0.52971121505E+03  0.52971121505E+03  0.00000000000E+00 0. -1.
         -1   -1    0    0    0  501 -0.00000000000E+00 -0.00000000000E+00 -0.10574520713E+03  0.10574520713E+03  0.00000000000E+00 0.  1.
         23    2    1    2    0    0  0.17305032344E+03  0.11765598756E+03  0.19218857486E+03  0.31040599663E+03  0.12500435427E+03 0.  0.
         23    2    1    2    0    0 -0.17305032344E+03 -0.11765598756E+03  0.23177743306E+03  0.32505042555E+03  0.90264360763E+02 0.  0.
          5    1    3    3  502    0  0.14173844777E+03  0.10890761158E+03  0.20771105066E+03  0.27407412501E+03  0.47000000000E+01 0. -1.
         -5    1    3    3    0  502  0.31311875675E+02  0.87483759786E+01 -0.15522475796E+02  0.36331871620E+02  0.47000000000E+01 0. -1.
        -11    1    4    4    0    0 -0.29144482689E+02  0.13886476484E+02  0.41958391289E+02  0.52940926512E+02  0.00000000000E+00 0. -1.
         11    1    4    4    0    0 -0.14390584075E+03 -0.13154246404E+03  0.18981904177E+03  0.27210949904E+03  0.00000000000E+00 0.  1.
<mgrwt>
<rscale>  0 0.23968830E+03</rscale>
<asrwt>0</asrwt>
<pdfrwt beam="1">  1        1 0.81494032E-01 0.24375281E+03</pdfrwt>
<pdfrwt beam="2">  1       -1 0.16268494E-01 0.24375281E+03</pdfrwt>
<totfact> 0.11786293E+03</totfact>
</mgrwt>
</event>
<event>
 8    1  0.1154424E-005  0.1463775E+03  0.7546771E-02  0.1214644E+00
         -1   -1    0    0    0  501 -0.00000000000E+00  0.00000000000E+00  0.41713897417E+03  0.41713897417E+03  0.00000000000E+00 0.  1.
          1   -1    0    0  501    0  0.00000000000E+00 -0.00000000000E+00 -0.48711801516E+02  0.48711801516E+02  0.00000000000E+00 0. -1.
         23    2    1    2    0    0 -0.64443792899E+02 -0.40614998817E+02  0.28509511883E+03  0.32047716021E+03  0.12499521137E+03 0.  0.
         23    2    1    2    0    0  0.64443792899E+02  0.40614998817E+02  0.83332053832E+02  0.14537361548E+03  0.91578798366E+02 0.  0.
          5    1    3    3  502    0  0.26162300613E+02  0.23302795811E+02  0.65476351467E+02  0.74409198809E+02  0.47000000000E+01 0. -1.
         -5    1    3    3    0  502 -0.90606093512E+02 -0.63917794628E+02  0.21961876736E+03  0.24606796140E+03  0.47000000000E+01 0. -1.
        -11    1    4    4    0    0  0.68187134229E+02  0.52449355497E+02  0.30765586393E+02  0.91361597362E+02  0.00000000000E+00 0. -1.
         11    1    4    4    0    0 -0.37433413301E+01 -0.11834356680E+02  0.52566467439E+02  0.54012018120E+02  0.00000000000E+00 0.  1.
<mgrwt>
<rscale>  0 0.13902752E+03</rscale>
<asrwt>0</asrwt>
<pdfrwt beam="2">  1        1 0.74941236E-02 0.14637754E+03</pdfrwt>
<pdfrwt beam="1">  1       -1 0.64175224E-01 0.14637754E+03</pdfrwt>
<totfact> 0.23559846E+03</totfact>
</mgrwt>
</event>
<event>
 8    1  0.1154424E-005  0.1294162E+03  0.7546771E-02  0.1241750E+00
          1   -1    0    0  501    0  0.00000000000E+00  0.00000000000E+00  0.20750297480E+03  0.20750297480E+03  0.00000000000E+00 0. -1.
         -1   -1    0    0    0  501 -0.00000000000E+00 -0.00000000000E+00 -0.64281689284E+02  0.64281689284E+02  0.00000000000E+00 0.  1.
         23    2    1    2    0    0 -0.13411372432E+02  0.30723635433E+02  0.58571654685E+02  0.14205346982E+03  0.12499897148E+03 0.  0.
         23    2    1    2    0    0  0.13411372432E+02 -0.30723635433E+02  0.84649630835E+02  0.12973119427E+03  0.92416535760E+02 0.  0.
          5    1    3    3  502    0 -0.44795191699E+02 -0.30244932998E+02  0.48142690116E+02  0.72533949176E+02  0.47000000000E+01 0. -1.
         -5    1    3    3    0  502  0.31383819267E+02  0.60968568431E+02  0.10428964569E+02  0.69519520642E+02  0.47000000000E+01 0. -1.
        -11    1    4    4    0    0  0.26483651563E+01 -0.11704454937E+02 -0.19727574422E+02  0.23090805442E+02  0.00000000000E+00 0.  1.
         11    1    4    4    0    0  0.10763007276E+02 -0.19019180495E+02  0.10437720526E+03  0.10664038883E+03  0.00000000000E+00 0. -1.
<mgrwt>
<rscale>  0 0.12082020E+03</rscale>
<asrwt>0</asrwt>
<pdfrwt beam="1">  1        1 0.31923534E-01 0.12941619E+03</pdfrwt>
<pdfrwt beam="2">  1       -1 0.98894908E-02 0.12941619E+03</pdfrwt>
<totfact> 0.81868883E+03</totfact>
</mgrwt>
</event>
<event>
 8    1  0.1154424E-005  0.1685976E+03  0.7546771E-02  0.1185813E+00
          1   -1    0    0  501    0  0.00000000000E+00  0.00000000000E+00  0.30889576978E+03  0.30889576978E+03  0.00000000000E+00 0. -1.
         -1   -1    0    0    0  501 -0.00000000000E+00 -0.00000000000E+00 -0.85978699714E+02  0.85978699714E+02  0.00000000000E+00 0.  1.
         23    2    1    2    0    0  0.17741631094E+02 -0.11174362567E+03  0.67019295175E+02  0.18142971952E+03  0.12499501529E+03 0.  0.
         23    2    1    2    0    0 -0.17741631094E+02  0.11174362567E+03  0.15589777489E+03  0.21344474998E+03  0.91940968689E+02 0.  0.
          5    1    3    3  502    0  0.20150918290E+02 -0.45181307139E+02 -0.34089556559E+02  0.60262740471E+02  0.47000000000E+01 0. -1.
         -5    1    3    3    0  502 -0.24092871959E+01 -0.66562318532E+02  0.10110885173E+03  0.12116697905E+03  0.47000000000E+01 0. -1.
        -11    1    4    4    0    0 -0.15354019352E+02 -0.88191469218E+01  0.18354038293E+01  0.17801459769E+02  0.00000000000E+00 0.  1.
         11    1    4    4    0    0 -0.23876117426E+01  0.12056277259E+03  0.15406237106E+03  0.19564329021E+03  0.00000000000E+00 0. -1.
<mgrwt>
<rscale>  0 0.16258110E+03</rscale>
<asrwt>0</asrwt>
<pdfrwt beam="1">  1        1 0.47522426E-01 0.16859762E+03</pdfrwt>
<pdfrwt beam="2">  1       -1 0.13227492E-01 0.16859762E+03</pdfrwt>
<totfact> 0.32405338E+03</totfact>
</mgrwt>
</event>
<event>
 8    1  0.1154424E-005  0.1719765E+03  0.7546771E-02  0.1183854E+00
          4   -1    0    0  501    0  0.00000000000E+00  0.00000000000E+00  0.68276088351E+03  0.68276088351E+03  0.00000000000E+00 0. -1.
         -4   -1    0    0    0  501 -0.00000000000E+00 -0.00000000000E+00 -0.36516979104E+02  0.36516979104E+02  0.00000000000E+00 0.  1.
         23    2    1    2    0    0  0.62930675508E+02 -0.99949849945E+02  0.36850329500E+03  0.40665784501E+03  0.12500272822E+03 0.  0.
         23    2    1    2    0    0 -0.62930675508E+02  0.99949849945E+02  0.27774060941E+03  0.31262001760E+03  0.81493477441E+02 0.  0.
          5    1    3    3  502    0  0.80587993567E+02 -0.23515095197E+02  0.25576876333E+03  0.26923434904E+03  0.47000000000E+01 0.  1.
         -5    1    3    3    0  502 -0.17657318059E+02 -0.76434754748E+02  0.11273453167E+03  0.13742349597E+03  0.47000000000E+01 0.  1.
        -11    1    4    4    0    0  0.47363227982E+01  0.27115594899E+02  0.14040238295E+03  0.14307521581E+03  0.00000000000E+00 0. -1.
         11    1    4    4    0    0 -0.67666998306E+02  0.72834255046E+02  0.13733822646E+03  0.16954480179E+03  0.00000000000E+00 0.  1.
<mgrwt>
<rscale>  0 0.16436626E+03</rscale>
<asrwt>0</asrwt>
<pdfrwt beam="1">  1        4 0.10504013E+00 0.17197652E+03</pdfrwt>
<pdfrwt beam="2">  1       -4 0.56179973E-02 0.17197652E+03</pdfrwt>
<totfact> 0.26182477E+02</totfact>
</mgrwt>
</event>
<event>
 8    1  0.1154424E-005  0.1774637E+03  0.7546771E-02  0.1176215E+00
         -1   -1    0    0    0  501 -0.00000000000E+00  0.00000000000E+00  0.15687812947E+03  0.15687812947E+03  0.00000000000E+00 0.  1.
          1   -1    0    0  501    0  0.00000000000E+00 -0.00000000000E+00 -0.17648312735E+03  0.17648312735E+03  0.00000000000E+00 0. -1.
         23    2    1    2    0    0  0.81239513222E+02 -0.96275559299E+02 -0.38502510099E+01  0.17750549622E+03  0.12499813970E+03 0.  0.
         23    2    1    2    0    0 -0.81239513222E+02  0.96275559299E+02 -0.15754746873E+02  0.15585576059E+03  0.90409978618E+02 0.  0.
          5    1    3    3  502    0  0.77459420192E+02 -0.23675219351E+01  0.20511151201E+02  0.80301707704E+02  0.47000000000E+01 0.  1.
         -5    1    3    3    0  502  0.37800930301E+01 -0.93908037363E+02 -0.24361402210E+02  0.97203788519E+02  0.47000000000E+01 0.  1.
        -11    1    4    4    0    0 -0.62032966038E+01  0.58666770735E+02  0.23112454680E+02  0.63359738308E+02  0.00000000000E+00 0.  1.
         11    1    4    4    0    0 -0.75036216618E+02  0.37608788564E+02 -0.38867201552E+02  0.92496022283E+02  0.00000000000E+00 0. -1.
<mgrwt>
<rscale>  0 0.17157553E+03</rscale>
<asrwt>0</asrwt>
<pdfrwt beam="2">  1        1 0.27151250E-01 0.17746373E+03</pdfrwt>
<pdfrwt beam="1">  1       -1 0.24135097E-01 0.17746373E+03</pdfrwt>
<totfact> 0.24946155E+03</totfact>
</mgrwt>
</event>
<event>
 8    1  0.1154424E-005  0.1585625E+03  0.7546771E-02  0.1198964E+00
         -2   -1    0    0    0  501 -0.00000000000E+00  0.00000000000E+00  0.57762911838E+02  0.57762911838E+02  0.00000000000E+00 0.  1.
          2   -1    0    0  501    0  0.00000000000E+00 -0.00000000000E+00 -0.43268700722E+03  0.43268700722E+03  0.00000000000E+00 0. -1.
         23    2    1    2    0    0 -0.42321190799E+02 -0.87897010959E+02 -0.10458775293E+03  0.18994907243E+03  0.12500033732E+03 0.  0.
         23    2    1    2    0    0  0.42321190799E+02  0.87897010959E+02 -0.27033634246E+03  0.30050084662E+03  0.87761341391E+02 0.  0.
          5    1    3    3  502    0 -0.31123131450E+02 -0.11137803749E+03 -0.43958077778E+02  0.12380678151E+03  0.47000000000E+01 0. -1.
         -5    1    3    3    0  502 -0.11198059350E+02  0.23481026529E+02 -0.60629675149E+02  0.66142290924E+02  0.47000000000E+01 0. -1.
        -11    1    4    4    0    0  0.32892058613E+02  0.24774252385E+02 -0.27742011932E+02  0.49651488669E+02  0.00000000000E+00 0.  1.
         11    1    4    4    0    0  0.94291321868E+01  0.63122758574E+02 -0.24259433052E+03  0.25084935795E+03  0.00000000000E+00 0. -1.
<mgrwt>
<rscale>  0 0.15123466E+03</rscale>
<asrwt>0</asrwt>
<pdfrwt beam="2">  1        2 0.66567233E-01 0.15856245E+03</pdfrwt>
<pdfrwt beam="1">  1       -2 0.88866017E-02 0.15856245E+03</pdfrwt>
<totfact> 0.56781903E+03</totfact>
</mgrwt>
</event>
<event>
 8    1  0.1154424E-005  0.1262444E+03  0.7546771E-02  0.1252386E+00
         -2   -1    0    0    0  501 -0.00000000000E+00  0.00000000000E+00  0.94949109405E+02  0.94949109405E+02  0.00000000000E+00 0.  1.
          2   -1    0    0  501    0  0.00000000000E+00 -0.00000000000E+00 -0.11916087402E+03  0.11916087402E+03  0.00000000000E+00 0. -1.
         23    2    1    2    0    0  0.16815218871E+02  0.54818540701E+01 -0.24315722556E+02  0.12856479020E+03  0.12499939442E+03 0.  0.
         23    2    1    2    0    0 -0.16815218871E+02 -0.54818540701E+01  0.10395793841E+00  0.85545193226E+02  0.83696875492E+02 0.  0.
          5    1    3    3  502    0 -0.22547033023E+02  0.31943062937E+02 -0.58067961033E+02  0.70161998735E+02  0.47000000000E+01 0. -1.
         -5    1    3    3    0  502  0.39362251894E+02 -0.26461208867E+02  0.33752238477E+02  0.58402791467E+02  0.47000000000E+01 0. -1.
        -11    1    4    4    0    0 -0.34430875790E+02  0.30013231137E+02  0.32719793173E+01  0.45792849874E+02  0.00000000000E+00 0.  1.
         11    1    4    4    0    0  0.17615656919E+02 -0.35495085207E+02 -0.31680213789E+01  0.39752343352E+02  0.00000000000E+00 0. -1.
<mgrwt>
<rscale>  0 0.11454020E+03</rscale>
<asrwt>0</asrwt>
<pdfrwt beam="2">  1        2 0.18332442E-01 0.12624441E+03</pdfrwt>
<pdfrwt beam="1">  1       -2 0.14607555E-01 0.12624441E+03</pdfrwt>
<totfact> 0.10268692E+04</totfact>
</mgrwt>
</event>
<event>
 8    1  0.1154424E-005  0.2934488E+03  0.7546771E-02  0.1090225E+00
         -2   -1    0    0    0  501 -0.00000000000E+00  0.00000000000E+00  0.94483885494E+02  0.94483885494E+02  0.00000000000E+00 0.  1.
          2   -1    0    0  501    0  0.00000000000E+00 -0.00000000000E+00 -0.99955904082E+03  0.99955904082E+03  0.00000000000E+00 0. -1.
         23    2    1    2    0    0 -0.86127659075E+02  0.25113693189E+03 -0.26629574543E+03  0.39626455490E+03  0.12499776488E+03 0.  0.
         23    2    1    2    0    0  0.86127659075E+02 -0.25113693189E+03 -0.63877940990E+03  0.69777837141E+03  0.91475619053E+02 0.  0.
          5    1    3    3  502    0 -0.69545093615E+02  0.62893350211E+02 -0.41758603765E+02  0.10275195636E+03  0.47000000000E+01 0. -1.
         -5    1    3    3    0  502 -0.16582565460E+02  0.18824358168E+03 -0.22453714166E+03  0.29351259855E+03  0.47000000000E+01 0. -1.
        -11    1    4    4    0    0  0.11833116984E+02 -0.93396618817E+02 -0.33005391469E+03  0.34321791571E+03  0.00000000000E+00 0. -1.
         11    1    4    4    0    0  0.74294542091E+02 -0.15774031307E+03 -0.30872549521E+03  0.35456045570E+03  0.00000000000E+00 0.  1.
<mgrwt>
<rscale>  0 0.29023730E+03</rscale>
<asrwt>0</asrwt>
<pdfrwt beam="2">  1        2 0.15377832E+00 0.29344876E+03</pdfrwt>
<pdfrwt beam="1">  1       -2 0.14535982E-01 0.29344876E+03</pdfrwt>
<totfact> 0.94875283E+02</totfact>
</mgrwt>
</event>
<event>
 8    1  0.1154424E-005  0.1281853E+03  0.7546771E-02  0.1243415E+00
          2   -1    0    0  501    0  0.00000000000E+00  0.00000000000E+00  0.33456932673E+03  0.33456932673E+03  0.00000000000E+00 0. -1.
         -2   -1    0    0    0  501 -0.00000000000E+00 -0.00000000000E+00 -0.40051824370E+02  0.40051824370E+02  0.00000000000E+00 0.  1.
         23    2    1    2    0    0 -0.26736662189E+02  0.10148340396E+02  0.12583096299E+03  0.17962433726E+03  0.12495452521E+03 0.  0.
         23    2    1    2    0    0  0.26736662189E+02 -0.10148340396E+02  0.16868653937E+03  0.19499681384E+03  0.93545555352E+02 0.  0.
          5    1    3    3  502    0 -0.55148637128E+02  0.50585124124E+02  0.54402672715E+02  0.92638910606E+02  0.47000000000E+01 0.  1.
         -5    1    3    3    0  502  0.28411974939E+02 -0.40436783728E+02  0.71428290276E+02  0.86985426652E+02  0.47000000000E+01 0.  1.
        -11    1    4    4    0    0  0.29519219804E+02 -0.47864121300E+02  0.73297114004E+02  0.92384118586E+02  0.00000000000E+00 0.  1.
         11    1    4    4    0    0 -0.27825576145E+01  0.37715780903E+02  0.95389425369E+02  0.10261269526E+03  0.00000000000E+00 0. -1.
<mgrwt>
<rscale>  0 0.11980771E+03</rscale>
<asrwt>0</asrwt>
<pdfrwt beam="1">  1        2 0.51472202E-01 0.12818530E+03</pdfrwt>
<pdfrwt beam="2">  1       -2 0.61618194E-02 0.12818530E+03</pdfrwt>
<totfact> 0.12941412E+04</totfact>
</mgrwt>
</event>
<event>
 8    1  0.1154424E-005  0.1659732E+03  0.7546771E-02  0.1188777E+00
          2   -1    0    0  501    0  0.00000000000E+00  0.00000000000E+00  0.51462446819E+03  0.51462446819E+03  0.00000000000E+00 0. -1.
         -2   -1    0    0    0  501 -0.00000000000E+00 -0.00000000000E+00 -0.50926304368E+02  0.50926304368E+02  0.00000000000E+00 0.  1.
         23    2    1    2    0    0  0.48173591826E+02  0.97989377592E+02  0.16341591932E+03  0.23292032095E+03  0.12499800058E+03 0.  0.
         23    2    1    2    0    0 -0.48173591826E+02 -0.97989377592E+02  0.30028224450E+03  0.33263045162E+03  0.92471497825E+02 0.  0.
          5    1    3    3  502    0 -0.33370541224E+02  0.12883785746E+02  0.82016476567E+02  0.89601213079E+02  0.47000000000E+01 0.  1.
         -5    1    3    3    0  502  0.81544133050E+02  0.85105591846E+02  0.81399442758E+02  0.14331910787E+03  0.47000000000E+01 0.  1.
        -11    1    4    4    0    0 -0.24434409490E+02 -0.38456416747E+02  0.29296130717E+02  0.54168252982E+02  0.00000000000E+00 0.  1.
         11    1    4    4    0    0 -0.23739182337E+02 -0.59532960846E+02  0.27098611378E+03  0.27846219864E+03  0.00000000000E+00 0. -1.
<mgrwt>
<rscale>  0 0.15992921E+03</rscale>
<asrwt>0</asrwt>
<pdfrwt beam="1">  1        2 0.79172992E-01 0.16597323E+03</pdfrwt>
<pdfrwt beam="2">  1       -2 0.78348164E-02 0.16597323E+03</pdfrwt>
<totfact> 0.57248515E+03</totfact>
</mgrwt>
</event>
<event>
 8    1  0.1154424E-005  0.1999027E+03  0.7546771E-02  0.1153792E+00
         -2   -1    0    0    0  501 -0.00000000000E+00  0.00000000000E+00  0.25500276552E+03  0.25500276552E+03  0.00000000000E+00 0.  1.
          2   -1    0    0  501    0  0.00000000000E+00 -0.00000000000E+00 -0.16013338506E+03  0.16013338506E+03  0.00000000000E+00 0. -1.
         23    2    1    2    0    0  0.97826351848E+02  0.12152066832E+03  0.11725968996E+03  0.23175614897E+03  0.12499523892E+03 0.  0.
         23    2    1    2    0    0 -0.97826351848E+02 -0.12152066832E+03 -0.22390309499E+02  0.18338000161E+03  0.93753032407E+02 0.  0.
          5    1    3    3  502    0  0.93675494361E+02  0.90404929916E+02  0.22985885939E+02  0.13228223822E+03  0.47000000000E+01 0.  1.
         -5    1    3    3    0  502  0.41508574865E+01  0.31115738402E+02  0.94273804026E+02  0.99473910749E+02  0.47000000000E+01 0.  1.
        -11    1    4    4    0    0 -0.67066607206E+02 -0.54368089873E+02  0.31548879664E+02  0.91919262435E+02  0.00000000000E+00 0.  1.
         11    1    4    4    0    0 -0.30759744642E+02 -0.67152578445E+02 -0.53939189163E+02  0.91460739172E+02  0.00000000000E+00 0. -1.
<mgrwt>
<rscale>  0 0.19527046E+03</rscale>
<asrwt>0</asrwt>
<pdfrwt beam="2">  1        2 0.24635905E-01 0.19990267E+03</pdfrwt>
<pdfrwt beam="1">  1       -2 0.39231195E-01 0.19990267E+03</pdfrwt>
<totfact> 0.13411228E+03</totfact>
</mgrwt>
</event>
<event>
 8    1  0.1154424E-005  0.2521190E+03  0.7546771E-02  0.1114364E+00
          1   -1    0    0  501    0  0.00000000000E+00  0.00000000000E+00  0.34287572788E+03  0.34287572788E+03  0.00000000000E+00 0. -1.
         -1   -1    0    0    0  501 -0.00000000000E+00 -0.00000000000E+00 -0.19473163858E+03  0.19473163858E+03  0.00000000000E+00 0.  1.
         23    2    1    2    0    0  0.80604094293E+02  0.20357572039E+03 -0.10198422650E+02  0.25232522525E+03  0.12499567003E+03 0.  0.
         23    2    1    2    0    0 -0.80604094293E+02 -0.20357572039E+03  0.15834251195E+03  0.28528214120E+03  0.91506584744E+02 0.  0.
          5    1    3    3  502    0 -0.27064698644E+02  0.95517376860E+02 -0.77533646213E+01  0.99690881518E+02  0.47000000000E+01 0. -1.
         -5    1    3    3    0  502  0.10766879294E+03  0.10805834353E+03 -0.24450580285E+01  0.15263434373E+03  0.47000000000E+01 0. -1.
        -11    1    4    4    0    0 -0.50454028890E+02 -0.18830095698E+03  0.10311889440E+03  0.22053654077E+03  0.00000000000E+00 0.  1.
         11    1    4    4    0    0 -0.30150065404E+02 -0.15274763408E+02  0.55223617547E+02  0.64745600438E+02  0.00000000000E+00 0. -1.
<mgrwt>
<rscale>  0 0.24833095E+03</rscale>
<asrwt>0</asrwt>
<pdfrwt beam="1">  1        1 0.52750112E-01 0.25211904E+03</pdfrwt>
<pdfrwt beam="2">  1       -1 0.29958714E-01 0.25211904E+03</pdfrwt>
<totfact> 0.75897073E+02</totfact>
</mgrwt>
</event>
<event>
 8    1  0.1154424E-005  0.1752686E+03  0.7546771E-02  0.1178334E+00
          2   -1    0    0  501    0  0.00000000000E+00  0.00000000000E+00  0.68888447571E+03  0.68888447571E+03  0.00000000000E+00 0. -1.
         -2   -1    0    0    0  501 -0.00000000000E+00 -0.00000000000E+00 -0.39283411671E+02  0.39283411671E+02  0.00000000000E+00 0.  1.
         23    2    1    2    0    0 -0.85698210029E+02  0.88047426279E+02  0.33063211211E+03  0.37421476416E+03  0.12499025433E+03 0.  0.
         23    2    1    2    0    0  0.85698210029E+02 -0.88047426279E+02  0.31896895193E+03  0.35395312323E+03  0.91897163555E+02 0.  0.
          5    1    3    3  502    0 -0.98534268486E+02  0.78066177096E+02  0.33404583283E+03  0.35694822944E+03  0.47000000000E+01 0.  1.
         -5    1    3    3    0  502  0.12836058457E+02  0.99812491821E+01 -0.34137207167E+01  0.17266534715E+02  0.47000000000E+01 0.  1.
        -11    1    4    4    0    0 -0.10601244085E+01 -0.37315454746E+02  0.17135162453E+03  0.17537088201E+03  0.00000000000E+00 0. -1.
         11    1    4    4    0    0  0.86758334438E+02 -0.50731971532E+02  0.14761732740E+03  0.17858224122E+03  0.00000000000E+00 0.  1.
<mgrwt>
<rscale>  0 0.16953435E+03</rscale>
<asrwt>0</asrwt>
<pdfrwt beam="1">  1        2 0.10598222E+00 0.17526864E+03</pdfrwt>
<pdfrwt beam="2">  1       -2 0.60436023E-02 0.17526864E+03</pdfrwt>
<totfact> 0.61207760E+03</totfact>
</mgrwt>
</event>
<event>
 8    1  0.1154424E-005  0.1817225E+03  0.7546771E-02  0.1171273E+00
          2   -1    0    0  501    0  0.00000000000E+00  0.00000000000E+00  0.76029680634E+03  0.76029680634E+03  0.00000000000E+00 0. -1.
         -2   -1    0    0    0  501 -0.00000000000E+00 -0.00000000000E+00 -0.41749708324E+02  0.41749708324E+02  0.00000000000E+00 0.  1.
         23    2    1    2    0    0  0.63763723249E+02  0.11546867976E+03  0.27155173850E+03  0.32674671225E+03  0.12499695546E+03 0.  0.
         23    2    1    2    0    0 -0.63763723249E+02 -0.11546867976E+03  0.44699535951E+03  0.47529980241E+03  0.93307139817E+02 0.  0.
          5    1    3    3  502    0  0.33801626087E+02  0.18997936478E+02  0.19770910577E+03  0.20153027569E+03  0.47000000000E+01 0.  1.
         -5    1    3    3    0  502  0.29962097162E+02  0.96470743279E+02  0.73842632734E+02  0.12521643656E+03  0.47000000000E+01 0.  1.
        -11    1    4    4    0    0 -0.82067092043E+02 -0.11727573497E+03  0.39266185097E+03  0.41793771643E+03  0.00000000000E+00 0. -1.
         11    1    4    4    0    0  0.18303368794E+02  0.18070552081E+01  0.54333508544E+02  0.57362085984E+02  0.00000000000E+00 0.  1.
<mgrwt>
<rscale>  0 0.17646033E+03</rscale>
<asrwt>0</asrwt>
<pdfrwt beam="1">  1        2 0.11696873E+00 0.18172250E+03</pdfrwt>
<pdfrwt beam="2">  1       -2 0.64230326E-02 0.18172250E+03</pdfrwt>
<totfact> 0.49547398E+03</totfact>
</mgrwt>
</event>
<event>
 6    1  0.1154424E-005  0.3411822E+03  0.7546771E-02  0.1066294E+00
          1   -1    0    0  501    0  0.00000000000E+00  0.00000000000E+00  0.43404814420E+03  0.43404814420E+03  0.00000000000E+00 0. -1.
         -1   -1    0    0    0  501 -0.00000000000E+00 -0.00000000000E+00 -0.67046311625E+02  0.67046311625E+02  0.00000000000E+00 0.  1.
          5    1    1    2  502    0 -0.46763018759E+02 -0.86370266948E+02  0.11492206406E+03  0.15124739252E+03  0.47000000000E+01 0. -1.
         -5    1    1    2    0  502  0.26869844560E+02  0.89812448364E+01 -0.13907397573E+02  0.31908572715E+02  0.47000000000E+01 0.  1.
        -11    1    1    2    0    0 -0.19205800437E+02 -0.17912375118E+02 -0.61370563285E+01  0.26969972435E+02  0.00000000000E+00 0.  1.
         11    1    1    2    0    0  0.39098974636E+02  0.95301397230E+02  0.27212422242E+03  0.29096851816E+03  0.00000000000E+00 0. -1.
<mgrwt>
<rscale>  0 0.34118222E+03</rscale>
<asrwt>0</asrwt>
<pdfrwt beam="1">  1        1 0.66776636E-01 0.34118222E+03</pdfrwt>
<pdfrwt beam="2">  1       -1 0.10314817E-01 0.34118222E+03</pdfrwt>
<totfact> 0.31710277E+03</totfact>
</mgrwt>
</event>
<event>
 8    1  0.1154424E-005  0.1253771E+03  0.7546771E-02  0.1250523E+00
         -2   -1    0    0    0  501 -0.00000000000E+00  0.00000000000E+00  0.10484505330E+03  0.10484505330E+03  0.00000000000E+00 0. -1.
          2   -1    0    0  501    0  0.00000000000E+00 -0.00000000000E+00 -0.12417075769E+03  0.12417075769E+03  0.00000000000E+00 0.  1.
         23    2    1    2    0    0  0.73774896639E+01 -0.63553043865E+01  0.25431653740E+02  0.12793044341E+03  0.12499844836E+03 0.  0.
         23    2    1    2    0    0 -0.73774896639E+01  0.63553043865E+01 -0.44757358124E+02  0.10108536757E+03  0.90112225496E+02 0.  0.
          5    1    3    3  502    0  0.40105173360E+02 -0.43358404413E+02 -0.18065766029E+02  0.61942215537E+02  0.47000000000E+01 0. -1.
         -5    1    3    3    0  502 -0.32727683696E+02  0.37003100026E+02  0.43497419769E+02  0.65988227876E+02  0.47000000000E+01 0. -1.
        -11    1    4    4    0    0 -0.20604643989E+02  0.44838328742E+02 -0.18730997518E+02  0.52781410992E+02  0.00000000000E+00 0. -1.
         11    1    4    4    0    0  0.13227154325E+02 -0.38483024356E+02 -0.26026360606E+02  0.48303956582E+02  0.00000000000E+00 0.  1.
<mgrwt>
<rscale>  0 0.11560855E+03</rscale>
<asrwt>0</asrwt>
<pdfrwt beam="2">  1        2 0.19103193E-01 0.12537715E+03</pdfrwt>
<pdfrwt beam="1">  1       -2 0.16130008E-01 0.12537715E+03</pdfrwt>
<totfact> 0.83277101E+03</totfact>
</mgrwt>
</event>
<event>
 8    1  0.1154424E-005  0.1585175E+03  0.7546771E-02  0.1197403E+00
         -2   -1    0    0    0  501 -0.00000000000E+00  0.00000000000E+00  0.60715926596E+02  0.60715926596E+02  0.00000000000E+00 0.  1.
          2   -1    0    0  501    0  0.00000000000E+00 -0.00000000000E+00 -0.47366227285E+03  0.47366227285E+03  0.00000000000E+00 0. -1.
         23    2    1    2    0    0 -0.96556630313E+02  0.13650093172E+02 -0.86048947661E+02  0.18036688598E+03  0.12497313417E+03 0.  0.
         23    2    1    2    0    0  0.96556630313E+02 -0.13650093172E+02 -0.32689739859E+03  0.35401131346E+03  0.94618142822E+02 0.  0.
          5    1    3    3  502    0 -0.40833036412E+01 -0.42142800205E+02 -0.51588866923E+02  0.66904335944E+02  0.47000000000E+01 0.  1.
         -5    1    3    3    0  502 -0.92473326672E+02  0.55792893377E+02 -0.34460080738E+02  0.11346255004E+03  0.47000000000E+01 0.  1.
        -11    1    4    4    0    0  0.10995400657E+03  0.18102289474E+01 -0.30414034954E+03  0.32341074921E+03  0.00000000000E+00 0. -1.
         11    1    4    4    0    0 -0.13397376258E+02 -0.15460322119E+02 -0.22757049057E+02  0.30600564250E+02  0.00000000000E+00 0.  1.
<mgrwt>
<rscale>  0 0.15252570E+03</rscale>
<asrwt>0</asrwt>
<pdfrwt beam="2">  1        2 0.72871118E-01 0.15851748E+03</pdfrwt>
<pdfrwt beam="1">  1       -2 0.93409119E-02 0.15851748E+03</pdfrwt>
<totfact> 0.47590385E+03</totfact>
</mgrwt>
</event>
<event>
 8    1  0.1154424E-005  0.1411909E+03  0.7546771E-02  0.1222377E+00
          1   -1    0    0  501    0  0.00000000000E+00  0.00000000000E+00  0.56305332117E+03  0.56305332117E+03  0.00000000000E+00 0. -1.
         -1   -1    0    0    0  501 -0.00000000000E+00 -0.00000000000E+00 -0.32045206346E+02  0.32045206346E+02  0.00000000000E+00 0.  1.
         23    2    1    2    0    0 -0.64279538925E+02  0.13299128773E+02  0.19561828715E+03  0.24124961008E+03  0.12500453649E+03 0.  0.
         23    2    1    2    0    0  0.64279538925E+02 -0.13299128773E+02  0.33538982768E+03  0.35384891744E+03  0.91727825196E+02 0.  0.
          5    1    3    3  502    0  0.23382078413E+02  0.29478000347E+02  0.11456124215E+03  0.12067328743E+03  0.47000000000E+01 0. -1.
         -5    1    3    3    0  502 -0.87661617338E+02 -0.16178871574E+02  0.81057044999E+02  0.12057632265E+03  0.47000000000E+01 0. -1.
        -11    1    4    4    0    0 -0.11247472082E+02  0.18520539449E+02  0.26291381781E+02  0.34069821920E+02  0.00000000000E+00 0.  1.
         11    1    4    4    0    0  0.75527011008E+02 -0.31819668221E+02  0.30909844590E+03  0.31977909552E+03  0.00000000000E+00 0. -1.
<mgrwt>
<rscale>  0 0.13348346E+03</rscale>
<asrwt>0</asrwt>
<pdfrwt beam="1">  1        1 0.86623581E-01 0.14119086E+03</pdfrwt>
<pdfrwt beam="2">  1       -1 0.49300321E-02 0.14119086E+03</pdfrwt>
<totfact> 0.66525327E+03</totfact>
</mgrwt>
</event>
<event>
 8    1  0.1154424E-005  0.1634120E+03  0.7546771E-02  0.1192030E+00
          2   -1    0    0  501    0  0.00000000000E+00  0.00000000000E+00  0.45621033287E+03  0.45621033287E+03  0.00000000000E+00 0. -1.
         -2   -1    0    0    0  501 -0.00000000000E+00 -0.00000000000E+00 -0.53139266427E+02  0.53139266427E+02  0.00000000000E+00 0.  1.
         23    2    1    2    0    0  0.83181819678E+02 -0.64484952471E+02  0.15778413707E+03  0.22715479351E+03  0.12500376827E+03 0.  0.
         23    2    1    2    0    0 -0.83181819678E+02  0.64484952471E+02  0.24528692937E+03  0.28219480579E+03  0.91600799524E+02 0.  0.
          5    1    3    3  502    0 -0.19478958968E+02 -0.41326552316E+02  0.92353569441E+02  0.10314351922E+03  0.47000000000E+01 0. -1.
         -5    1    3    3    0  502  0.10266077865E+03 -0.23158400156E+02  0.65430567631E+02  0.12401127429E+03  0.47000000000E+01 0. -1.
        -11    1    4    4    0    0 -0.42628147835E+02  0.35647454867E+02  0.34040056469E+02  0.65166137454E+02  0.00000000000E+00 0.  1.
         11    1    4    4    0    0 -0.40553671843E+02  0.28837497605E+02  0.21124687290E+03  0.21702866833E+03  0.00000000000E+00 0. -1.
<mgrwt>
<rscale>  0 0.15708281E+03</rscale>
<asrwt>0</asrwt>
<pdfrwt beam="1">  1        2 0.70186203E-01 0.16341195E+03</pdfrwt>
<pdfrwt beam="2">  1       -2 0.81752721E-02 0.16341195E+03</pdfrwt>
<totfact> 0.61144666E+03</totfact>
</mgrwt>
</event>
<event>
 8    1  0.1154424E-005  0.1637991E+03  0.7546771E-02  0.1191720E+00
         -3   -1    0    0    0  501 -0.00000000000E+00  0.00000000000E+00  0.16465153721E+03  0.16465153721E+03  0.00000000000E+00 0.  1.
          3   -1    0    0  501    0  0.00000000000E+00 -0.00000000000E+00 -0.14198086868E+03  0.14198086868E+03  0.00000000000E+00 0. -1.
         23    2    1    2    0    0  0.99404342851E+02  0.36389941611E+02  0.31745647149E+02  0.16684704985E+03  0.12499880281E+03 0.  0.
         23    2    1    2    0    0 -0.99404342851E+02 -0.36389941611E+02 -0.90749786131E+01  0.13978535604E+03  0.90841286310E+02 0.  0.
          5    1    3    3  502    0 -0.29522088715E+01  0.38193245367E+02  0.49575577603E+02  0.62827282477E+02  0.47000000000E+01 0.  1.
         -5    1    3    3    0  502  0.10235655172E+03 -0.18033037561E+01 -0.17829930453E+02  0.10401976738E+03  0.47000000000E+01 0.  1.
        -11    1    4    4    0    0 -0.20223779033E+02  0.13463578852E+02 -0.35079348986E+02  0.42671183709E+02  0.00000000000E+00 0. -1.
         11    1    4    4    0    0 -0.79180563818E+02 -0.49853520463E+02  0.26004370373E+02  0.97114172331E+02  0.00000000000E+00 0.  1.
<mgrwt>
<rscale>  0 0.15735111E+03</rscale>
<asrwt>0</asrwt>
<pdfrwt beam="2">  1        3 0.21843211E-01 0.16379912E+03</pdfrwt>
<pdfrwt beam="1">  1       -3 0.25331006E-01 0.16379912E+03</pdfrwt>
<totfact> 0.66863945E+02</totfact>
</mgrwt>
</event>
<event>
 8    1  0.1154424E-005  0.1418604E+03  0.7546771E-02  0.1221014E+00
          2   -1    0    0  501    0  0.00000000000E+00  0.00000000000E+00  0.63602556113E+03  0.63602556113E+03  0.00000000000E+00 0.  1.
         -2   -1    0    0    0  501 -0.00000000000E+00 -0.00000000000E+00 -0.28350331965E+02  0.28350331965E+02  0.00000000000E+00 0. -1.
         23    2    1    2    0    0 -0.85552575891E+01 -0.66369134364E+02  0.23467841376E+03  0.27422311739E+03  0.12508519417E+03 0.  0.
         23    2    1    2    0    0  0.85552575891E+01  0.66369134364E+02  0.37299681540E+03  0.39015277570E+03  0.92814382800E+02 0.  0.
          5    1    3    3  502    0 -0.60832840762E+01 -0.73970636293E+02  0.24748190625E+03  0.25841448353E+03  0.47000000000E+01 0.  1.
         -5    1    3    3    0  502 -0.24719735130E+01  0.76015019281E+01 -0.12803492491E+02  0.15808633862E+02  0.47000000000E+01 0.  1.
        -11    1    4    4    0    0 -0.31450808390E+02  0.45607308808E+02  0.10831485466E+03  0.12166054293E+03  0.00000000000E+00 0. -1.
         11    1    4    4    0    0  0.40006065979E+02  0.20761825556E+02  0.26468196074E+03  0.26849223277E+03  0.00000000000E+00 0.  1.
<mgrwt>
<rscale>  0 0.13443857E+03</rscale>
<asrwt>0</asrwt>
<pdfrwt beam="1">  1        2 0.97850075E-01 0.14186035E+03</pdfrwt>
<pdfrwt beam="2">  1       -2 0.43615900E-02 0.14186035E+03</pdfrwt>
<totfact> 0.10869829E+04</totfact>
</mgrwt>
</event>
<event>
 8    1  0.1154424E-005  0.1263870E+03  0.7546771E-02  0.1247413E+00
         -2   -1    0    0    0  501 -0.00000000000E+00  0.00000000000E+00  0.45699682832E+02  0.45699682832E+02  0.00000000000E+00 0. -1.
          2   -1    0    0  501    0  0.00000000000E+00 -0.00000000000E+00 -0.34504299498E+03  0.34504299498E+03  0.00000000000E+00 0.  1.
         23    2    1    2    0    0  0.32174049796E+01  0.18398841418E+02 -0.73856210136E+02  0.14638446633E+03  0.12499921258E+03 0.  0.
         23    2    1    2    0    0 -0.32174049796E+01 -0.18398841418E+02 -0.22548710201E+03  0.24435821149E+03  0.92291024953E+02 0.  0.
          5    1    3    3  502    0  0.83283428651E+01 -0.53962246043E+01 -0.10556634280E+03  0.10613587173E+03  0.47000000000E+01 0.  1.
         -5    1    3    3    0  502 -0.51109378856E+01  0.23795066022E+02  0.31710132668E+02  0.40248594595E+02  0.47000000000E+01 0.  1.
        -11    1    4    4    0    0  0.30536007284E+02 -0.36862973244E+02 -0.17156550018E+03  0.17811807148E+03  0.00000000000E+00 0.  1.
         11    1    4    4    0    0 -0.33753412263E+02  0.18464131826E+02 -0.53921601838E+02  0.66240140008E+02  0.00000000000E+00 0. -1.
<mgrwt>
<rscale>  0 0.11742101E+03</rscale>
<asrwt>0</asrwt>
<pdfrwt beam="2">  1        2 0.53083540E-01 0.12638699E+03</pdfrwt>
<pdfrwt beam="1">  1       -2 0.70307201E-02 0.12638699E+03</pdfrwt>
<totfact> 0.10235351E+04</totfact>
</mgrwt>
</event>
<event>
 8    1  0.1154424E-005  0.2247719E+03  0.7546771E-02  0.1133547E+00
          2   -1    0    0  501    0  0.00000000000E+00  0.00000000000E+00  0.73944486878E+03  0.73944486878E+03  0.00000000000E+00 0. -1.
         -2   -1    0    0    0  501 -0.00000000000E+00 -0.00000000000E+00 -0.67565473904E+02  0.67565473904E+02  0.00000000000E+00 0.  1.
         23    2    1    2    0    0  0.13581944861E+03 -0.12825652900E+03  0.24703753315E+03  0.33399092224E+03  0.12500293396E+03 0.  0.
         23    2    1    2    0    0 -0.13581944861E+03  0.12825652900E+03  0.42484186172E+03  0.47301942044E+03  0.91433608687E+02 0.  0.
          5    1    3    3  502    0  0.68970288546E+02  0.50328593535E+01  0.11746445808E+03  0.13638995303E+03  0.47000000000E+01 0. -1.
         -5    1    3    3    0  502  0.66849160063E+02 -0.13328938835E+03  0.12957307507E+03  0.19760096921E+03  0.47000000000E+01 0. -1.
        -11    1    4    4    0    0 -0.70402106705E+02  0.85968386754E+02  0.14583963503E+03  0.18334726421E+03  0.00000000000E+00 0.  1.
         11    1    4    4    0    0 -0.65417341904E+02  0.42288142241E+02  0.27900222669E+03  0.28967215623E+03  0.00000000000E+00 0. -1.
<mgrwt>
<rscale>  0 0.22045158E+03</rscale>
<asrwt>0</asrwt>
<pdfrwt beam="1">  1        2 0.11376074E+00 0.22477187E+03</pdfrwt>
<pdfrwt beam="2">  1       -2 0.10394689E-01 0.22477187E+03</pdfrwt>
<totfact> 0.24316643E+03</totfact>
</mgrwt>
</event>
<event>
 8    1  0.1154424E-005  0.1509419E+03  0.7546771E-02  0.1206280E+00
          1   -1    0    0  501    0  0.00000000000E+00  0.00000000000E+00  0.60877249555E+03  0.60877249555E+03  0.00000000000E+00 0. -1.
         -1   -1    0    0    0  501 -0.00000000000E+00 -0.00000000000E+00 -0.34903148482E+02  0.34903148482E+02  0.00000000000E+00 0.  1.
         23    2    1    2    0    0  0.78733768181E+02 -0.31019489948E+02  0.22062262671E+03  0.26731591678E+03  0.12498896328E+03 0.  0.
         23    2    1    2    0    0 -0.78733768181E+02  0.31019489948E+02  0.35324672036E+03  0.37635972725E+03  0.98499664175E+02 0.  0.
          5    1    3    3  502    0  0.17119675760E+01 -0.37083631643E+02  0.17174063662E+03  0.17576991448E+03  0.47000000000E+01 0. -1.
         -5    1    3    3    0  502  0.77021800605E+02  0.60641416949E+01  0.48881990088E+02  0.91546002304E+02  0.47000000000E+01 0. -1.
        -11    1    4    4    0    0 -0.60972753936E+02  0.65759250860E+02  0.22174670174E+03  0.23919355244E+03  0.00000000000E+00 0.  1.
         11    1    4    4    0    0 -0.17761014245E+02 -0.34739760912E+02  0.13150001862E+03  0.13716617481E+03  0.00000000000E+00 0. -1.
<mgrwt>
<rscale>  0 0.14537023E+03</rscale>
<asrwt>0</asrwt>
<pdfrwt beam="1">  1        1 0.93657300E-01 0.15094190E+03</pdfrwt>
<pdfrwt beam="2">  1       -1 0.53697156E-02 0.15094190E+03</pdfrwt>
<totfact> 0.52904204E+03</totfact>
</mgrwt>
</event>
<event>
 8    1  0.1154424E-005  0.1328976E+03  0.7546771E-02  0.1236393E+00
         -2   -1    0    0    0  501 -0.00000000000E+00  0.00000000000E+00  0.14521738783E+03  0.14521738783E+03  0.00000000000E+00 0. -1.
          2   -1    0    0  501    0  0.00000000000E+00 -0.00000000000E+00 -0.94518310235E+02  0.94518310235E+02  0.00000000000E+00 0.  1.
         23    2    1    2    0    0 -0.33682576618E+02 -0.30064253533E+02  0.24108273511E+02  0.13506661906E+03  0.12499362953E+03 0.  0.
         23    2    1    2    0    0  0.33682576618E+02  0.30064253533E+02  0.26590804080E+02  0.10466907900E+03  0.90609988025E+02 0.  0.
          5    1    3    3  502    0  0.22937510494E+02 -0.51553703560E+02  0.43391734791E+02  0.71336150629E+02  0.47000000000E+01 0. -1.
         -5    1    3    3    0  502 -0.56620087112E+02  0.21489450027E+02 -0.19283461280E+02  0.63730468427E+02  0.47000000000E+01 0. -1.
        -11    1    4    4    0    0  0.30908349794E+02 -0.26965026658E+02 -0.14819053086E+01  0.41044302808E+02  0.00000000000E+00 0.  1.
         11    1    4    4    0    0  0.27742268233E+01  0.57029280191E+02  0.28072709389E+02  0.63624776197E+02  0.00000000000E+00 0. -1.
<mgrwt>
<rscale>  0 0.12415686E+03</rscale>
<asrwt>0</asrwt>
<pdfrwt beam="2">  1        2 0.14541279E-01 0.13289764E+03</pdfrwt>
<pdfrwt beam="1">  1       -2 0.22341137E-01 0.13289764E+03</pdfrwt>
<totfact> 0.66330376E+03</totfact>
</mgrwt>
</event>
<event>
 8    1  0.1154424E-005  0.2132224E+03  0.7546771E-02  0.1142747E+00
          2   -1    0    0  501    0  0.00000000000E+00  0.00000000000E+00  0.13870173772E+04  0.13870173772E+04  0.00000000000E+00 0. -1.
         -2   -1    0    0    0  501 -0.00000000000E+00 -0.00000000000E+00 -0.32737410687E+02  0.32737410687E+02  0.00000000000E+00 0.  1.
         23    2    1    2    0    0 -0.16945196836E+03  0.33535838079E+02  0.50120002858E+03  0.54466987390E+03  0.12500072349E+03 0.  0.
         23    2    1    2    0    0  0.16945196836E+03 -0.33535838079E+02  0.85307993797E+03  0.87508491402E+03  0.90496431756E+02 0.  0.
          5    1    3    3  502    0 -0.21149259897E+02 -0.27633166915E+02  0.27743164558E+02  0.44751047894E+02  0.47000000000E+01 0.  1.
         -5    1    3    3    0  502 -0.14830270846E+03  0.61169004993E+02  0.47345686402E+03  0.49991882601E+03  0.47000000000E+01 0.  1.
        -11    1    4    4    0    0  0.14868100818E+02  0.25378162291E+02  0.14220452015E+03  0.14521445208E+03  0.00000000000E+00 0.  1.
         11    1    4    4    0    0  0.15458386754E+03 -0.58914000369E+02  0.71087541783E+03  0.72987046194E+03  0.00000000000E+00 0. -1.
<mgrwt>
<rscale>  0 0.20851530E+03</rscale>
<asrwt>0</asrwt>
<pdfrwt beam="1">  1        2 0.21338724E+00 0.21322243E+03</pdfrwt>
<pdfrwt beam="2">  1       -2 0.50365258E-02 0.21322243E+03</pdfrwt>
<totfact> 0.30359680E+03</totfact>
</mgrwt>
</event>
<event>
 8    1  0.1154424E-005  0.1252602E+03  0.7546771E-02  0.1251635E+00
          1   -1    0    0  501    0  0.00000000000E+00  0.00000000000E+00  0.58829264408E+02  0.58829264408E+02  0.00000000000E+00 0. -1.
         -1   -1    0    0    0  501 -0.00000000000E+00 -0.00000000000E+00 -0.20727797141E+03  0.20727797141E+03  0.00000000000E+00 0.  1.
         23    2    1    2    0    0  0.17590853887E+01 -0.77438299409E+01 -0.11814604090E+03  0.17218771547E+03  0.12500824410E+03 0.  0.
         23    2    1    2    0    0 -0.17590853887E+01  0.77438299409E+01 -0.30302666103E+02  0.93919520356E+02  0.88541309270E+02 0.  0.
          5    1    3    3  502    0  0.50355186617E+02 -0.40422148575E+02 -0.76253697423E+02  0.10003155145E+03  0.47000000000E+01 0. -1.
         -5    1    3    3    0  502 -0.48596101228E+02  0.32678318634E+02 -0.41892343479E+02  0.72156164016E+02  0.47000000000E+01 0. -1.
        -11    1    4    4    0    0  0.17292376492E+01 -0.27145207508E+02 -0.47598929415E+02  0.54822537655E+02  0.00000000000E+00 0.  1.
         11    1    4    4    0    0 -0.34883230379E+01  0.34889037449E+02  0.17296263312E+02  0.39096982700E+02  0.00000000000E+00 0. -1.
<mgrwt>
<rscale>  0 0.11496914E+03</rscale>
<asrwt>0</asrwt>
<pdfrwt beam="1">  1        1 0.90506561E-02 0.12526022E+03</pdfrwt>
<pdfrwt beam="2">  1       -1 0.31888919E-01 0.12526022E+03</pdfrwt>
<totfact> 0.63726544E+03</totfact>
</mgrwt>
</event>
<event>
 8    1  0.1154424E-005  0.1674409E+03  0.7546771E-02  0.1187305E+00
         -2   -1    0    0    0  501 -0.00000000000E+00  0.00000000000E+00  0.29238335635E+02  0.29238335635E+02  0.00000000000E+00 0.  1.
          2   -1    0    0  501    0  0.00000000000E+00 -0.00000000000E+00 -0.95581084757E+03  0.95581084757E+03  0.00000000000E+00 0. -1.
         23    2    1    2    0    0 -0.58968580739E+02  0.94512232111E+02 -0.31477837869E+03  0.35654158130E+03  0.12500646371E+03 0.  0.
         23    2    1    2    0    0  0.58968580739E+02 -0.94512232111E+02 -0.61179413325E+03  0.62850760191E+03  0.91213423643E+02 0.  0.
          5    1    3    3  502    0 -0.64711763378E+02  0.13650375332E+02 -0.61021676777E+02  0.90109267575E+02  0.47000000000E+01 0. -1.
         -5    1    3    3    0  502  0.57431826392E+01  0.80861856779E+02 -0.25375670191E+03  0.26643231372E+03  0.47000000000E+01 0. -1.
        -11    1    4    4    0    0  0.73395700699E+02 -0.57585877019E+02 -0.52313948513E+03  0.53139249431E+03  0.00000000000E+00 0.  1.
         11    1    4    4    0    0 -0.14427119960E+02 -0.36926355092E+02 -0.88654648121E+02  0.97115107600E+02  0.00000000000E+00 0. -1.
<mgrwt>
<rscale>  0 0.16123915E+03</rscale>
<asrwt>0</asrwt>
<pdfrwt beam="2">  1        2 0.14704780E+00 0.16744095E+03</pdfrwt>
<pdfrwt beam="1">  1       -2 0.44982060E-02 0.16744095E+03</pdfrwt>
<totfact> 0.63078651E+03</totfact>
</mgrwt>
</event>
<event>
 8    1  0.1154424E-005  0.1350732E+03  0.7546771E-02  0.1233959E+00
         -2   -1    0    0    0  501 -0.00000000000E+00  0.00000000000E+00  0.37562542321E+02  0.37562542321E+02  0.00000000000E+00 0.  1.
          2   -1    0    0  501    0  0.00000000000E+00 -0.00000000000E+00 -0.37242556479E+03  0.37242556479E+03  0.00000000000E+00 0. -1.
         23    2    1    2    0    0  0.80055266718E+01 -0.50567412904E+02 -0.19803598159E+03  0.23971447466E+03  0.12499451049E+03 0.  0.
         23    2    1    2    0    0 -0.80055266718E+01  0.50567412904E+02 -0.13682704088E+03  0.17027363245E+03  0.87466102506E+02 0.  0.
          5    1    3    3  502    0 -0.23139673536E+02 -0.65893063844E+02 -0.19175045802E+03  0.20412659921E+03  0.47000000000E+01 0.  1.
         -5    1    3    3    0  502  0.31145200208E+02  0.15325650941E+02 -0.62855235746E+01  0.35587875454E+02  0.47000000000E+01 0.  1.
        -11    1    4    4    0    0 -0.38975766841E+02  0.20211344392E+02 -0.25440297321E+02  0.50742660265E+02  0.00000000000E+00 0.  1.
         11    1    4    4    0    0  0.30970240169E+02  0.30356068511E+02 -0.11138674356E+03  0.11953097219E+03  0.00000000000E+00 0. -1.
<mgrwt>
<rscale>  0 0.12571325E+03</rscale>
<asrwt>0</asrwt>
<pdfrwt beam="2">  1        2 0.57296243E-01 0.13507324E+03</pdfrwt>
<pdfrwt beam="1">  1       -2 0.57788524E-02 0.13507324E+03</pdfrwt>
<totfact> 0.12781615E+04</totfact>
</mgrwt>
</event>
<event>
 8    1  0.1154424E-005  0.2116150E+03  0.7546771E-02  0.1143803E+00
         -3   -1    0    0    0  501 -0.00000000000E+00  0.00000000000E+00  0.27579308354E+03  0.27579308354E+03  0.00000000000E+00 0.  1.
          3   -1    0    0  501    0  0.00000000000E+00 -0.00000000000E+00 -0.15355283700E+03  0.15355283700E+03  0.00000000000E+00 0. -1.
         23    2    1    2    0    0 -0.16330695185E+03  0.49867270910E+02  0.98453349945E+02  0.23339658737E+03  0.12499999859E+03 0.  0.
         23    2    1    2    0    0  0.16330695185E+03 -0.49867270910E+02  0.23786896598E+02  0.19594933318E+03  0.93136563660E+02 0.  0.
          5    1    3    3  502    0 -0.14789569750E+03  0.20613749272E+02  0.12170934067E+03  0.19270007162E+03  0.47000000000E+01 0.  1.
         -5    1    3    3    0  502 -0.15411254358E+02  0.29253521638E+02 -0.23255990724E+02  0.40696515744E+02  0.47000000000E+01 0.  1.
        -11    1    4    4    0    0  0.57980134913E+02 -0.46501296968E+02 -0.26861503149E+02  0.79029152948E+02  0.00000000000E+00 0. -1.
         11    1    4    4    0    0  0.10532681694E+03 -0.33659739415E+01  0.50648399747E+02  0.11692018023E+03  0.00000000000E+00 0.  1.
<mgrwt>
<rscale>  0 0.20720004E+03</rscale>
<asrwt>0</asrwt>
<pdfrwt beam="2">  1        3 0.23623513E-01 0.21161499E+03</pdfrwt>
<pdfrwt beam="1">  1       -3 0.42429705E-01 0.21161499E+03</pdfrwt>
<totfact> 0.22638725E+02</totfact>
</mgrwt>
</event>
<event>
 7    1  0.1154424E-005  0.2008952E+03  0.7546771E-02  0.1173759E+00
          1   -1    0    0  501    0  0.00000000000E+00  0.00000000000E+00  0.84180195582E+02  0.84180195582E+02  0.00000000000E+00 0. -1.
         -1   -1    0    0    0  501 -0.00000000000E+00 -0.00000000000E+00 -0.29960523638E+03  0.29960523638E+03  0.00000000000E+00 0.  1.
         23    2    1    2    0    0  0.43085653701E+02  0.10478484943E+02 -0.50111202117E+02  0.12361710764E+03  0.10394173619E+03 0.  0.
          5    1    1    2  502    0 -0.46020695060E+02  0.72443663756E+02 -0.13378540141E+02  0.86988873590E+02  0.47000000000E+01 0. -1.
         -5    1    1    2    0  502  0.29350413589E+01 -0.82922148699E+02 -0.15193529854E+03  0.17317945073E+03  0.47000000000E+01 0.  1.
        -11    1    3    3    0    0  0.57825748478E+02 -0.27644641941E+02 -0.74333848267E+01  0.64523628425E+02  0.00000000000E+00 0.  1.
         11    1    3    3    0    0 -0.14740094777E+02  0.38123126884E+02 -0.42677817291E+02  0.59093479219E+02  0.00000000000E+00 0. -1.
<mgrwt>
<rscale>  0 0.17398080E+03</rscale>
<asrwt>0</asrwt>
<pdfrwt beam="1">  1        1 0.12950800E-01 0.20089523E+03</pdfrwt>
<pdfrwt beam="2">  1       -1 0.46093112E-01 0.20089523E+03</pdfrwt>
<totfact> 0.21350990E+03</totfact>
</mgrwt>
</event>
<event>
 8    1  0.1154424E-005  0.1267893E+03  0.7546771E-02  0.1246703E+00
          2   -1    0    0  501    0  0.00000000000E+00  0.00000000000E+00  0.20798246771E+03  0.20798246771E+03  0.00000000000E+00 0. -1.
         -2   -1    0    0    0  501 -0.00000000000E+00 -0.00000000000E+00 -0.59657034399E+02  0.59657034399E+02  0.00000000000E+00 0.  1.
         23    2    1    2    0    0  0.18791272150E+02  0.98499982505E+01  0.70086595632E+02  0.14487119590E+03  0.12500159255E+03 0.  0.
         23    2    1    2    0    0 -0.18791272150E+02 -0.98499982505E+01  0.78238837680E+02  0.12276830621E+03  0.92198735960E+02 0.  0.
          5    1    3    3  502    0  0.14312987212E+02  0.59359575397E+02  0.72469899370E+02  0.94880962837E+02  0.47000000000E+01 0. -1.
         -5    1    3    3    0  502  0.44782849387E+01 -0.49509577147E+02 -0.23833037381E+01  0.49990233065E+02  0.47000000000E+01 0. -1.
        -11    1    4    4    0    0 -0.10983982245E+01 -0.49591745087E+02  0.30729639524E+02  0.58351164553E+02  0.00000000000E+00 0.  1.
         11    1    4    4    0    0 -0.17692873926E+02  0.39741746836E+02  0.47509198156E+02  0.64417141653E+02  0.00000000000E+00 0. -1.
<mgrwt>
<rscale>  0 0.11784045E+03</rscale>
<asrwt>0</asrwt>
<pdfrwt beam="1">  1        2 0.31997302E-01 0.12678932E+03</pdfrwt>
<pdfrwt beam="2">  1       -2 0.91780054E-02 0.12678932E+03</pdfrwt>
<totfact> 0.11619694E+04</totfact>
</mgrwt>
</event>
<event>
 8    1  0.1154424E-005  0.1386264E+03  0.7546771E-02  0.1227574E+00
         -2   -1    0    0    0  501 -0.00000000000E+00  0.00000000000E+00  0.73532023415E+02  0.73532023415E+02  0.00000000000E+00 0.  1.
          2   -1    0    0  501    0  0.00000000000E+00 -0.00000000000E+00 -0.22159520336E+03  0.22159520336E+03  0.00000000000E+00 0. -1.
         23    2    1    2    0    0 -0.37393614934E+02 -0.46854167839E+02 -0.42838533444E+02  0.14509455055E+03  0.12499477258E+03 0.  0.
         23    2    1    2    0    0  0.37393614934E+02  0.46854167839E+02 -0.10522464650E+03  0.15003267622E+03  0.88566258933E+02 0.  0.
          5    1    3    3  502    0 -0.24810535276E+02 -0.89584919171E+02 -0.21735062988E+02  0.95579931820E+02  0.47000000000E+01 0.  1.
         -5    1    3    3    0  502 -0.12583079657E+02  0.42730751333E+02 -0.21103470456E+02  0.49514618735E+02  0.47000000000E+01 0.  1.
        -11    1    4    4    0    0 -0.13465062972E+02 -0.85596563836E+01  0.48842449419E+01  0.16686266416E+02  0.00000000000E+00 0.  1.
         11    1    4    4    0    0  0.50858677906E+02  0.55413824222E+02 -0.11010889145E+03  0.13334640981E+03  0.00000000000E+00 0. -1.
<mgrwt>
<rscale>  0 0.12992009E+03</rscale>
<asrwt>0</asrwt>
<pdfrwt beam="2">  1        2 0.34091569E-01 0.13862644E+03</pdfrwt>
<pdfrwt beam="1">  1       -2 0.11312619E-01 0.13862644E+03</pdfrwt>
<totfact> 0.78657561E+03</totfact>
</mgrwt>
</event>
<event>
 8    1  0.1154424E-005  0.3352277E+03  0.7546771E-02  0.1070072E+00
          1   -1    0    0  501    0  0.00000000000E+00  0.00000000000E+00  0.44461616111E+03  0.44461616111E+03  0.00000000000E+00 0. -1.
         -1   -1    0    0    0  501 -0.00000000000E+00 -0.00000000000E+00 -0.25530305793E+03  0.25530305793E+03  0.00000000000E+00 0.  1.
         23    2    1    2    0    0 -0.29614847861E+03 -0.95126012338E+02  0.24037311993E+02  0.33608839998E+03  0.12499896252E+03 0.  0.
         23    2    1    2    0    0  0.29614847861E+03  0.95126012338E+02  0.16527579119E+03  0.36383081905E+03  0.91125727061E+02 0.  0.
          5    1    3    3  502    0 -0.15284537194E+03  0.16052907479E+02  0.13443287102E+02  0.15434447035E+03  0.47000000000E+01 0.  1.
         -5    1    3    3    0  502 -0.14330310667E+03 -0.11117891982E+03  0.10594024891E+02  0.18174392963E+03  0.47000000000E+01 0.  1.
        -11    1    4    4    0    0  0.16229776215E+03  0.98474922280E+02  0.88033618991E+02  0.20925532727E+03  0.00000000000E+00 0.  1.
         11    1    4    4    0    0  0.13385071646E+03 -0.33489099421E+01  0.77242172201E+02  0.15457549178E+03  0.00000000000E+00 0. -1.
<mgrwt>
<rscale>  0 0.33241679E+03</rscale>
<asrwt>0</asrwt>
<pdfrwt beam="1">  1        1 0.68402486E-01 0.33522771E+03</pdfrwt>
<pdfrwt beam="2">  1       -1 0.39277393E-01 0.33522771E+03</pdfrwt>
<totfact> 0.33754984E+02</totfact>
</mgrwt>
</event>
<event>
 8    1  0.1154424E-005  0.1322356E+03  0.7546771E-02  0.1236368E+00
         -1   -1    0    0    0  501 -0.00000000000E+00  0.00000000000E+00  0.41507546743E+03  0.41507546743E+03  0.00000000000E+00 0.  1.
          1   -1    0    0  501    0  0.00000000000E+00 -0.00000000000E+00 -0.34023929272E+02  0.34023929272E+02  0.00000000000E+00 0. -1.
         23    2    1    2    0    0  0.29031682471E+02 -0.31913241439E+02  0.18082827476E+03  0.22402034518E+03  0.12499982614E+03 0.  0.
         23    2    1    2    0    0 -0.29031682471E+02  0.31913241439E+02  0.20022326340E+03  0.22507905153E+03  0.93327009295E+02 0.  0.
          5    1    3    3  502    0 -0.46340048660E+02 -0.20921687083E+01  0.95281127562E+02  0.10607714433E+03  0.47000000000E+01 0. -1.
         -5    1    3    3    0  502  0.75371731131E+02 -0.29821072730E+02  0.85547147200E+02  0.11794320085E+03  0.47000000000E+01 0. -1.
        -11    1    4    4    0    0 -0.14302871562E+02 -0.60552174413E+01 -0.46376190256E+01  0.16209420206E+02  0.00000000000E+00 0. -1.
         11    1    4    4    0    0 -0.14728810909E+02  0.37968458880E+02  0.20486088242E+03  0.20886963132E+03  0.00000000000E+00 0.  1.
<mgrwt>
<rscale>  0 0.12417293E+03</rscale>
<asrwt>0</asrwt>
<pdfrwt beam="2">  1        1 0.52344509E-02 0.13223559E+03</pdfrwt>
<pdfrwt beam="1">  1       -1 0.63857761E-01 0.13223559E+03</pdfrwt>
<totfact> 0.38487304E+03</totfact>
</mgrwt>
</event>
<event>
 8    1  0.1154424E-005  0.1571675E+03  0.7546771E-02  0.1199496E+00
          2   -1    0    0  501    0  0.00000000000E+00  0.00000000000E+00  0.16267643673E+03  0.16267643673E+03  0.00000000000E+00 0.  1.
         -2   -1    0    0    0  501 -0.00000000000E+00 -0.00000000000E+00 -0.14824067588E+03  0.14824067588E+03  0.00000000000E+00 0. -1.
         23    2    1    2    0    0 -0.93001714001E+01 -0.94818688620E+02 -0.47268063410E+02  0.16412159462E+03  0.12499820440E+03 0.  0.
         23    2    1    2    0    0  0.93001714001E+01  0.94818688620E+02  0.61703824256E+02  0.14679551799E+03  0.93083216928E+02 0.  0.
          5    1    3    3  502    0 -0.29579669244E+02  0.14707013637E+02  0.14822546760E+02  0.36510970614E+02  0.47000000000E+01 0.  1.
         -5    1    3    3    0  502  0.20279497844E+02 -0.10952570226E+03 -0.62090610170E+02  0.12761062401E+03  0.47000000000E+01 0.  1.
        -11    1    4    4    0    0 -0.23065009260E+02  0.36602880939E+02  0.67242178356E+02  0.79957964552E+02  0.00000000000E+00 0.  1.
         11    1    4    4    0    0  0.32365180660E+02  0.58215807681E+02 -0.55383540999E+01  0.66837553436E+02  0.00000000000E+00 0. -1.
<mgrwt>
<rscale>  0 0.15079817E+03</rscale>
<asrwt>0</asrwt>
<pdfrwt beam="1">  1        2 0.25027144E-01 0.15716752E+03</pdfrwt>
<pdfrwt beam="2">  1       -2 0.22806258E-01 0.15716752E+03</pdfrwt>
<totfact> 0.34836576E+03</totfact>
</mgrwt>
</event>
<event>
 7    1  0.1154424E-005  0.1403888E+03  0.7546771E-02  0.1227631E+00
          1   -1    0    0  501    0  0.00000000000E+00  0.00000000000E+00  0.65508191558E+03  0.65508191558E+03  0.00000000000E+00 0. -1.
         -1   -1    0    0    0  501 -0.00000000000E+00 -0.00000000000E+00 -0.23290533817E+02  0.23290533817E+02  0.00000000000E+00 0.  1.
         23    2    1    2    0    0  0.48587761999E+02  0.18688310926E+02  0.32722853877E+03  0.34301065438E+03  0.88700444512E+02 0.  0.
          5    1    1    2  502    0  0.30679002541E+02 -0.27680749375E+01  0.20341076777E+03  0.20578360935E+03  0.47000000000E+01 0. -1.
         -5    1    1    2    0  502 -0.79266764540E+02 -0.15920235988E+02  0.10115207523E+03  0.12957818565E+03  0.47000000000E+01 0.  1.
        -11    1    3    3    0    0  0.21471140774E+02 -0.33031171415E+02  0.82679955873E+02  0.91586261384E+02  0.00000000000E+00 0.  1.
         11    1    3    3    0    0  0.27116621226E+02  0.51719482341E+02  0.24454858289E+03  0.25142439300E+03  0.00000000000E+00 0. -1.
<mgrwt>
<rscale>  0 0.12988191E+03</rscale>
<asrwt>0</asrwt>
<pdfrwt beam="1">  1        1 0.10078182E+00 0.14038878E+03</pdfrwt>
<pdfrwt beam="2">  1       -1 0.35831595E-02 0.14038878E+03</pdfrwt>
<totfact> 0.86472562E+03</totfact>
</mgrwt>
</event>
<event>
 8    1  0.1154424E-005  0.1963949E+03  0.7546771E-02  0.1157414E+00
          2   -1    0    0  501    0  0.00000000000E+00  0.00000000000E+00  0.32984764134E+03  0.32984764134E+03  0.00000000000E+00 0. -1.
         -2   -1    0    0    0  501 -0.00000000000E+00 -0.00000000000E+00 -0.13702917717E+03  0.13702917717E+03  0.00000000000E+00 0.  1.
         23    2    1    2    0    0  0.10347294161E+03 -0.11067885200E+03 -0.11842170795E+02  0.19675161816E+03  0.12495801020E+03 0.  0.
         23    2    1    2    0    0 -0.10347294161E+03  0.11067885200E+03  0.20466063497E+03  0.27012520035E+03  0.90139838214E+02 0.  0.
          5    1    3    3  502    0  0.22357856868E+02 -0.11178342945E+03  0.30721832179E+01  0.11413560869E+03  0.47000000000E+01 0.  1.
         -5    1    3    3    0  502  0.81115084744E+02  0.11045774454E+01 -0.14914354013E+02  0.82616009465E+02  0.47000000000E+01 0.  1.
        -11    1    4    4    0    0 -0.10474274812E+03  0.51189059994E+02  0.12911805682E+03  0.17396216757E+03  0.00000000000E+00 0. -1.
         11    1    4    4    0    0  0.12698065073E+01  0.59489792006E+02  0.75542578144E+02  0.96163032784E+02  0.00000000000E+00 0.  1.
<mgrwt>
<rscale>  0 0.19116601E+03</rscale>
<asrwt>0</asrwt>
<pdfrwt beam="1">  1        2 0.50745791E-01 0.19639491E+03</pdfrwt>
<pdfrwt beam="2">  1       -2 0.21081412E-01 0.19639491E+03</pdfrwt>
<totfact> 0.18729524E+03</totfact>
</mgrwt>
</event>
<event>
 8    1  0.1154424E-005  0.1963216E+03  0.7546771E-02  0.1158163E+00
         -3   -1    0    0    0  501 -0.00000000000E+00  0.00000000000E+00  0.12963689992E+03  0.12963689992E+03  0.00000000000E+00 0.  1.
          3   -1    0    0  501    0  0.00000000000E+00 -0.00000000000E+00 -0.26399454613E+03  0.26399454613E+03  0.00000000000E+00 0. -1.
         23    2    1    2    0    0 -0.14983831042E+03  0.21628557616E+02 -0.64332417040E+02  0.20659343069E+03  0.12499148749E+03 0.  0.
         23    2    1    2    0    0  0.14983831042E+03 -0.21628557616E+02 -0.70025229173E+02  0.18703801536E+03  0.84618985418E+02 0.  0.
          5    1    3    3  502    0 -0.59560878416E+02  0.12415709071E+02  0.36302636847E+02  0.71004362622E+02  0.47000000000E+01 0. -1.
         -5    1    3    3    0  502 -0.90277432009E+02  0.92128485447E+01 -0.10063505389E+03  0.13558906807E+03  0.47000000000E+01 0. -1.
        -11    1    4    4    0    0  0.11976409650E+03  0.20127462452E+02 -0.42398188928E+02  0.12863187777E+03  0.00000000000E+00 0.  1.
         11    1    4    4    0    0  0.30074213928E+02 -0.41756020067E+02 -0.27627040245E+02  0.58406137588E+02  0.00000000000E+00 0. -1.
<mgrwt>
<rscale>  0 0.19033133E+03</rscale>
<asrwt>0</asrwt>
<pdfrwt beam="2">  1        3 0.40614545E-01 0.19632164E+03</pdfrwt>
<pdfrwt beam="1">  1       -3 0.19944139E-01 0.19632164E+03</pdfrwt>
<totfact> 0.33142998E+02</totfact>
</mgrwt>
</event>
<event>
 8    1  0.1154424E-005  0.1327729E+03  0.7546771E-02  0.1237261E+00
          2   -1    0    0  501    0  0.00000000000E+00  0.00000000000E+00  0.22602098326E+03  0.22602098326E+03  0.00000000000E+00 0. -1.
         -2   -1    0    0    0  501 -0.00000000000E+00 -0.00000000000E+00 -0.60718678208E+02  0.60718678208E+02  0.00000000000E+00 0.  1.
         23    2    1    2    0    0  0.38781219385E+02  0.22339764292E+02  0.76724756364E+02  0.15334711936E+03  0.12500241091E+03 0.  0.
         23    2    1    2    0    0 -0.38781219385E+02 -0.22339764292E+02  0.88577548686E+02  0.13339254210E+03  0.89132149709E+02 0.  0.
          5    1    3    3  502    0  0.31516342766E+02 -0.30185640590E+02  0.88536326171E+02  0.98819146986E+02  0.47000000000E+01 0.  1.
         -5    1    3    3    0  502  0.72648766187E+01  0.52525404882E+02 -0.11811569807E+02  0.54527972377E+02  0.47000000000E+01 0.  1.
        -11    1    4    4    0    0 -0.56098576319E+02  0.45325853550E+01  0.83979286016E+02  0.10109458479E+03  0.00000000000E+00 0. -1.
         11    1    4    4    0    0  0.17317356934E+02 -0.26872349647E+02  0.45982626700E+01  0.32297957308E+02  0.00000000000E+00 0.  1.
<mgrwt>
<rscale>  0 0.12360808E+03</rscale>
<asrwt>0</asrwt>
<pdfrwt beam="1">  1        2 0.34772458E-01 0.13277293E+03</pdfrwt>
<pdfrwt beam="2">  1       -2 0.93413352E-02 0.13277293E+03</pdfrwt>
<totfact> 0.10378454E+04</totfact>
</mgrwt>
</event>
<event>
 8    1  0.1154424E-005  0.1446786E+03  0.7546771E-02  0.1217262E+00
          2   -1    0    0  501    0  0.00000000000E+00  0.00000000000E+00  0.38112986378E+03  0.38112986378E+03  0.00000000000E+00 0. -1.
         -2   -1    0    0    0  501 -0.00000000000E+00 -0.00000000000E+00 -0.45336158623E+02  0.45336158623E+02  0.00000000000E+00 0.  1.
         23    2    1    2    0    0 -0.70718780300E+02  0.17504034200E+02  0.16303208264E+03  0.21797101322E+03  0.12499746212E+03 0.  0.
         23    2    1    2    0    0  0.70718780300E+02 -0.17504034200E+02  0.17276162252E+03  0.20849500918E+03  0.91192398460E+02 0.  0.
          5    1    3    3  502    0  0.19734747643E+02 -0.33155396066E+02  0.61711983360E+02  0.72932842006E+02  0.47000000000E+01 0.  1.
         -5    1    3    3    0  502 -0.90453527944E+02  0.50659430267E+02  0.10132009928E+03  0.14503817122E+03  0.47000000000E+01 0.  1.
        -11    1    4    4    0    0  0.65534739603E+02 -0.36361102833E+02  0.65714464335E+02  0.99676088992E+02  0.00000000000E+00 0.  1.
         11    1    4    4    0    0  0.51840406977E+01  0.18857068633E+02  0.10704715818E+03  0.10881892019E+03  0.00000000000E+00 0. -1.
<mgrwt>
<rscale>  0 0.13711650E+03</rscale>
<asrwt>0</asrwt>
<pdfrwt beam="1">  1        2 0.58635362E-01 0.14467862E+03</pdfrwt>
<pdfrwt beam="2">  1       -2 0.69747939E-02 0.14467862E+03</pdfrwt>
<totfact> 0.94124902E+03</totfact>
</mgrwt>
</event>
<event>
 8    1  0.1154424E-005  0.1275240E+03  0.7546771E-02  0.1246412E+00
         -2   -1    0    0    0  501 -0.00000000000E+00  0.00000000000E+00  0.25824323656E+02  0.25824323656E+02  0.00000000000E+00 0.  1.
          2   -1    0    0  501    0  0.00000000000E+00 -0.00000000000E+00 -0.47441820096E+03  0.47441820096E+03  0.00000000000E+00 0. -1.
         23    2    1    2    0    0  0.23178760219E+02 -0.10035069771E+02 -0.24536426849E+03  0.27652485260E+03  0.12499764919E+03 0.  0.
         23    2    1    2    0    0 -0.23178760219E+02  0.10035069771E+02 -0.20322960881E+03  0.22371767201E+03  0.90052014545E+02 0.  0.
          5    1    3    3  502    0  0.51047762270E+02  0.29196266822E+02 -0.56923266576E+02  0.81979535903E+02  0.47000000000E+01 0.  1.
         -5    1    3    3    0  502 -0.27869002051E+02 -0.39231336593E+02 -0.18844100192E+03  0.19454531670E+03  0.47000000000E+01 0.  1.
        -11    1    4    4    0    0 -0.57871260567E+02  0.31293816665E+01 -0.13316117278E+03  0.14522662898E+03  0.00000000000E+00 0.  1.
         11    1    4    4    0    0  0.34692500348E+02  0.69056881044E+01 -0.70068436034E+02  0.78491043035E+02  0.00000000000E+00 0. -1.
<mgrwt>
<rscale>  0 0.11801259E+03</rscale>
<asrwt>0</asrwt>
<pdfrwt beam="2">  1        2 0.72987412E-01 0.12752400E+03</pdfrwt>
<pdfrwt beam="1">  1       -2 0.39729731E-02 0.12752400E+03</pdfrwt>
<totfact> 0.17193752E+04</totfact>
</mgrwt>
</event>
<event>
 8    1  0.1154424E-005  0.1676641E+03  0.7546771E-02  0.1187551E+00
         -2   -1    0    0    0  501 -0.00000000000E+00  0.00000000000E+00  0.81028608803E+02  0.81028608803E+02  0.00000000000E+00 0.  1.
          2   -1    0    0  501    0  0.00000000000E+00 -0.00000000000E+00 -0.30025255522E+03  0.30025255522E+03  0.00000000000E+00 0. -1.
         23    2    1    2    0    0 -0.76863030698E+02 -0.81110335055E+02 -0.98732362999E+02  0.19457475019E+03  0.12499776785E+03 0.  0.
         23    2    1    2    0    0  0.76863030698E+02  0.81110335055E+02 -0.12049158342E+03  0.18670641383E+03  0.88624214249E+02 0.  0.
          5    1    3    3  502    0 -0.10600026030E+03 -0.36092025538E+02 -0.53156261842E+02  0.12404179805E+03  0.47000000000E+01 0.  1.
         -5    1    3    3    0  502  0.29137229600E+02 -0.45018309518E+02 -0.45576101156E+02  0.70532952137E+02  0.47000000000E+01 0.  1.
        -11    1    4    4    0    0  0.45300533287E+02  0.66536268524E+02 -0.23774772084E+02  0.83931240506E+02  0.00000000000E+00 0.  1.
         11    1    4    4    0    0  0.31562497411E+02  0.14574066532E+02 -0.96716811334E+02  0.10277517333E+03  0.00000000000E+00 0. -1.
<mgrwt>
<rscale>  0 0.16101888E+03</rscale>
<asrwt>0</asrwt>
<pdfrwt beam="2">  1        2 0.46192701E-01 0.16766411E+03</pdfrwt>
<pdfrwt beam="1">  1       -2 0.12465940E-01 0.16766411E+03</pdfrwt>
<totfact> 0.49254164E+03</totfact>
</mgrwt>
</event>
<event>
 8    1  0.1154424E-005  0.1784486E+03  0.7546771E-02  0.1175187E+00
          2   -1    0    0  501    0  0.00000000000E+00  0.00000000000E+00  0.52961056650E+03  0.52961056650E+03  0.00000000000E+00 0.  1.
         -2   -1    0    0    0  501 -0.00000000000E+00 -0.00000000000E+00 -0.54262798526E+02  0.54262798526E+02  0.00000000000E+00 0. -1.
         23    2    1    2    0    0  0.35588351691E+02 -0.12227805876E+03  0.20582412689E+03  0.27241049036E+03  0.12500179846E+03 0.  0.
         23    2    1    2    0    0 -0.35588351691E+02  0.12227805876E+03  0.26952364108E+03  0.31146287466E+03  0.90264471200E+02 0.  0.
          5    1    3    3  502    0  0.62532067087E+02 -0.11031063771E+03  0.97427463369E+02  0.15997780104E+03  0.47000000000E+01 0. -1.
         -5    1    3    3    0  502 -0.26943715396E+02 -0.11967421047E+02  0.10839666352E+03  0.11243268932E+03  0.47000000000E+01 0. -1.
        -11    1    4    4    0    0  0.22075434240E+02  0.83901244035E+02  0.14512492520E+03  0.16907982571E+03  0.00000000000E+00 0.  1.
         11    1    4    4    0    0 -0.57663785930E+02  0.38376814724E+02  0.12439871588E+03  0.14238304896E+03  0.00000000000E+00 0. -1.
<mgrwt>
<rscale>  0 0.17257711E+03</rscale>
<asrwt>0</asrwt>
<pdfrwt beam="1">  1        2 0.81478545E-01 0.17844860E+03</pdfrwt>
<pdfrwt beam="2">  1       -2 0.83481232E-02 0.17844860E+03</pdfrwt>
<totfact> 0.50408342E+03</totfact>
</mgrwt>
</event>
<event>
 8    1  0.1154424E-005  0.1373450E+03  0.7546771E-02  0.1228742E+00
         -2   -1    0    0    0  501 -0.00000000000E+00  0.00000000000E+00  0.16294803792E+02  0.16294803792E+02  0.00000000000E+00 0.  1.
          2   -1    0    0  501    0  0.00000000000E+00 -0.00000000000E+00 -0.94818785724E+03  0.94818785724E+03  0.00000000000E+00 0. -1.
         23    2    1    2    0    0  0.25313608828E+02  0.50953944160E+02 -0.43668060325E+03  0.45777023232E+03  0.12500621235E+03 0.  0.
         23    2    1    2    0    0 -0.25313608828E+02 -0.50953944160E+02 -0.49521245020E+03  0.50671242872E+03  0.91022147657E+02 0.  0.
          5    1    3    3  502    0  0.56113608584E+02 -0.18376965985E+02 -0.15248440422E+03  0.16358494270E+03  0.47000000000E+01 0.  1.
         -5    1    3    3    0  502 -0.30799999757E+02  0.69330910145E+02 -0.28419619903E+03  0.29418528962E+03  0.47000000000E+01 0.  1.
        -11    1    4    4    0    0 -0.54388510692E+02 -0.54765423008E+02 -0.32894333151E+03  0.33787731057E+03  0.00000000000E+00 0.  1.
         11    1    4    4    0    0  0.29074901865E+02  0.38114788474E+01 -0.16626911870E+03  0.16883511815E+03  0.00000000000E+00 0. -1.
<mgrwt>
<rscale>  0 0.12913711E+03</rscale>
<asrwt>0</asrwt>
<pdfrwt beam="2">  1        2 0.14587506E+00 0.13734495E+03</pdfrwt>
<pdfrwt beam="1">  1       -2 0.25068928E-02 0.13734495E+03</pdfrwt>
<totfact> 0.14992346E+04</totfact>
</mgrwt>
</event>
<event>
 7    1  0.1154424E-005  0.1419265E+03  0.7546771E-02  0.1216132E+00
          2   -1    0    0  501    0  0.00000000000E+00  0.00000000000E+00  0.43847932207E+03  0.43847932207E+03  0.00000000000E+00 0.  1.
         -2   -1    0    0    0  501 -0.00000000000E+00 -0.00000000000E+00 -0.41832580914E+02  0.41832580914E+02  0.00000000000E+00 0. -1.
         23    2    1    2    0    0  0.13667039561E+02  0.14977952831E+02  0.15593534793E+03  0.20087477724E+03  0.12499486531E+03 0.  0.
          5    1    3    3  502    0  0.58842762810E+02  0.28901341181E+02  0.43504108532E+02  0.78819132933E+02  0.47000000000E+01 0.  1.
         -5    1    3    3    0  502 -0.45175723249E+02 -0.13923388350E+02  0.11243123940E+03  0.12205564430E+03  0.47000000000E+01 0.  1.
        -11    1    1    2    0    0  0.16873627674E+02  0.45544911925E+02  0.18624903865E+03  0.19247795384E+03  0.00000000000E+00 0.  1.
         11    1    1    2    0    0 -0.30540667236E+02 -0.60522864755E+02  0.54462354569E+02  0.86959171906E+02  0.00000000000E+00 0. -1.
<mgrwt>
<rscale>  0 0.13793698E+03</rscale>
<asrwt>0</asrwt>
<pdfrwt beam="1">  1        2 0.67458354E-01 0.14192650E+03</pdfrwt>
<pdfrwt beam="2">  1       -2 0.64357820E-02 0.14192650E+03</pdfrwt>
<totfact> 0.91453154E+03</totfact>
</mgrwt>
</event>
<event>
 8    1  0.1154424E-005  0.1423304E+03  0.7546771E-02  0.1223512E+00
         -3   -1    0    0    0  501 -0.00000000000E+00  0.00000000000E+00  0.30296768937E+02  0.30296768937E+02  0.00000000000E+00 0.  1.
          3   -1    0    0  501    0  0.00000000000E+00 -0.00000000000E+00 -0.54182416409E+03  0.54182416409E+03  0.00000000000E+00 0. -1.
         23    2    1    2    0    0  0.28817603681E+02  0.61692487976E+02 -0.22673977530E+03  0.26771041777E+03  0.12498609813E+03 0.  0.
         23    2    1    2    0    0 -0.28817603681E+02 -0.61692487976E+02 -0.28478761986E+03  0.30441051526E+03  0.83218723975E+02 0.  0.
          5    1    3    3  502    0 -0.43133882675E+02  0.52066567062E+02 -0.88195313290E+02  0.11122932404E+03  0.47000000000E+01 0. -1.
         -5    1    3    3    0  502  0.71951486356E+02  0.96259209145E+01 -0.13854446201E+03  0.15648109373E+03  0.47000000000E+01 0. -1.
        -11    1    4    4    0    0  0.92390665965E+01 -0.17445315822E+02 -0.76125835478E+01  0.21157760372E+02  0.00000000000E+00 0.  1.
         11    1    4    4    0    0 -0.38056670278E+02 -0.44247172155E+02 -0.27717503631E+03  0.28325275489E+03  0.00000000000E+00 0. -1.
<mgrwt>
<rscale>  0 0.13269401E+03</rscale>
<asrwt>0</asrwt>
<pdfrwt beam="2">  1        3 0.83357551E-01 0.14233040E+03</pdfrwt>
<pdfrwt beam="1">  1       -3 0.46610421E-02 0.14233040E+03</pdfrwt>
<totfact> 0.80952161E+02</totfact>
</mgrwt>
</event>
<event>
 8    1  0.1154424E-005  0.1415183E+03  0.7546771E-02  0.1219578E+00
          3   -1    0    0  501    0  0.00000000000E+00  0.00000000000E+00  0.93641589457E+02  0.93641589457E+02  0.00000000000E+00 0. -1.
         -3   -1    0    0    0  501 -0.00000000000E+00 -0.00000000000E+00 -0.18103485779E+03  0.18103485779E+03  0.00000000000E+00 0.  1.
         23    2    1    2    0    0 -0.54118075679E+02  0.38425563651E+02 -0.51364708771E+02  0.15055157461E+03  0.12498861250E+03 0.  0.
         23    2    1    2    0    0  0.54118075679E+02 -0.38425563651E+02 -0.36028559562E+02  0.12412487263E+03  0.98507039572E+02 0.  0.
          5    1    3    3  502    0 -0.54900568854E+02 -0.31257242920E+02 -0.49980774717E+02  0.80692351166E+02  0.47000000000E+01 0.  1.
         -5    1    3    3    0  502  0.78249317563E+00  0.69682806571E+02 -0.13839340543E+01  0.69859223447E+02  0.47000000000E+01 0.  1.
        -11    1    4    4    0    0 -0.14715049822E+02 -0.29128135119E+02 -0.43373624749E+02  0.54279390846E+02  0.00000000000E+00 0.  1.
         11    1    4    4    0    0  0.68833125501E+02 -0.92974285324E+01  0.73450651871E+01  0.69845481788E+02  0.00000000000E+00 0. -1.
<mgrwt>
<rscale>  0 0.13545540E+03</rscale>
<asrwt>0</asrwt>
<pdfrwt beam="1">  1        3 0.14406399E-01 0.14151835E+03</pdfrwt>
<pdfrwt beam="2">  1       -3 0.27851516E-01 0.14151835E+03</pdfrwt>
<totfact> 0.11370198E+03</totfact>
</mgrwt>
</event>
<event>
 8    1  0.1154424E-005  0.1419444E+03  0.7546771E-02  0.1221037E+00
         -2   -1    0    0    0  501 -0.00000000000E+00  0.00000000000E+00  0.21056934585E+03  0.21056934585E+03  0.00000000000E+00 0.  1.
          2   -1    0    0  501    0  0.00000000000E+00 -0.00000000000E+00 -0.93291622448E+02  0.93291622448E+02  0.00000000000E+00 0. -1.
         23    2    1    2    0    0  0.52217475435E+02 -0.42391001310E+02  0.12540480827E+03  0.18940588702E+03  0.12499824946E+03 0.  0.
         23    2    1    2    0    0 -0.52217475435E+02  0.42391001310E+02 -0.81270848612E+01  0.11445508128E+03  0.92251040045E+02 0.  0.
          5    1    3    3  502    0  0.62376294821E+01  0.11736750488E+02  0.11687296025E+03  0.11772016892E+03  0.47000000000E+01 0.  1.
         -5    1    3    3    0  502  0.45979845953E+02 -0.54127751799E+02  0.85318480147E+01  0.71685718098E+02  0.47000000000E+01 0.  1.
        -11    1    4    4    0    0 -0.42412933625E+02 -0.22425322606E+02  0.25184831286E+01  0.48042635127E+02  0.00000000000E+00 0.  1.
         11    1    4    4    0    0 -0.98045418099E+01  0.64816323916E+02 -0.10645567990E+02  0.66412446152E+02  0.00000000000E+00 0. -1.
<mgrwt>
<rscale>  0 0.13442287E+03</rscale>
<asrwt>0</asrwt>
<pdfrwt beam="2">  1        2 0.14352557E-01 0.14194444E+03</pdfrwt>
<pdfrwt beam="1">  1       -2 0.32395284E-01 0.14194444E+03</pdfrwt>
<totfact> 0.35069448E+03</totfact>
</mgrwt>
</event>
<event>
 8    1  0.1154424E-005  0.1522117E+03  0.7546771E-02  0.1206103E+00
          2   -1    0    0  501    0  0.00000000000E+00  0.00000000000E+00  0.22049844688E+02  0.22049844688E+02  0.00000000000E+00 0. -1.
         -2   -1    0    0    0  501 -0.00000000000E+00 -0.00000000000E+00 -0.88681480705E+03  0.88681480705E+03  0.00000000000E+00 0.  1.
         23    2    1    2    0    0  0.44154438100E+02 -0.74790147265E+02 -0.49344478831E+03  0.51638760406E+03  0.12500087191E+03 0.  0.
         23    2    1    2    0    0 -0.44154438100E+02  0.74790147265E+02 -0.37132017405E+03  0.39247704768E+03  0.92824462118E+02 0.  0.
          5    1    3    3  502    0  0.35257823629E+02  0.29964042156E+02 -0.17046268032E+03  0.17669344450E+03  0.47000000000E+01 0.  1.
         -5    1    3    3    0  502  0.88966144714E+01 -0.10475418942E+03 -0.32298210800E+03  0.33969415956E+03  0.47000000000E+01 0.  1.
        -11    1    4    4    0    0 -0.71073576298E+02  0.69991596545E+02 -0.29463401176E+03  0.31106185514E+03  0.00000000000E+00 0.  1.
         11    1    4    4    0    0  0.26919138198E+02  0.47985507204E+01 -0.76686162286E+02  0.81415192541E+02  0.00000000000E+00 0. -1.
<mgrwt>
<rscale>  0 0.14550895E+03</rscale>
<asrwt>0</asrwt>
<pdfrwt beam="1">  1        2 0.33922837E-02 0.15221169E+03</pdfrwt>
<pdfrwt beam="2">  1       -2 0.13643305E+00 0.15221169E+03</pdfrwt>
<totfact> 0.10426815E+03</totfact>
</mgrwt>
</event>
<event>
 8    1  0.1154424E-005  0.2358167E+03  0.7546771E-02  0.1125417E+00
         -1   -1    0    0    0  501 -0.00000000000E+00  0.00000000000E+00  0.66047480689E+03  0.66047480689E+03  0.00000000000E+00 0.  1.
          1   -1    0    0  501    0  0.00000000000E+00 -0.00000000000E+00 -0.96008834775E+02  0.96008834775E+02  0.00000000000E+00 0. -1.
         23    2    1    2    0    0  0.19995809092E+03  0.86111961515E+00  0.45113804968E+03  0.50905311908E+03  0.12500223410E+03 0.  0.
         23    2    1    2    0    0 -0.19995809092E+03 -0.86111961515E+00  0.11332792244E+03  0.24743052259E+03  0.91622409121E+02 0.  0.
          5    1    3    3  502    0  0.12432338082E+02  0.41701068077E+02  0.88661014247E+02  0.98875717728E+02  0.47000000000E+01 0. -1.
         -5    1    3    3    0  502  0.18752575283E+03 -0.40839948462E+02  0.36247703543E+03  0.41017740136E+03  0.47000000000E+01 0. -1.
        -11    1    4    4    0    0 -0.37476380909E+02 -0.34172810513E+02  0.90669359939E+01  0.51521543384E+02  0.00000000000E+00 0. -1.
         11    1    4    4    0    0 -0.16248171001E+03  0.33311690898E+02  0.10426098645E+03  0.19590897920E+03  0.00000000000E+00 0.  1.
<mgrwt>
<rscale>  0 0.23174624E+03</rscale>
<asrwt>0</asrwt>
<pdfrwt beam="2">  1        1 0.14770590E-01 0.23581675E+03</pdfrwt>
<pdfrwt beam="1">  1       -1 0.10161151E+00 0.23581675E+03</pdfrwt>
<totfact> 0.37108294E+02</totfact>
</mgrwt>
</event>
<event>
 8    1  0.1154424E-005  0.2090331E+03  0.7546771E-02  0.1146089E+00
          2   -1    0    0  501    0  0.00000000000E+00  0.00000000000E+00  0.63969892288E+03  0.63969892288E+03  0.00000000000E+00 0. -1.
         -2   -1    0    0    0  501 -0.00000000000E+00 -0.00000000000E+00 -0.63554929784E+02  0.63554929784E+02  0.00000000000E+00 0.  1.
         23    2    1    2    0    0 -0.16457588578E+03  0.31377722073E+02  0.34477999179E+03  0.40319733385E+03  0.12500025465E+03 0.  0.
         23    2    1    2    0    0  0.16457588578E+03 -0.31377722073E+02  0.23136400130E+03  0.30005651881E+03  0.91841329264E+02 0.  0.
          5    1    3    3  502    0 -0.14480051718E+03  0.10463201832E+02  0.34467609265E+03  0.37403257506E+03  0.47000000000E+01 0. -1.
         -5    1    3    3    0  502 -0.19775368597E+02  0.20914520241E+02  0.10389914887E+00  0.29164758787E+02  0.47000000000E+01 0. -1.
        -11    1    4    4    0    0  0.34262603738E+02  0.39227795803E+01  0.28047614316E+01  0.34600302039E+02  0.00000000000E+00 0.  1.
         11    1    4    4    0    0  0.13031328204E+03 -0.35300501653E+02  0.22855923987E+03  0.26545621677E+03  0.00000000000E+00 0. -1.
<mgrwt>
<rscale>  0 0.20438772E+03</rscale>
<asrwt>0</asrwt>
<pdfrwt beam="1">  1        2 0.98415215E-01 0.20903312E+03</pdfrwt>
<pdfrwt beam="2">  1       -2 0.97776819E-02 0.20903312E+03</pdfrwt>
<totfact> 0.31851841E+03</totfact>
</mgrwt>
</event>
<event>
 8    1  0.1154424E-005  0.2717873E+03  0.7546771E-02  0.1102368E+00
          2   -1    0    0  501    0  0.00000000000E+00  0.00000000000E+00  0.15475072347E+04  0.15475072347E+04  0.00000000000E+00 0.  1.
         -2   -1    0    0    0  501 -0.00000000000E+00 -0.00000000000E+00 -0.45796037529E+02  0.45796037529E+02  0.00000000000E+00 0. -1.
         23    2    1    2    0    0  0.16138634959E+03 -0.17944321896E+03  0.68283959310E+03  0.73494096394E+03  0.12499155135E+03 0.  0.
         23    2    1    2    0    0 -0.16138634959E+03  0.17944321896E+03  0.81887160408E+03  0.85836230830E+03  0.89385265434E+02 0.  0.
          5    1    3    3  502    0  0.20512776857E+02 -0.11383720214E+03  0.31473658546E+03  0.33535189106E+03  0.47000000000E+01 0.  1.
         -5    1    3    3    0  502  0.14087357273E+03 -0.65606016812E+02  0.36810300763E+03  0.39958907288E+03  0.47000000000E+01 0.  1.
        -11    1    4    4    0    0 -0.43360761922E+02  0.24046038322E+02  0.29882427553E+03  0.30290974774E+03  0.00000000000E+00 0.  1.
         11    1    4    4    0    0 -0.11802558767E+03  0.15539718063E+03  0.52004732856E+03  0.55545256056E+03  0.00000000000E+00 0. -1.
<mgrwt>
<rscale>  0 0.26810683E+03</rscale>
<asrwt>0</asrwt>
<pdfrwt beam="1">  1        2 0.23807800E+00 0.27178725E+03</pdfrwt>
<pdfrwt beam="2">  1       -2 0.70455454E-02 0.27178725E+03</pdfrwt>
<totfact> 0.14853950E+03</totfact>
</mgrwt>
</event>
<event>
 8    1  0.1154424E-005  0.1718788E+03  0.7546771E-02  0.1182305E+00
          1   -1    0    0  501    0  0.00000000000E+00  0.00000000000E+00  0.50677925310E+03  0.50677925310E+03  0.00000000000E+00 0. -1.
         -1   -1    0    0    0  501 -0.00000000000E+00 -0.00000000000E+00 -0.58004923988E+02  0.58004923988E+02  0.00000000000E+00 0.  1.
         23    2    1    2    0    0 -0.11283124096E+03  0.34464747632E+02  0.13873895662E+03  0.22088642908E+03  0.12499443467E+03 0.  0.
         23    2    1    2    0    0  0.11283124096E+03 -0.34464747632E+02  0.31003537249E+03  0.34389774801E+03  0.90691902200E+02 0.  0.
          5    1    3    3  502    0 -0.95729598844E+02 -0.15969123994E+02  0.33380259780E+02  0.10273996671E+03  0.47000000000E+01 0. -1.
         -5    1    3    3    0  502 -0.17101642121E+02  0.50433871625E+02  0.10535869684E+03  0.11814646237E+03  0.47000000000E+01 0. -1.
        -11    1    4    4    0    0  0.59698045123E+02  0.28660605156E+02  0.13259923287E+03  0.14821553035E+03  0.00000000000E+00 0. -1.
         11    1    4    4    0    0  0.53133195842E+02 -0.63125352788E+02  0.17743613962E+03  0.19568221766E+03  0.00000000000E+00 0.  1.
<mgrwt>
<rscale>  0 0.16579562E+03</rscale>
<asrwt>0</asrwt>
<pdfrwt beam="1">  1        1 0.77966036E-01 0.17187878E+03</pdfrwt>
<pdfrwt beam="2">  1       -1 0.89238348E-02 0.17187878E+03</pdfrwt>
<totfact> 0.31676056E+03</totfact>
</mgrwt>
</event>
<event>
 8    1  0.1154424E-005  0.1429260E+03  0.7546771E-02  0.1220058E+00
          1   -1    0    0  501    0  0.00000000000E+00  0.00000000000E+00  0.29930850415E+02  0.29930850415E+02  0.00000000000E+00 0. -1.
         -1   -1    0    0    0  501 -0.00000000000E+00 -0.00000000000E+00 -0.55649567069E+03  0.55649567069E+03  0.00000000000E+00 0.  1.
         23    2    1    2    0    0  0.26031938423E+02 -0.64232128044E+02 -0.26634311952E+03  0.30226891256E+03  0.12499764036E+03 0.  0.
         23    2    1    2    0    0 -0.26031938423E+02  0.64232128044E+02 -0.26022170076E+03  0.28415760855E+03  0.90701625446E+02 0.  0.
          5    1    3    3  502    0  0.47032917599E+02 -0.26330915616E+02 -0.24989245279E+03  0.25568289035E+03  0.47000000000E+01 0.  1.
         -5    1    3    3    0  502 -0.21000979176E+02 -0.37901212428E+02 -0.16450666728E+02  0.46586022213E+02  0.47000000000E+01 0.  1.
        -11    1    4    4    0    0 -0.46507683683E+01  0.50918039357E+02 -0.25277193683E+03  0.25789131126E+03  0.00000000000E+00 0.  1.
         11    1    4    4    0    0 -0.21381170054E+02  0.13314088687E+02 -0.74497639358E+01  0.26266297287E+02  0.00000000000E+00 0. -1.
<mgrwt>
<rscale>  0 0.13511462E+03</rscale>
<asrwt>0</asrwt>
<pdfrwt beam="1">  1        1 0.46047461E-02 0.14292599E+03</pdfrwt>
<pdfrwt beam="2">  1       -1 0.85614721E-01 0.14292599E+03</pdfrwt>
<totfact> 0.25593606E+03</totfact>
</mgrwt>
</event>
<event>
 8    1  0.1154424E-005  0.1313573E+03  0.7546771E-02  0.1232416E+00
         -1   -1    0    0    0  501 -0.00000000000E+00  0.00000000000E+00  0.10568370150E+03  0.10568370150E+03  0.00000000000E+00 0.  1.
          1   -1    0    0  501    0  0.00000000000E+00 -0.00000000000E+00 -0.14296578364E+03  0.14296578364E+03  0.00000000000E+00 0. -1.
         23    2    1    2    0    0 -0.23653112956E+02 -0.32694242780E+02 -0.29569886659E+02  0.13464441531E+03  0.12500542834E+03 0.  0.
         23    2    1    2    0    0  0.23653112956E+02  0.32694242780E+02 -0.77121954872E+01  0.11400506983E+03  0.10634516785E+03 0.  0.
          5    1    3    3  502    0 -0.55551748813E+02  0.26920129292E+02 -0.24831553676E+02  0.66703719651E+02  0.47000000000E+01 0. -1.
         -5    1    3    3    0  502  0.31898635857E+02 -0.59614372072E+02 -0.47383329827E+01  0.67940695658E+02  0.47000000000E+01 0. -1.
        -11    1    4    4    0    0 -0.53444762355E+01  0.65403359257E+02  0.10854980697E+02  0.66513107236E+02  0.00000000000E+00 0.  1.
         11    1    4    4    0    0  0.28997589192E+02 -0.32709116476E+02 -0.18567176184E+02  0.47491962594E+02  0.00000000000E+00 0. -1.
<mgrwt>
<rscale>  0 0.12671345E+03</rscale>
<asrwt>0</asrwt>
<pdfrwt beam="2">  1        1 0.21994736E-01 0.13135730E+03</pdfrwt>
<pdfrwt beam="1">  1       -1 0.16259031E-01 0.13135730E+03</pdfrwt>
<totfact> 0.60485748E+03</totfact>
</mgrwt>
</event>
<event>
 8    1  0.1154424E-005  0.1280631E+03  0.7546771E-02  0.1245537E+00
         -2   -1    0    0    0  501 -0.00000000000E+00  0.00000000000E+00  0.15340684954E+03  0.15340684954E+03  0.00000000000E+00 0.  1.
          2   -1    0    0  501    0  0.00000000000E+00 -0.00000000000E+00 -0.80360881857E+02  0.80360881857E+02  0.00000000000E+00 0. -1.
         23    2    1    2    0    0 -0.25200382496E+02  0.11823148058E+02  0.43127640455E+02  0.13513016143E+03  0.12500128419E+03 0.  0.
         23    2    1    2    0    0  0.25200382496E+02 -0.11823148058E+02  0.29918327231E+02  0.98637569973E+02  0.89774260219E+02 0.  0.
          5    1    3    3  502    0 -0.18430106058E+02  0.65906970121E+02  0.56764850830E+01  0.68831025002E+02  0.47000000000E+01 0.  1.
         -5    1    3    3    0  502 -0.67702764378E+01 -0.54083822063E+02  0.37451155372E+02  0.66299136425E+02  0.47000000000E+01 0.  1.
        -11    1    4    4    0    0  0.95927697827E+01 -0.10839590274E+02 -0.31815651058E+02  0.34953592114E+02  0.00000000000E+00 0. -1.
         11    1    4    4    0    0  0.15607612713E+02 -0.98355778391E+00  0.61733978289E+02  0.63683977859E+02  0.00000000000E+00 0.  1.
<mgrwt>
<rscale>  0 0.11853303E+03</rscale>
<asrwt>0</asrwt>
<pdfrwt beam="2">  1        2 0.12363213E-01 0.12806314E+03</pdfrwt>
<pdfrwt beam="1">  1       -2 0.23601054E-01 0.12806314E+03</pdfrwt>
<totfact> 0.72932802E+03</totfact>
</mgrwt>
</event>
<event>
 8    1  0.1154424E-005  0.1958071E+03  0.7546771E-02  0.1157781E+00
         -2   -1    0    0    0  501 -0.00000000000E+00  0.00000000000E+00  0.92121362813E+02  0.92121362813E+02  0.00000000000E+00 0.  1.
          2   -1    0    0  501    0  0.00000000000E+00 -0.00000000000E+00 -0.37693004242E+03  0.37693004242E+03  0.00000000000E+00 0. -1.
         23    2    1    2    0    0 -0.11820251806E+03 -0.93511087798E+02 -0.13765339056E+03  0.23935094134E+03  0.12499703343E+03 0.  0.
         23    2    1    2    0    0  0.11820251806E+03  0.93511087798E+02 -0.14715528905E+03  0.22970046390E+03  0.91604940938E+02 0.  0.
          5    1    3    3  502    0 -0.73320137751E+02 -0.11834733075E+03 -0.12291187733E+03  0.18577231464E+03  0.47000000000E+01 0. -1.
         -5    1    3    3    0  502 -0.44882380311E+02  0.24836242954E+02 -0.14741513229E+02  0.53578626697E+02  0.47000000000E+01 0. -1.
        -11    1    4    4    0    0  0.53568253851E+02  0.45479301263E+02 -0.12938485941E+03  0.14723575146E+03  0.00000000000E+00 0.  1.
         11    1    4    4    0    0  0.64634264212E+02  0.48031786535E+02 -0.17770429635E+02  0.82464712437E+02  0.00000000000E+00 0. -1.
<mgrwt>
<rscale>  0 0.19075664E+03</rscale>
<asrwt>0</asrwt>
<pdfrwt beam="2">  1        2 0.57989238E-01 0.19580709E+03</pdfrwt>
<pdfrwt beam="1">  1       -2 0.14172517E-01 0.19580709E+03</pdfrwt>
<totfact> 0.31558924E+03</totfact>
</mgrwt>
</event>
<event>
 8    1  0.1154424E-005  0.1319288E+03  0.7546771E-02  0.1238172E+00
         -2   -1    0    0    0  501 -0.00000000000E+00  0.00000000000E+00  0.12199848408E+03  0.12199848408E+03  0.00000000000E+00 0. -1.
          2   -1    0    0  501    0  0.00000000000E+00 -0.00000000000E+00 -0.11582749551E+03  0.11582749551E+03  0.00000000000E+00 0.  1.
         23    2    1    2    0    0  0.26599554685E+02  0.32753497925E+02  0.29845560464E+02  0.13526258465E+03  0.12499952556E+03 0.  0.
         23    2    1    2    0    0 -0.26599554685E+02 -0.32753497925E+02 -0.23674571894E+02  0.10256339494E+03  0.90434709552E+02 0.  0.
          5    1    3    3  502    0  0.14594852562E+02 -0.32670727940E+02 -0.29023649564E+02  0.46312508240E+02  0.47000000000E+01 0.  1.
         -5    1    3    3    0  502  0.12004702123E+02  0.65424225866E+02  0.58869210028E+02  0.88950076405E+02  0.47000000000E+01 0.  1.
        -11    1    4    4    0    0 -0.16598762680E+02 -0.29550660433E+02 -0.57719868312E+02  0.66935369219E+02  0.00000000000E+00 0.  1.
         11    1    4    4    0    0 -0.10000792004E+02 -0.32028374920E+01  0.34045296418E+02  0.35628025723E+02  0.00000000000E+00 0. -1.
<mgrwt>
<rscale>  0 0.12303549E+03</rscale>
<asrwt>0</asrwt>
<pdfrwt beam="2">  1        2 0.17819615E-01 0.13192880E+03</pdfrwt>
<pdfrwt beam="1">  1       -2 0.18768998E-01 0.13192880E+03</pdfrwt>
<totfact> 0.70378961E+03</totfact>
</mgrwt>
</event>
<event>
 8    1  0.1154424E-005  0.1335776E+03  0.7546771E-02  0.1234176E+00
          2   -1    0    0  501    0  0.00000000000E+00  0.00000000000E+00  0.22237717425E+03  0.22237717425E+03  0.00000000000E+00 0.  1.
         -2   -1    0    0    0  501 -0.00000000000E+00 -0.00000000000E+00 -0.64899146890E+02  0.64899146890E+02  0.00000000000E+00 0. -1.
         23    2    1    2    0    0  0.10538596441E+02 -0.45914098286E+02  0.68274910222E+02  0.15001477691E+03  0.12499521386E+03 0.  0.
         23    2    1    2    0    0 -0.10538596441E+02  0.45914098286E+02  0.89203117135E+02  0.13726154423E+03  0.93082592259E+02 0.  0.
          5    1    3    3  502    0  0.70236954782E+01 -0.15486639082E+01 -0.35752153877E+02  0.36770057995E+02  0.47000000000E+01 0.  1.
         -5    1    3    3    0  502  0.35149009624E+01 -0.44365434378E+02  0.10402706410E+03  0.11324471891E+03  0.47000000000E+01 0.  1.
        -11    1    4    4    0    0  0.19600676735E+02  0.25403931936E+02 -0.83195780500E+01  0.33147574047E+02  0.00000000000E+00 0. -1.
         11    1    4    4    0    0 -0.30139273176E+02  0.20510166350E+02  0.97522695185E+02  0.10411397018E+03  0.00000000000E+00 0.  1.
<mgrwt>
<rscale>  0 0.12557305E+03</rscale>
<asrwt>0</asrwt>
<pdfrwt beam="1">  1        2 0.34211872E-01 0.13357758E+03</pdfrwt>
<pdfrwt beam="2">  1       -2 0.99844843E-02 0.13357758E+03</pdfrwt>
<totfact> 0.95193549E+03</totfact>
</mgrwt>
</event>
<event>
 8    1  0.1154424E-005  0.1307116E+03  0.7546771E-02  0.1238869E+00
         -1   -1    0    0    0  501 -0.00000000000E+00  0.00000000000E+00  0.20283019070E+03  0.20283019070E+03  0.00000000000E+00 0.  1.
          1   -1    0    0  501    0  0.00000000000E+00 -0.00000000000E+00 -0.74482506675E+02  0.74482506675E+02  0.00000000000E+00 0. -1.
         23    2    1    2    0    0  0.13431331983E+02 -0.35756848768E+02  0.11716238999E+03  0.17553505051E+03  0.12500630150E+03 0.  0.
         23    2    1    2    0    0 -0.13431331983E+02  0.35756848768E+02  0.11185294033E+02  0.10177764687E+03  0.93672972020E+02 0.  0.
          5    1    3    3  502    0 -0.32575211374E+02 -0.51427672107E+02  0.11050909640E+03  0.12625490185E+03  0.47000000000E+01 0. -1.
         -5    1    3    3    0  502  0.46006543358E+02  0.15670823339E+02  0.66532935939E+01  0.49280148655E+02  0.47000000000E+01 0. -1.
        -11    1    4    4    0    0  0.15996339109E+02  0.46534081940E+02  0.36683682251E+02  0.61375859997E+02  0.00000000000E+00 0.  1.
         11    1    4    4    0    0 -0.29427671092E+02 -0.10777233172E+02 -0.25498388218E+02  0.40401786872E+02  0.00000000000E+00 0. -1.
<mgrwt>
<rscale>  0 0.12259961E+03</rscale>
<asrwt>0</asrwt>
<pdfrwt beam="2">  1        1 0.11458847E-01 0.13071162E+03</pdfrwt>
<pdfrwt beam="1">  1       -1 0.31204645E-01 0.13071162E+03</pdfrwt>
<totfact> 0.48537887E+03</totfact>
</mgrwt>
</event>
<event>
 8    1  0.1154424E-005  0.1478400E+03  0.7546771E-02  0.1214349E+00
         -3   -1    0    0    0  501 -0.00000000000E+00  0.00000000000E+00  0.38994406466E+02  0.38994406466E+02  0.00000000000E+00 0.  1.
          3   -1    0    0  501    0  0.00000000000E+00 -0.00000000000E+00 -0.45828501201E+03  0.45828501201E+03  0.00000000000E+00 0. -1.
         23    2    1    2    0    0  0.34654187756E+02 -0.70928800103E+02 -0.19608889118E+03  0.24557589188E+03  0.12499943207E+03 0.  0.
         23    2    1    2    0    0 -0.34654187756E+02  0.70928800103E+02 -0.22320171437E+03  0.25170352660E+03  0.85462580065E+02 0.  0.
          5    1    3    3  502    0 -0.33768771199E+02  0.46793192002E+01 -0.98555542267E+02  0.10439114353E+03  0.47000000000E+01 0. -1.
         -5    1    3    3    0  502  0.68422958955E+02 -0.75608119303E+02 -0.97533348913E+02  0.14118474835E+03  0.47000000000E+01 0. -1.
        -11    1    4    4    0    0 -0.23126966723E+01  0.54177459971E+02 -0.46949240209E+02  0.71727100116E+02  0.00000000000E+00 0.  1.
         11    1    4    4    0    0 -0.32341491084E+02  0.16751340132E+02 -0.17625247416E+03  0.17997642648E+03  0.00000000000E+00 0. -1.
<mgrwt>
<rscale>  0 0.13924477E+03</rscale>
<asrwt>0</asrwt>
<pdfrwt beam="2">  1        3 0.70505385E-01 0.14784000E+03</pdfrwt>
<pdfrwt beam="1">  1       -3 0.59991396E-02 0.14784000E+03</pdfrwt>
<totfact> 0.78199912E+02</totfact>
</mgrwt>
</event>
<event>
 8    1  0.1154424E-005  0.1281918E+03  0.7546771E-02  0.1246381E+00
         -2   -1    0    0    0  501 -0.00000000000E+00  0.00000000000E+00  0.24597002125E+02  0.24597002125E+02  0.00000000000E+00 0.  1.
          2   -1    0    0  501    0  0.00000000000E+00 -0.00000000000E+00 -0.49715655574E+03  0.49715655574E+03  0.00000000000E+00 0. -1.
         23    2    1    2    0    0  0.14543132987E+02  0.24477947347E+02 -0.25220923563E+03  0.28291808053E+03  0.12498987613E+03 0.  0.
         23    2    1    2    0    0 -0.14543132987E+02 -0.24477947347E+02 -0.22035031799E+03  0.23883547733E+03  0.87621058945E+02 0.  0.
          5    1    3    3  502    0  0.37202159444E+02 -0.29833104518E+02 -0.39290518234E+02  0.61966520118E+02  0.47000000000E+01 0. -1.
         -5    1    3    3    0  502 -0.22659026458E+02  0.54311051865E+02 -0.21291871739E+03  0.22095156042E+03  0.47000000000E+01 0. -1.
        -11    1    4    4    0    0  0.29991307931E+02 -0.31896098236E+02 -0.77395717520E+02  0.88920957735E+02  0.00000000000E+00 0.  1.
         11    1    4    4    0    0 -0.44534440917E+02  0.74181508890E+01 -0.14295460047E+03  0.14991451959E+03  0.00000000000E+00 0. -1.
<mgrwt>
<rscale>  0 0.11803116E+03</rscale>
<asrwt>0</asrwt>
<pdfrwt beam="2">  1        2 0.76485626E-01 0.12819182E+03</pdfrwt>
<pdfrwt beam="1">  1       -2 0.37841541E-02 0.12819182E+03</pdfrwt>
<totfact> 0.17568097E+04</totfact>
</mgrwt>
</event>
<event>
 8    1  0.1154424E-005  0.1545610E+03  0.7546771E-02  0.1203216E+00
          1   -1    0    0  501    0  0.00000000000E+00  0.00000000000E+00  0.28832500052E+03  0.28832500052E+03  0.00000000000E+00 0. -1.
         -1   -1    0    0    0  501 -0.00000000000E+00 -0.00000000000E+00 -0.73094460846E+02  0.73094460846E+02  0.00000000000E+00 0.  1.
         23    2    1    2    0    0 -0.11753916719E+02  0.90839300137E+02  0.78694807816E+02  0.17344153850E+03  0.12449562840E+03 0.  0.
         23    2    1    2    0    0  0.11753916719E+02 -0.90839300137E+02  0.13653573186E+03  0.18797792287E+03  0.91124971359E+02 0.  0.
          5    1    3    3  502    0 -0.26038858188E+02  0.84005881689E+02 -0.49191033859E+01  0.88211665171E+02  0.47000000000E+01 0. -1.
         -5    1    3    3    0  502  0.14284941468E+02  0.68334184482E+01  0.83613911202E+02  0.85229873324E+02  0.47000000000E+01 0. -1.
        -11    1    4    4    0    0  0.18287938141E+02 -0.10849605133E+03  0.11142333279E+03  0.15659182905E+03  0.00000000000E+00 0. -1.
         11    1    4    4    0    0 -0.65340214213E+01  0.17656751188E+02  0.25112399072E+02  0.31386093826E+02  0.00000000000E+00 0.  1.
<mgrwt>
<rscale>  0 0.14778962E+03</rscale>
<asrwt>0</asrwt>
<pdfrwt beam="1">  1        1 0.44357692E-01 0.15456097E+03</pdfrwt>
<pdfrwt beam="2">  1       -1 0.11245302E-01 0.15456097E+03</pdfrwt>
<totfact> 0.45235016E+03</totfact>
</mgrwt>
</event>
<event>
 8    1  0.1154424E-005  0.1568626E+03  0.7546771E-02  0.1199833E+00
         -1   -1    0    0    0  501 -0.00000000000E+00  0.00000000000E+00  0.43567705761E+03  0.43567705761E+03  0.00000000000E+00 0. -1.
          1   -1    0    0  501    0  0.00000000000E+00 -0.00000000000E+00 -0.54044300212E+02  0.54044300212E+02  0.00000000000E+00 0.  1.
         23    2    1    2    0    0  0.49188918782E+02 -0.81006902263E+02  0.28502775064E+03  0.32534087666E+03  0.12499679773E+03 0.  0.
         23    2    1    2    0    0 -0.49188918782E+02  0.81006902263E+02  0.96605006755E+02  0.16438048117E+03  0.93309952917E+02 0.  0.
          5    1    3    3  502    0  0.39122809346E+02 -0.87052791068E+02  0.94492854566E+02  0.13438665190E+03  0.47000000000E+01 0.  1.
         -5    1    3    3    0  502  0.10066109436E+02  0.60458888053E+01  0.19053489608E+03  0.19095422476E+03  0.47000000000E+01 0.  1.
        -11    1    4    4    0    0 -0.76523555604E+02  0.50571685784E+02  0.61082173622E+02  0.11020155126E+03  0.00000000000E+00 0. -1.
         11    1    4    4    0    0  0.27334636822E+02  0.30435216478E+02  0.35522833133E+02  0.54178929909E+02  0.00000000000E+00 0.  1.
<mgrwt>
<rscale>  0 0.15052222E+03</rscale>
<asrwt>0</asrwt>
<pdfrwt beam="2">  1        1 0.83145080E-02 0.15686257E+03</pdfrwt>
<pdfrwt beam="1">  1       -1 0.67027238E-01 0.15686257E+03</pdfrwt>
<totfact> 0.18880189E+03</totfact>
</mgrwt>
</event>
<event>
 8    1  0.1154424E-005  0.1266369E+03  0.7546771E-02  0.1246957E+00
          2   -1    0    0  501    0  0.00000000000E+00  0.00000000000E+00  0.17359850741E+03  0.17359850741E+03  0.00000000000E+00 0. -1.
         -2   -1    0    0    0  501 -0.00000000000E+00 -0.00000000000E+00 -0.70516547728E+02  0.70516547728E+02  0.00000000000E+00 0.  1.
         23    2    1    2    0    0 -0.19330238823E+02  0.64099944077E+01  0.63902362444E+02  0.14184649213E+03  0.12498867646E+03 0.  0.
         23    2    1    2    0    0  0.19330238823E+02 -0.64099944077E+01  0.39179597240E+02  0.10226856301E+03  0.92244631167E+02 0.  0.
          5    1    3    3  502    0 -0.49482879620E+02  0.16541131981E+02  0.87485714811E+02  0.10197060713E+03  0.47000000000E+01 0.  1.
         -5    1    3    3    0  502  0.30152640797E+02 -0.10131137573E+02 -0.23583352367E+02  0.39875884999E+02  0.47000000000E+01 0.  1.
        -11    1    4    4    0    0  0.17474915212E+02  0.18663876368E+02 -0.23504579276E+02  0.34730076154E+02  0.00000000000E+00 0.  1.
         11    1    4    4    0    0  0.18553236110E+01 -0.25073870776E+02  0.62684176516E+02  0.67538486856E+02  0.00000000000E+00 0. -1.
<mgrwt>
<rscale>  0 0.11768989E+03</rscale>
<asrwt>0</asrwt>
<pdfrwt beam="1">  1        2 0.26707463E-01 0.12663694E+03</pdfrwt>
<pdfrwt beam="2">  1       -2 0.10848700E-01 0.12663694E+03</pdfrwt>
<totfact> 0.10870976E+04</totfact>
</mgrwt>
</event>
<event>
 8    1  0.1154424E-005  0.1623556E+03  0.7546771E-02  0.1193749E+00
         -2   -1    0    0    0  501 -0.00000000000E+00  0.00000000000E+00  0.16296522630E+02  0.16296522630E+02  0.00000000000E+00 0.  1.
          2   -1    0    0  501    0  0.00000000000E+00 -0.00000000000E+00 -0.14444327162E+04  0.14444327162E+04  0.00000000000E+00 0. -1.
         23    2    1    2    0    0  0.29084779629E+02  0.99447776640E+02 -0.93158653423E+03  0.94562825626E+03  0.12499417422E+03 0.  0.
         23    2    1    2    0    0 -0.29084779629E+02 -0.99447776640E+02 -0.49654965937E+03  0.51510098260E+03  0.89619603735E+02 0.  0.
          5    1    3    3  502    0  0.26794690200E+01  0.65332051337E+01 -0.60413580882E+03  0.60419535568E+03  0.47000000000E+01 0. -1.
         -5    1    3    3    0  502  0.26405310609E+02  0.92914571506E+02 -0.32745072540E+03  0.34143290057E+03  0.47000000000E+01 0. -1.
        -11    1    4    4    0    0  0.35477541185E+01 -0.10354799065E+03 -0.35721263278E+03  0.37193499155E+03  0.00000000000E+00 0.  1.
         11    1    4    4    0    0 -0.32632533747E+02  0.41002140055E+01 -0.13933702659E+03  0.14316599105E+03  0.00000000000E+00 0. -1.
<mgrwt>
<rscale>  0 0.15560590E+03</rscale>
<asrwt>0</asrwt>
<pdfrwt beam="2">  1        2 0.22222045E+00 0.16235556E+03</pdfrwt>
<pdfrwt beam="1">  1       -2 0.25071570E-02 0.16235556E+03</pdfrwt>
<totfact> 0.79598738E+03</totfact>
</mgrwt>
</event>
<event>
 8    1  0.1154424E-005  0.1615581E+03  0.7546771E-02  0.1194559E+00
         -2   -1    0    0    0  501 -0.00000000000E+00  0.00000000000E+00  0.18554830214E+03  0.18554830214E+03  0.00000000000E+00 0.  1.
          2   -1    0    0  501    0  0.00000000000E+00 -0.00000000000E+00 -0.14564948990E+03  0.14564948990E+03  0.00000000000E+00 0. -1.
         23    2    1    2    0    0 -0.88398732474E+02  0.51686762621E+02  0.90932543005E+02  0.18539079633E+03  0.12496064442E+03 0.  0.
         23    2    1    2    0    0  0.88398732474E+02 -0.51686762621E+02 -0.51033730768E+02  0.14580699571E+03  0.90384628062E+02 0.  0.
          5    1    3    3  502    0 -0.71964049629E+02 -0.12888059283E+02  0.93208493558E+02  0.11855310954E+03  0.47000000000E+01 0.  1.
         -5    1    3    3    0  502 -0.16434682845E+02  0.64574821905E+02 -0.22759505524E+01  0.66837686788E+02  0.47000000000E+01 0.  1.
        -11    1    4    4    0    0 -0.16992077746E+02 -0.73315432966E+00 -0.16647183888E+02  0.23799095630E+02  0.00000000000E+00 0. -1.
         11    1    4    4    0    0  0.10539081022E+03 -0.50953608292E+02 -0.34386546880E+02  0.12200790008E+03  0.00000000000E+00 0.  1.
<mgrwt>
<rscale>  0 0.15491614E+03</rscale>
<asrwt>0</asrwt>
<pdfrwt beam="2">  1        2 0.22407614E-01 0.16155810E+03</pdfrwt>
<pdfrwt beam="1">  1       -2 0.28545893E-01 0.16155810E+03</pdfrwt>
<totfact> 0.26590468E+03</totfact>
</mgrwt>
</event>
<event>
 7    1  0.1154424E-005  0.1497043E+03  0.7546771E-02  0.1220002E+00
          1   -1    0    0  501    0  0.00000000000E+00  0.00000000000E+00  0.15659241347E+03  0.15659241347E+03  0.00000000000E+00 0. -1.
         -1   -1    0    0    0  501 -0.00000000000E+00 -0.00000000000E+00 -0.19535923406E+03  0.19535923406E+03  0.00000000000E+00 0.  1.
         23    2    1    2    0    0 -0.31971943297E+02 -0.25600928245E+02  0.10483793674E+03  0.14450598986E+03  0.90627674808E+02 0.  0.
          5    1    1    2  502    0 -0.35072156912E+02  0.51882423672E+02 -0.22962089144E+02  0.66866954577E+02  0.47000000000E+01 0. -1.
         -5    1    1    2    0  502  0.67044100210E+02 -0.26281495427E+02 -0.12064266819E+03  0.14057870309E+03  0.47000000000E+01 0.  1.
        -11    1    3    3    0    0 -0.29043292615E+02 -0.50976661721E+02  0.10344440565E+03  0.11892383254E+03  0.00000000000E+00 0. -1.
         11    1    3    3    0    0 -0.29286506820E+01  0.25375733476E+02  0.13935310895E+01  0.25582157320E+02  0.00000000000E+00 0.  1.
<mgrwt>
<rscale>  0 0.13515454E+03</rscale>
<asrwt>0</asrwt>
<pdfrwt beam="1">  1        1 0.24091141E-01 0.14970429E+03</pdfrwt>
<pdfrwt beam="2">  1       -1 0.30055267E-01 0.14970429E+03</pdfrwt>
<totfact> 0.20002448E+03</totfact>
</mgrwt>
</event>
<event>
 8    1  0.1154424E-005  0.1325888E+03  0.7546771E-02  0.1237122E+00
          2   -1    0    0  501    0  0.00000000000E+00  0.00000000000E+00  0.63329525309E+02  0.63329525309E+02  0.00000000000E+00 0. -1.
         -2   -1    0    0    0  501 -0.00000000000E+00 -0.00000000000E+00 -0.34697059473E+03  0.34697059473E+03  0.00000000000E+00 0.  1.
         23    2    1    2    0    0 -0.47546302179E+01 -0.43955112265E+02 -0.27998958883E+03  0.30979663900E+03  0.12500051711E+03 0.  0.
         23    2    1    2    0    0  0.47546302179E+01  0.43955112265E+02 -0.36514805888E+01  0.10050348104E+03  0.90182914056E+02 0.  0.
          5    1    3    3  502    0 -0.20414689676E+02 -0.73005665414E+02 -0.94031858195E+02  0.12087459242E+03  0.47000000000E+01 0. -1.
         -5    1    3    3    0  502  0.15660059458E+02  0.29050553149E+02 -0.18595773063E+03  0.18892204658E+03  0.47000000000E+01 0. -1.
        -11    1    4    4    0    0  0.21068343519E+02  0.96966964055E+01  0.37774479711E+02  0.44326203732E+02  0.00000000000E+00 0. -1.
         11    1    4    4    0    0 -0.16313713301E+02  0.34258415860E+02 -0.41425960300E+02  0.56177277307E+02  0.00000000000E+00 0.  1.
<mgrwt>
<rscale>  0 0.12369544E+03</rscale>
<asrwt>0</asrwt>
<pdfrwt beam="1">  1        2 0.97430039E-02 0.13258879E+03</pdfrwt>
<pdfrwt beam="2">  1       -2 0.53380091E-01 0.13258879E+03</pdfrwt>
<totfact> 0.21470140E+03</totfact>
</mgrwt>
</event>
<event>
 8    1  0.1154424E-005  0.1587657E+03  0.7546771E-02  0.1197820E+00
          2   -1    0    0  501    0  0.00000000000E+00  0.00000000000E+00  0.34647393430E+03  0.34647393430E+03  0.00000000000E+00 0. -1.
         -2   -1    0    0    0  501 -0.00000000000E+00 -0.00000000000E+00 -0.62470224189E+02  0.62470224189E+02  0.00000000000E+00 0.  1.
         23    2    1    2    0    0  0.64775393047E+02 -0.73383850349E+02  0.17414268685E+03  0.23565276030E+03  0.12500202806E+03 0.  0.
         23    2    1    2    0    0 -0.64775393047E+02  0.73383850349E+02  0.10986102326E+03  0.17329139819E+03  0.91539189515E+02 0.  0.
          5    1    3    3  502    0  0.93246509269E+02 -0.25467812220E+02  0.13976168582E+03  0.16999688166E+03  0.47000000000E+01 0. -1.
         -5    1    3    3    0  502 -0.28471116222E+02 -0.47916038128E+02  0.34381001033E+02  0.65655878647E+02  0.47000000000E+01 0. -1.
        -11    1    4    4    0    0  0.57744802667E+01  0.62340226014E+02  0.51571478506E+02  0.81112673468E+02  0.00000000000E+00 0.  1.
         11    1    4    4    0    0 -0.70549873313E+02  0.11043624335E+02  0.58289544754E+02  0.92178724718E+02  0.00000000000E+00 0. -1.
<mgrwt>
<rscale>  0 0.15217987E+03</rscale>
<asrwt>0</asrwt>
<pdfrwt beam="1">  1        2 0.53303681E-01 0.15876570E+03</pdfrwt>
<pdfrwt beam="2">  1       -2 0.96108039E-02 0.15876570E+03</pdfrwt>
<totfact> 0.63753741E+03</totfact>
</mgrwt>
</event>
<event>
 8    1  0.1154424E-005  0.1859831E+03  0.7546771E-02  0.1167514E+00
         -2   -1    0    0    0  501 -0.00000000000E+00  0.00000000000E+00  0.94278660063E+02  0.94278660063E+02  0.00000000000E+00 0.  1.
          2   -1    0    0  501    0  0.00000000000E+00 -0.00000000000E+00 -0.32530067574E+03  0.32530067574E+03  0.00000000000E+00 0. -1.
         23    2    1    2    0    0 -0.36072778128E+02 -0.13290451652E+03 -0.12227207169E+03  0.22257619321E+03  0.12499938573E+03 0.  0.
         23    2    1    2    0    0  0.36072778128E+02  0.13290451652E+03 -0.10874994399E+03  0.19700314260E+03  0.89547931527E+02 0.  0.
          5    1    3    3  502    0  0.30101559998E+02 -0.81963499447E+02 -0.18651618768E+02  0.89409686492E+02  0.47000000000E+01 0. -1.
         -5    1    3    3    0  502 -0.66174338126E+02 -0.50941017078E+02 -0.10362045292E+03  0.13316650671E+03  0.47000000000E+01 0. -1.
        -11    1    4    4    0    0  0.45231218360E+02  0.36095050849E+02 -0.73551551254E+02  0.93587106494E+02  0.00000000000E+00 0. -1.
         11    1    4    4    0    0 -0.91584402319E+01  0.96809465676E+02 -0.35198392736E+02  0.10341603610E+03  0.00000000000E+00 0.  1.
<mgrwt>
<rscale>  0 0.18029875E+03</rscale>
<asrwt>0</asrwt>
<pdfrwt beam="2">  1        2 0.50046258E-01 0.18598307E+03</pdfrwt>
<pdfrwt beam="1">  1       -2 0.14504409E-01 0.18598307E+03</pdfrwt>
<totfact> 0.35522400E+03</totfact>
</mgrwt>
</event>
<event>
 8    1  0.1154424E-005  0.1381808E+03  0.7546771E-02  0.1221359E+00
          1   -1    0    0  501    0  0.00000000000E+00  0.00000000000E+00  0.10130142902E+03  0.10130142902E+03  0.00000000000E+00 0. -1.
         -1   -1    0    0    0  501 -0.00000000000E+00 -0.00000000000E+00 -0.16890623892E+03  0.16890623892E+03  0.00000000000E+00 0.  1.
         23    2    1    2    0    0 -0.68570629566E+02 -0.43954373749E+02 -0.27307748561E+02  0.14085329657E+03  0.11162445885E+03 0.  0.
         23    2    1    2    0    0  0.68570629566E+02  0.43954373749E+02 -0.40297061342E+02  0.12935437136E+03  0.92058579319E+02 0.  0.
          5    1    3    3  502    0 -0.88913385637E+02 -0.55333732273E+02 -0.41967323013E+02  0.11291925555E+03  0.47000000000E+01 0. -1.
         -5    1    3    3    0  502  0.20342756070E+02  0.11379358523E+02  0.14659574452E+02  0.27934041026E+02  0.47000000000E+01 0.  1.
        -11    1    4    4    0    0  0.98261862663E+01  0.20142633289E+02  0.28204745448E+02  0.36024814755E+02  0.00000000000E+00 0. -1.
         11    1    4    4    0    0  0.58744443300E+02  0.23811740460E+02 -0.68501806790E+02  0.93329556604E+02  0.00000000000E+00 0.  1.
<mgrwt>
<rscale>  0 0.13419589E+03</rscale>
<asrwt>0</asrwt>
<pdfrwt beam="1">  1        1 0.15584835E-01 0.13818082E+03</pdfrwt>
<pdfrwt beam="2">  1       -1 0.25985575E-01 0.13818082E+03</pdfrwt>
<totfact> 0.44273162E+03</totfact>
</mgrwt>
</event>
<event>
 8    1  0.1154424E-005  0.1177508E+03  0.7546771E-02  0.1252966E+00
          2   -1    0    0  501    0  0.00000000000E+00  0.00000000000E+00  0.12848678463E+03  0.12848678463E+03  0.00000000000E+00 0. -1.
         -2   -1    0    0    0  501 -0.00000000000E+00 -0.00000000000E+00 -0.23896537000E+03  0.23896537000E+03  0.00000000000E+00 0.  1.
         23    2    1    2    0    0 -0.11535012332E+02 -0.31404989973E+02 -0.19866009801E+03  0.23093523381E+03  0.11289782005E+03 0.  0.
         23    2    1    2    0    0  0.11535012332E+02  0.31404989973E+02  0.88181512629E+02  0.13651692081E+03  0.98699344446E+02 0.  0.
          5    1    3    3  502    0  0.36080781231E+02 -0.27627680836E+02 -0.16771974044E+03  0.17383070171E+03  0.47000000000E+01 0. -1.
         -5    1    3    3    0  502 -0.47615793564E+02 -0.37773091368E+01 -0.30940357565E+02  0.57104532108E+02  0.47000000000E+01 0.  1.
        -11    1    4    4    0    0 -0.35444216475E+02  0.16579651623E+02  0.44686008264E+01  0.39384587376E+02  0.00000000000E+00 0.  1.
         11    1    4    4    0    0  0.46979228807E+02  0.14825338350E+02  0.83712911803E+02  0.97132333437E+02  0.00000000000E+00 0. -1.
<mgrwt>
<rscale>  0 0.11421050E+03</rscale>
<asrwt>0</asrwt>
<pdfrwt beam="1">  1        2 0.19767198E-01 0.11775079E+03</pdfrwt>
<pdfrwt beam="2">  1       -2 0.36763903E-01 0.11775079E+03</pdfrwt>
<totfact> 0.19024944E+03</totfact>
</mgrwt>
</event>
<event>
 8    1  0.1154424E-005  0.1267075E+03  0.7546771E-02  0.1249738E+00
         -2   -1    0    0    0  501 -0.00000000000E+00  0.00000000000E+00  0.46340271381E+02  0.46340271381E+02  0.00000000000E+00 0. -1.
          2   -1    0    0  501    0  0.00000000000E+00 -0.00000000000E+00 -0.25277134792E+03  0.25277134792E+03  0.00000000000E+00 0.  1.
         23    2    1    2    0    0 -0.19169032231E+02  0.79331730488E+01 -0.11053945274E+03  0.16814804354E+03  0.12499762758E+03 0.  0.
         23    2    1    2    0    0  0.19169032231E+02 -0.79331730488E+01 -0.95891623795E+02  0.13096357577E+03  0.86751758667E+02 0.  0.
          5    1    3    3  502    0  0.38517932557E+02 -0.30043542130E+02 -0.76795459435E+02  0.91136590577E+02  0.47000000000E+01 0. -1.
         -5    1    3    3    0  502 -0.57686964788E+02  0.37976715179E+02 -0.33743993309E+02  0.77011452958E+02  0.47000000000E+01 0. -1.
        -11    1    4    4    0    0  0.17333187551E+02 -0.42497782801E+02 -0.81382289948E+02  0.93432210992E+02  0.00000000000E+00 0.  1.
         11    1    4    4    0    0  0.18358446806E+01  0.34564609753E+02 -0.14509333847E+02  0.37531364773E+02  0.00000000000E+00 0. -1.
<mgrwt>
<rscale>  0 0.11606208E+03</rscale>
<asrwt>0</asrwt>
<pdfrwt beam="2">  1        2 0.38887899E-01 0.12670751E+03</pdfrwt>
<pdfrwt beam="1">  1       -2 0.71292726E-02 0.12670751E+03</pdfrwt>
<totfact> 0.13929774E+04</totfact>
</mgrwt>
</event>
<event>
 8    1  0.1154424E-005  0.1516876E+03  0.7546771E-02  0.1213290E+00
          1   -1    0    0  501    0  0.00000000000E+00  0.00000000000E+00  0.23370622056E+03  0.23370622056E+03  0.00000000000E+00 0. -1.
         -1   -1    0    0    0  501 -0.00000000000E+00 -0.00000000000E+00 -0.76791813118E+02  0.76791813118E+02  0.00000000000E+00 0.  1.
         23    2    1    2    0    0  0.15068722790E+02 -0.84585845168E+02  0.12283885892E+03  0.19518838132E+03  0.12500914900E+03 0.  0.
         23    2    1    2    0    0 -0.15068722790E+02  0.84585845168E+02  0.34075548523E+02  0.11530965235E+03  0.68944479907E+02 0.  0.
          5    1    3    3  502    0  0.21171650628E+02  0.15430753036E+02  0.83155709814E+02  0.87311562832E+02  0.47000000000E+01 0. -1.
         -5    1    3    3    0  502 -0.61029278390E+01 -0.10001659820E+03  0.39683149103E+02  0.10787681849E+03  0.47000000000E+01 0. -1.
        -11    1    4    4    0    0 -0.45344837121E+01  0.83232351259E+02  0.40422778767E+01  0.83453734782E+02  0.00000000000E+00 0.  1.
         11    1    4    4    0    0 -0.10534239077E+02  0.13534939096E+01  0.30033270646E+02  0.31855917573E+02  0.00000000000E+00 0. -1.
<mgrwt>
<rscale>  0 0.14002908E+03</rscale>
<asrwt>0</asrwt>
<pdfrwt beam="1">  1        1 0.35954803E-01 0.15168757E+03</pdfrwt>
<pdfrwt beam="2">  1       -1 0.11814125E-01 0.15168757E+03</pdfrwt>
<totfact> 0.54339749E+03</totfact>
</mgrwt>
</event>
<event>
 8    1  0.1154424E-005  0.1256777E+03  0.7546771E-02  0.1249756E+00
         -1   -1    0    0    0  501 -0.00000000000E+00  0.00000000000E+00  0.50962597560E+03  0.50962597560E+03  0.00000000000E+00 0. -1.
          1   -1    0    0  501    0  0.00000000000E+00 -0.00000000000E+00 -0.25365162636E+02  0.25365162636E+02  0.00000000000E+00 0.  1.
         23    2    1    2    0    0  0.91130994927E+01 -0.92594735480E+01  0.35581869270E+03  0.37736165352E+03  0.12500435609E+03 0.  0.
         23    2    1    2    0    0 -0.91130994927E+01  0.92594735480E+01  0.12844212027E+03  0.15762948472E+03  0.90448271186E+02 0.  0.
          5    1    3    3  502    0 -0.48561417003E+02 -0.15155377572E+02  0.76090533458E+02  0.91650182611E+02  0.47000000000E+01 0.  1.
         -5    1    3    3    0  502  0.57674516496E+02  0.58959040244E+01  0.27972815924E+03  0.28571147091E+03  0.47000000000E+01 0.  1.
        -11    1    4    4    0    0 -0.33766325671E+02 -0.83373040592E+01  0.11201830441E+02  0.36539791919E+02  0.00000000000E+00 0.  1.
         11    1    4    4    0    0  0.24653226178E+02  0.17596777607E+02  0.11724028983E+03  0.12108969280E+03  0.00000000000E+00 0. -1.
<mgrwt>
<rscale>  0 0.11605191E+03</rscale>
<asrwt>0</asrwt>
<pdfrwt beam="2">  1        1 0.39023331E-02 0.12567766E+03</pdfrwt>
<pdfrwt beam="1">  1       -1 0.78403989E-01 0.12567766E+03</pdfrwt>
<totfact> 0.38221067E+03</totfact>
</mgrwt>
</event>
<event>
 8    1  0.1154424E-005  0.1353372E+03  0.7546771E-02  0.1231570E+00
         -3   -1    0    0    0  501 -0.00000000000E+00  0.00000000000E+00  0.32723375868E+03  0.32723375868E+03  0.00000000000E+00 0.  1.
          3   -1    0    0  501    0  0.00000000000E+00 -0.00000000000E+00 -0.45135045392E+02  0.45135045392E+02  0.00000000000E+00 0. -1.
         23    2    1    2    0    0 -0.51889632216E+02  0.12090885368E+01  0.18108576775E+03  0.22607127710E+03  0.12498868436E+03 0.  0.
         23    2    1    2    0    0  0.51889632216E+02 -0.12090885368E+01  0.10101294553E+03  0.14629752697E+03  0.92224483770E+02 0.  0.
          5    1    3    3  502    0  0.16018355699E+01  0.57301952774E+02  0.71512378520E+02  0.91772490162E+02  0.47000000000E+01 0. -1.
         -5    1    3    3    0  502 -0.53491467786E+02 -0.56092864237E+02  0.10957338923E+03  0.13429878693E+03  0.47000000000E+01 0. -1.
        -11    1    4    4    0    0 -0.54788159113E+00  0.39120625310E+02  0.30474220426E+02  0.49592354345E+02  0.00000000000E+00 0.  1.
         11    1    4    4    0    0  0.52437513807E+02 -0.40329713847E+02  0.70538725105E+02  0.96705172627E+02  0.00000000000E+00 0. -1.
<mgrwt>
<rscale>  0 0.12726591E+03</rscale>
<asrwt>0</asrwt>
<pdfrwt beam="2">  1        3 0.69438534E-02 0.13533723E+03</pdfrwt>
<pdfrwt beam="1">  1       -3 0.50343654E-01 0.13533723E+03</pdfrwt>
<totfact> 0.12190294E+03</totfact>
</mgrwt>
</event>
<event>
 8    1  0.1154424E-005  0.1379819E+03  0.7546771E-02  0.1224426E+00
          1   -1    0    0  501    0  0.00000000000E+00  0.00000000000E+00  0.12585439851E+03  0.12585439851E+03  0.00000000000E+00 0.  1.
         -1   -1    0    0    0  501 -0.00000000000E+00 -0.00000000000E+00 -0.12796117681E+03  0.12796117681E+03  0.00000000000E+00 0. -1.
         23    2    1    2    0    0  0.15714676270E+02  0.56274972635E+02 -0.33119159380E+01  0.13802159517E+03  0.12500067340E+03 0.  0.
         23    2    1    2    0    0 -0.15714676270E+02 -0.56274972635E+02  0.12051376432E+01  0.11579398015E+03  0.99964843254E+02 0.  0.
          5    1    3    3  502    0  0.14450786080E+01  0.95110727308E+02 -0.10321003922E+02  0.95795364310E+02  0.47000000000E+01 0.  1.
         -5    1    3    3    0  502  0.14269597662E+02 -0.38835754673E+02  0.70090879844E+01  0.42226230862E+02  0.47000000000E+01 0.  1.
        -11    1    4    4    0    0 -0.46322709933E+02 -0.55095676856E+02 -0.24260718681E+02  0.75959920582E+02  0.00000000000E+00 0. -1.
         11    1    4    4    0    0  0.30608033664E+02 -0.11792957784E+01  0.25465856324E+02  0.39834059568E+02  0.00000000000E+00 0.  1.
<mgrwt>
<rscale>  0 0.13206329E+03</rscale>
<asrwt>0</asrwt>
<pdfrwt beam="1">  1        1 0.19362215E-01 0.13798185E+03</pdfrwt>
<pdfrwt beam="2">  1       -1 0.19686335E-01 0.13798185E+03</pdfrwt>
<totfact> 0.52630704E+03</totfact>
</mgrwt>
</event>
<event>
 7    1  0.1154424E-005  0.1421981E+03  0.7546771E-02  0.1221906E+00
         -2   -1    0    0    0  501 -0.00000000000E+00  0.00000000000E+00  0.19821549510E+02  0.19821549510E+02  0.00000000000E+00 0.  1.
          2   -1    0    0  501    0  0.00000000000E+00 -0.00000000000E+00 -0.82602509084E+03  0.82602509084E+03  0.00000000000E+00 0. -1.
         23    2    1    2    0    0 -0.48349623600E+01 -0.46963520148E+02 -0.41022488721E+03  0.42510991486E+03  0.10101996113E+03 0.  0.
          5    1    1    2  502    0 -0.49573404558E+02  0.48082164339E+02 -0.11285751703E+03  0.13239458492E+03  0.47000000000E+01 0. -1.
         -5    1    1    2    0  502  0.54408366918E+02 -0.11186441909E+01 -0.28312113709E+03  0.28834214056E+03  0.47000000000E+01 0.  1.
        -11    1    3    3    0    0  0.16619887772E+02  0.25839476333E+02 -0.68759856700E+02  0.75311467256E+02  0.00000000000E+00 0. -1.
         11    1    3    3    0    0 -0.21454850132E+02 -0.72802996481E+02 -0.34146503051E+03  0.34979844761E+03  0.00000000000E+00 0.  1.
<mgrwt>
<rscale>  0 0.13381248E+03</rscale>
<asrwt>0</asrwt>
<pdfrwt beam="2">  1        2 0.12708079E+00 0.14219809E+03</pdfrwt>
<pdfrwt beam="1">  1       -2 0.30494689E-02 0.14219809E+03</pdfrwt>
<totfact> 0.13486080E+04</totfact>
</mgrwt>
</event>
<event>
 8    1  0.1154424E-005  0.1376620E+03  0.7546771E-02  0.1228397E+00
         -3   -1    0    0    0  501 -0.00000000000E+00  0.00000000000E+00  0.25064882165E+02  0.25064882165E+02  0.00000000000E+00 0.  1.
          3   -1    0    0  501    0  0.00000000000E+00 -0.00000000000E+00 -0.62742525999E+03  0.62742525999E+03  0.00000000000E+00 0. -1.
         23    2    1    2    0    0  0.44941655888E+02  0.36179049577E+02 -0.26757550040E+03  0.30091109390E+03  0.12498864730E+03 0.  0.
         23    2    1    2    0    0 -0.44941655888E+02 -0.36179049577E+02 -0.33478487743E+03  0.35157904826E+03  0.90544116089E+02 0.  0.
          5    1    3    3  502    0  0.60361497082E+02 -0.26785513972E+02 -0.89354129277E+02  0.11120802358E+03  0.47000000000E+01 0.  1.
         -5    1    3    3    0  502 -0.15419841194E+02  0.62964563549E+02 -0.17822137112E+03  0.18970307032E+03  0.47000000000E+01 0.  1.
        -11    1    4    4    0    0 -0.48466158545E+01 -0.48783569590E+02 -0.83694475925E+02  0.96995317658E+02  0.00000000000E+00 0.  1.
         11    1    4    4    0    0 -0.40095040033E+02  0.12604520013E+02 -0.25109040151E+03  0.25458373060E+03  0.00000000000E+00 0. -1.
<mgrwt>
<rscale>  0 0.12936738E+03</rscale>
<asrwt>0</asrwt>
<pdfrwt beam="2">  1        3 0.96526953E-01 0.13766204E+03</pdfrwt>
<pdfrwt beam="1">  1       -3 0.38561361E-02 0.13766204E+03</pdfrwt>
<totfact> 0.78357951E+02</totfact>
</mgrwt>
</event>
<event>
 7    1  0.1154424E-005  0.1858028E+03  0.7546771E-02  0.1188354E+00
          1   -1    0    0  501    0  0.00000000000E+00  0.00000000000E+00  0.12905158801E+04  0.12905158801E+04  0.00000000000E+00 0. -1.
         -1   -1    0    0    0  501 -0.00000000000E+00 -0.00000000000E+00 -0.16159619698E+02  0.16159619698E+02  0.00000000000E+00 0.  1.
         23    2    1    2    0    0 -0.38630996626E+02  0.27512106904E+02  0.46802555101E+03  0.47921438520E+03  0.91374179402E+02 0.  0.
          5    1    1    2  502    0  0.14579057978E+02 -0.10069964420E+03  0.34513077038E+03  0.35984761488E+03  0.47000000000E+01 0. -1.
         -5    1    1    2    0  502  0.24051938647E+02  0.73187537296E+02  0.46119993898E+03  0.46761349968E+03  0.47000000000E+01 0.  1.
        -11    1    3    3    0    0 -0.55149904013E+02  0.50322874480E+02  0.32897147718E+03  0.33733682931E+03  0.00000000000E+00 0.  1.
         11    1    3    3    0    0  0.16518907387E+02 -0.22810767576E+02  0.13905407382E+03  0.14187755589E+03  0.00000000000E+00 0. -1.
<mgrwt>
<rscale>  0 0.16030417E+03</rscale>
<asrwt>0</asrwt>
<pdfrwt beam="1">  1        1 0.19854082E+00 0.18580281E+03</pdfrwt>
<pdfrwt beam="2">  1       -1 0.24860963E-02 0.18580281E+03</pdfrwt>
<totfact> 0.48867588E+03</totfact>
</mgrwt>
</event>
<event>
 8    1  0.1154424E-005  0.2032108E+03  0.7546771E-02  0.1151190E+00
          2   -1    0    0  501    0  0.00000000000E+00  0.00000000000E+00  0.16023435701E+03  0.16023435701E+03  0.00000000000E+00 0.  1.
         -2   -1    0    0    0  501 -0.00000000000E+00 -0.00000000000E+00 -0.29529953492E+03  0.29529953492E+03  0.00000000000E+00 0. -1.
         23    2    1    2    0    0 -0.12292636174E+03  0.10275574226E+03 -0.17365751114E+03  0.26730422058E+03  0.12499992876E+03 0.  0.
         23    2    1    2    0    0  0.12292636174E+03 -0.10275574226E+03  0.38592333228E+02  0.18822967134E+03  0.90947281495E+02 0.  0.
          5    1    3    3  502    0 -0.54682767382E+02  0.96647796598E+02 -0.16376304397E+03  0.19791772585E+03  0.47000000000E+01 0.  1.
         -5    1    3    3    0  502 -0.68243594356E+02  0.61079456634E+01 -0.98944671692E+01  0.69386494734E+02  0.47000000000E+01 0.  1.
        -11    1    4    4    0    0  0.27384512754E+01 -0.30364069652E+02  0.36963846477E+02  0.47914525852E+02  0.00000000000E+00 0.  1.
         11    1    4    4    0    0  0.12018791046E+03 -0.72391672609E+02  0.16284867508E+01  0.14031514549E+03  0.00000000000E+00 0. -1.
<mgrwt>
<rscale>  0 0.19828994E+03</rscale>
<asrwt>0</asrwt>
<pdfrwt beam="1">  1        2 0.24651440E-01 0.20321077E+03</pdfrwt>
<pdfrwt beam="2">  1       -2 0.45430697E-01 0.20321077E+03</pdfrwt>
<totfact> 0.10105494E+03</totfact>
</mgrwt>
</event>
<event>
 8    1  0.1154424E-005  0.1473705E+03  0.7546771E-02  0.1212532E+00
          3   -1    0    0  501    0  0.00000000000E+00  0.00000000000E+00  0.19041075917E+03  0.19041075917E+03  0.00000000000E+00 0. -1.
         -3   -1    0    0    0  501 -0.00000000000E+00 -0.00000000000E+00 -0.96461325313E+02  0.96461325313E+02  0.00000000000E+00 0.  1.
         23    2    1    2    0    0  0.14927594177E+02 -0.76615204592E+02  0.35824370506E+02  0.15166227785E+03  0.12500135342E+03 0.  0.
         23    2    1    2    0    0 -0.14927594177E+02  0.76615204592E+02  0.58125063354E+02  0.13520980664E+03  0.93863977003E+02 0.  0.
          5    1    3    3  502    0 -0.17206630160E+02 -0.43983102130E+02  0.76633253484E+02  0.90140595372E+02  0.47000000000E+01 0. -1.
         -5    1    3    3    0  502  0.32134224337E+02 -0.32632102462E+02 -0.40808882977E+02  0.61521682476E+02  0.47000000000E+01 0. -1.
        -11    1    4    4    0    0 -0.13535544000E+02  0.87451341860E+02  0.13804923396E+02  0.89562961398E+02  0.00000000000E+00 0.  1.
         11    1    4    4    0    0 -0.13920501777E+01 -0.10836137267E+02  0.44320139957E+02  0.45646845241E+02  0.00000000000E+00 0. -1.
<mgrwt>
<rscale>  0 0.14059430E+03</rscale>
<asrwt>0</asrwt>
<pdfrwt beam="1">  1        3 0.29293963E-01 0.14737049E+03</pdfrwt>
<pdfrwt beam="2">  1       -3 0.14840204E-01 0.14737049E+03</pdfrwt>
<totfact> 0.99126238E+02</totfact>
</mgrwt>
</event>
<event>
 8    1  0.1154424E-005  0.1781666E+03  0.7546771E-02  0.1175619E+00
          2   -1    0    0  501    0  0.00000000000E+00  0.00000000000E+00  0.38016704667E+03  0.38016704667E+03  0.00000000000E+00 0. -1.
         -2   -1    0    0    0  501 -0.00000000000E+00 -0.00000000000E+00 -0.73134401969E+02  0.73134401969E+02  0.00000000000E+00 0.  1.
         23    2    1    2    0    0 -0.73009077467E+02  0.10385713050E+03  0.16220830182E+03  0.24094581792E+03  0.12500690000E+03 0.  0.
         23    2    1    2    0    0  0.73009077467E+02 -0.10385713050E+03  0.14482434287E+03  0.21235563071E+03  0.89466164880E+02 0.  0.
          5    1    3    3  502    0 -0.52189633134E+02  0.24530851355E+02  0.14622798308E+03  0.15725849265E+03  0.47000000000E+01 0.  1.
         -5    1    3    3    0  502 -0.20819444333E+02  0.79326279142E+02  0.15980318747E+02  0.83687325278E+02  0.47000000000E+01 0.  1.
        -11    1    4    4    0    0  0.35283647857E+02 -0.69269109148E+02  0.24352954149E+02  0.81462946571E+02  0.00000000000E+00 0.  1.
         11    1    4    4    0    0  0.37725429609E+02 -0.34588021349E+02  0.12047138873E+03  0.13089268414E+03  0.00000000000E+00 0. -1.
<mgrwt>
<rscale>  0 0.17215468E+03</rscale>
<asrwt>0</asrwt>
<pdfrwt beam="1">  1        2 0.58487237E-01 0.17816665E+03</pdfrwt>
<pdfrwt beam="2">  1       -2 0.11251447E-01 0.17816665E+03</pdfrwt>
<totfact> 0.45233836E+03</totfact>
</mgrwt>
</event>
<event>
 8    1  0.1154424E-005  0.1651884E+03  0.7546771E-02  0.1192426E+00
          2   -1    0    0  501    0  0.00000000000E+00  0.00000000000E+00  0.56891293733E+03  0.56891293733E+03  0.00000000000E+00 0. -1.
         -2   -1    0    0    0  501 -0.00000000000E+00 -0.00000000000E+00 -0.66999345131E+02  0.66999345131E+02  0.00000000000E+00 0.  1.
         23    2    1    2    0    0 -0.88686805252E+02  0.61620713872E+02  0.62612369042E+02  0.17665644730E+03  0.12499891925E+03 0.  0.
         23    2    1    2    0    0  0.88686805252E+02 -0.61620713872E+02  0.43930122316E+03  0.45925583516E+03  0.79170042667E+02 0.  0.
          5    1    3    3  502    0 -0.12023846816E+02  0.39081892723E+02  0.84225503071E+02  0.93744293686E+02  0.47000000000E+01 0. -1.
         -5    1    3    3    0  502 -0.76662958436E+02  0.22538821149E+02 -0.21613134029E+02  0.82912153617E+02  0.47000000000E+01 0. -1.
        -11    1    4    4    0    0  0.84071867393E+02 -0.79334178083E+02  0.37781081106E+03  0.39509872141E+03  0.00000000000E+00 0.  1.
         11    1    4    4    0    0  0.46149378595E+01  0.17713464211E+02  0.61490412095E+02  0.64157113756E+02  0.00000000000E+00 0. -1.
<mgrwt>
<rscale>  0 0.15674121E+03</rscale>
<asrwt>0</asrwt>
<pdfrwt beam="1">  1        2 0.87525064E-01 0.16518835E+03</pdfrwt>
<pdfrwt beam="2">  1       -2 0.10307592E-01 0.16518835E+03</pdfrwt>
<totfact> 0.33290336E+03</totfact>
</mgrwt>
</event>
<event>
 8    1  0.1154424E-005  0.1366380E+03  0.7546771E-02  0.1229465E+00
         -2   -1    0    0    0  501 -0.00000000000E+00  0.00000000000E+00  0.27748044920E+02  0.27748044920E+02  0.00000000000E+00 0.  1.
          2   -1    0    0  501    0  0.00000000000E+00 -0.00000000000E+00 -0.56567519286E+03  0.56567519286E+03  0.00000000000E+00 0. -1.
         23    2    1    2    0    0 -0.44033195181E+01  0.55010513572E+02 -0.23266871866E+03  0.26982340535E+03  0.12499756642E+03 0.  0.
         23    2    1    2    0    0  0.44033195181E+01 -0.55010513572E+02 -0.30525842928E+03  0.32359983242E+03  0.92133582749E+02 0.  0.
          5    1    3    3  502    0  0.42023844201E+02 -0.10048818864E+02 -0.32604969425E+02  0.54333748934E+02  0.47000000000E+01 0.  1.
         -5    1    3    3    0  502 -0.46427163719E+02  0.65059332435E+02 -0.20006374923E+03  0.21548965642E+03  0.47000000000E+01 0.  1.
        -11    1    4    4    0    0 -0.10720523791E+02 -0.47731464329E+01  0.19914240281E+01  0.11902870531E+02  0.00000000000E+00 0.  1.
         11    1    4    4    0    0  0.15123843309E+02 -0.50237367139E+02 -0.30724985331E+03  0.31169696189E+03  0.00000000000E+00 0. -1.
<mgrwt>
<rscale>  0 0.12865502E+03</rscale>
<asrwt>0</asrwt>
<pdfrwt beam="2">  1        2 0.87026957E-01 0.13663798E+03</pdfrwt>
<pdfrwt beam="1">  1       -2 0.42689298E-02 0.13663798E+03</pdfrwt>
<totfact> 0.12794219E+04</totfact>
</mgrwt>
</event>
<event>
 8    1  0.1154424E-005  0.1309194E+03  0.7546771E-02  0.1238345E+00
          2   -1    0    0  501    0  0.00000000000E+00  0.00000000000E+00  0.15163937040E+03  0.15163937040E+03  0.00000000000E+00 0. -1.
         -2   -1    0    0    0  501 -0.00000000000E+00 -0.00000000000E+00 -0.12162545187E+03  0.12162545187E+03  0.00000000000E+00 0.  1.
         23    2    1    2    0    0  0.34593848191E+02 -0.17805135347E+02 -0.53691302453E+02  0.14150137246E+03  0.12500450101E+03 0.  0.
         23    2    1    2    0    0 -0.34593848191E+02  0.17805135347E+02  0.83705220980E+02  0.13176344981E+03  0.94028110211E+02 0.  0.
          5    1    3    3  502    0  0.52670879311E+02 -0.59676024432E+02 -0.52824797822E+02  0.95645170732E+02  0.47000000000E+01 0. -1.
         -5    1    3    3    0  502 -0.18077031121E+02  0.41870889085E+02 -0.86650463128E+00  0.45856201731E+02  0.47000000000E+01 0. -1.
        -11    1    4    4    0    0 -0.29967577309E+02 -0.27088805128E+01 -0.13014718268E+02  0.32783785855E+02  0.00000000000E+00 0.  1.
         11    1    4    4    0    0 -0.46262708818E+01  0.20514015860E+02  0.96719939248E+02  0.98979663957E+02  0.00000000000E+00 0. -1.
<mgrwt>
<rscale>  0 0.12292690E+03</rscale>
<asrwt>0</asrwt>
<pdfrwt beam="1">  1        2 0.23329134E-01 0.13091937E+03</pdfrwt>
<pdfrwt beam="2">  1       -2 0.18711608E-01 0.13091937E+03</pdfrwt>
<totfact> 0.52184714E+03</totfact>
</mgrwt>
</event>
<event>
 8    1  0.1154424E-005  0.1536824E+03  0.7546771E-02  0.1205563E+00
          2   -1    0    0  501    0  0.00000000000E+00  0.00000000000E+00  0.70719219505E+02  0.70719219505E+02  0.00000000000E+00 0. -1.
         -2   -1    0    0    0  501 -0.00000000000E+00 -0.00000000000E+00 -0.29633504339E+03  0.29633504339E+03  0.00000000000E+00 0.  1.
         23    2    1    2    0    0 -0.85639300505E+02  0.25700508952E+02 -0.17321597578E+03  0.23156436095E+03  0.12499469207E+03 0.  0.
         23    2    1    2    0    0  0.85639300505E+02 -0.25700508952E+02 -0.52399848105E+02  0.13548990194E+03  0.87276362755E+02 0.  0.
          5    1    3    3  502    0 -0.11423317006E+03  0.36923360707E+02 -0.11917325401E+03  0.16922442548E+03  0.47000000000E+01 0.  1.
         -5    1    3    3    0  502  0.28593869559E+02 -0.11222851755E+02 -0.54042721774E+02  0.62339935472E+02  0.47000000000E+01 0.  1.
        -11    1    4    4    0    0 -0.97996864566E+00 -0.33092655250E+02 -0.32319100418E+02  0.46266709651E+02  0.00000000000E+00 0.  1.
         11    1    4    4    0    0  0.86619269151E+02  0.73921462987E+01 -0.20080747687E+02  0.89223192292E+02  0.00000000000E+00 0. -1.
<mgrwt>
<rscale>  0 0.14593169E+03</rscale>
<asrwt>0</asrwt>
<pdfrwt beam="1">  1        2 0.10879880E-01 0.15368240E+03</pdfrwt>
<pdfrwt beam="2">  1       -2 0.45590007E-01 0.15368240E+03</pdfrwt>
<totfact> 0.25811087E+03</totfact>
</mgrwt>
</event>
<event>
 8    1  0.1154424E-005  0.1823618E+03  0.7546771E-02  0.1170570E+00
          1   -1    0    0  501    0  0.00000000000E+00  0.00000000000E+00  0.79493066798E+03  0.79493066798E+03  0.00000000000E+00 0. -1.
         -1   -1    0    0    0  501 -0.00000000000E+00 -0.00000000000E+00 -0.39604939287E+02  0.39604939287E+02  0.00000000000E+00 0.  1.
         23    2    1    2    0    0 -0.13270893710E+03 -0.43484473983E+01  0.29982912138E+03  0.35093208209E+03  0.12500101293E+03 0.  0.
         23    2    1    2    0    0  0.13270893710E+03  0.43484473983E+01  0.45549660731E+03  0.48360352517E+03  0.93619652331E+02 0.  0.
          5    1    3    3  502    0 -0.10404435600E+02 -0.21341540674E+02  0.16993868901E+03  0.17165360952E+03  0.47000000000E+01 0.  1.
         -5    1    3    3    0  502 -0.12230450150E+03  0.16993093275E+02  0.12989043236E+03  0.17927847257E+03  0.47000000000E+01 0.  1.
        -11    1    4    4    0    0  0.70521127849E+02  0.48485428762E+02  0.26194568779E+03  0.27557142382E+03  0.00000000000E+00 0.  1.
         11    1    4    4    0    0  0.62187809256E+02 -0.44136981364E+02  0.19355091953E+03  0.20803210135E+03  0.00000000000E+00 0. -1.
<mgrwt>
<rscale>  0 0.17717035E+03</rscale>
<asrwt>0</asrwt>
<pdfrwt beam="1">  1        1 0.12229701E+00 0.18236179E+03</pdfrwt>
<pdfrwt beam="2">  1       -1 0.60930682E-02 0.18236179E+03</pdfrwt>
<totfact> 0.30040364E+03</totfact>
</mgrwt>
</event>
<event>
 8    1  0.1154424E-005  0.1338015E+03  0.7546771E-02  0.1234816E+00
          1   -1    0    0  501    0  0.00000000000E+00  0.00000000000E+00  0.30832474538E+02  0.30832474538E+02  0.00000000000E+00 0. -1.
         -1   -1    0    0    0  501 -0.00000000000E+00 -0.00000000000E+00 -0.47700227747E+03  0.47700227747E+03  0.00000000000E+00 0.  1.
         23    2    1    2    0    0 -0.29013402999E+02 -0.37901558145E+02 -0.30816760334E+03  0.33596147777E+03  0.12499814852E+03 0.  0.
         23    2    1    2    0    0  0.29013402999E+02  0.37901558145E+02 -0.13800219960E+03  0.17187327424E+03  0.90650480650E+02 0.  0.
          5    1    3    3  502    0  0.12211747674E+02  0.40260849026E+02 -0.69046876239E+02  0.80991504887E+02  0.47000000000E+01 0. -1.
         -5    1    3    3    0  502 -0.41225150673E+02 -0.78162407171E+02 -0.23912072710E+03  0.25496997288E+03  0.47000000000E+01 0. -1.
        -11    1    4    4    0    0  0.36509707223E+02  0.24803502896E+02 -0.14755321513E+03  0.15401338829E+03  0.00000000000E+00 0.  1.
         11    1    4    4    0    0 -0.74963042241E+01  0.13098055249E+02  0.95510155368E+01  0.17859885949E+02  0.00000000000E+00 0. -1.
<mgrwt>
<rscale>  0 0.12516208E+03</rscale>
<asrwt>0</asrwt>
<pdfrwt beam="1">  1        1 0.47434576E-02 0.13380151E+03</pdfrwt>
<pdfrwt beam="2">  1       -1 0.73384965E-01 0.13380151E+03</pdfrwt>
<totfact> 0.33545351E+03</totfact>
</mgrwt>
</event>
<event>
 8    1  0.1154424E-005  0.1430942E+03  0.7546771E-02  0.1219512E+00
          2   -1    0    0  501    0  0.00000000000E+00  0.00000000000E+00  0.39366577522E+03  0.39366577522E+03  0.00000000000E+00 0. -1.
         -2   -1    0    0    0  501 -0.00000000000E+00 -0.00000000000E+00 -0.76877340805E+02  0.76877340805E+02  0.00000000000E+00 0.  1.
         23    2    1    2    0    0 -0.67047596846E+02  0.18842286683E+02  0.10642561442E+02  0.14348943113E+03  0.12500216287E+03 0.  0.
         23    2    1    2    0    0  0.67047596846E+02 -0.18842286683E+02  0.30614587298E+03  0.32705368490E+03  0.91588237526E+02 0.  0.
          5    1    3    3  502    0  0.29648110226E+02 -0.15560961982E+02 -0.15916781744E+02  0.37370950200E+02  0.47000000000E+01 0.  1.
         -5    1    3    3    0  502 -0.96695707072E+02  0.34403248665E+02  0.26559343185E+02  0.10611848093E+03  0.47000000000E+01 0.  1.
        -11    1    4    4    0    0  0.22698266698E+02  0.22367149022E+02  0.28078633019E+02  0.42472465183E+02  0.00000000000E+00 0.  1.
         11    1    4    4    0    0  0.44349330147E+02 -0.41209435705E+02  0.27806723996E+03  0.28458121971E+03  0.00000000000E+00 0. -1.
<mgrwt>
<rscale>  0 0.13550262E+03</rscale>
<asrwt>0</asrwt>
<pdfrwt beam="1">  1        2 0.60563964E-01 0.14309421E+03</pdfrwt>
<pdfrwt beam="2">  1       -2 0.11827283E-01 0.14309421E+03</pdfrwt>
<totfact> 0.39818013E+03</totfact>
</mgrwt>
</event>
<event>
 8    1  0.1154424E-005  0.1246156E+03  0.7546771E-02  0.1251818E+00
         -1   -1    0    0    0  501 -0.00000000000E+00  0.00000000000E+00  0.19310674100E+02  0.19310674100E+02  0.00000000000E+00 0.  1.
          1   -1    0    0  501    0  0.00000000000E+00 -0.00000000000E+00 -0.60351966627E+03  0.60351966627E+03  0.00000000000E+00 0. -1.
         23    2    1    2    0    0 -0.46248669084E+02  0.29840290413E+02 -0.30451840646E+03  0.32902963861E+03  0.11180188230E+03 0.  0.
         23    2    1    2    0    0  0.46248669084E+02 -0.29840290413E+02 -0.27969058571E+03  0.29380070176E+03  0.71152275407E+02 0.  0.
          5    1    3    3  502    0  0.32240332389E+02  0.30887193528E+02 -0.90546245947E+02  0.10106517903E+03  0.47000000000E+01 0. -1.
         -5    1    3    3    0  502 -0.78489001473E+02 -0.10469031152E+01 -0.21397216051E+03  0.22796445958E+03  0.47000000000E+01 0.  1.
        -11    1    4    4    0    0 -0.14912163487E+02 -0.14867852834E+02 -0.32571469210E+02  0.38785645209E+02  0.00000000000E+00 0. -1.
         11    1    4    4    0    0  0.61160832571E+02 -0.14972437578E+02 -0.24711911650E+03  0.25501505655E+03  0.00000000000E+00 0.  1.
<mgrwt>
<rscale>  0 0.11486466E+03</rscale>
<asrwt>0</asrwt>
<pdfrwt beam="2">  1        1 0.92849167E-01 0.12461558E+03</pdfrwt>
<pdfrwt beam="1">  1       -1 0.29708733E-02 0.12461558E+03</pdfrwt>
<totfact> 0.12621669E+04</totfact>
</mgrwt>
</event>
<event>
 8    1  0.1154424E-005  0.1538409E+03  0.7546771E-02  0.1204132E+00
         -1   -1    0    0    0  501 -0.00000000000E+00  0.00000000000E+00  0.22621151683E+03  0.22621151683E+03  0.00000000000E+00 0.  1.
          1   -1    0    0  501    0  0.00000000000E+00 -0.00000000000E+00 -0.14228119544E+03  0.14228119544E+03  0.00000000000E+00 0. -1.
         23    2    1    2    0    0  0.48151080237E+02  0.75655451174E+02  0.15773925783E+03  0.22033765240E+03  0.12499893513E+03 0.  0.
         23    2    1    2    0    0 -0.48151080237E+02 -0.75655451174E+02 -0.73808936439E+02  0.14815505987E+03  0.91977654061E+02 0.  0.
          5    1    3    3  502    0  0.31762777592E+02 -0.13518695848E+02 -0.37881671093E+01  0.35043820966E+02  0.47000000000E+01 0.  1.
         -5    1    3    3    0  502  0.16388302644E+02  0.89174147022E+02  0.16152742494E+03  0.18529383143E+03  0.47000000000E+01 0.  1.
        -11    1    4    4    0    0 -0.24801610965E+02  0.13754005315E+02 -0.41493832959E+02  0.50259633328E+02  0.00000000000E+00 0. -1.
         11    1    4    4    0    0 -0.23349469272E+02 -0.89409456489E+02 -0.32315103480E+02  0.97895426542E+02  0.00000000000E+00 0.  1.
<mgrwt>
<rscale>  0 0.14706061E+03</rscale>
<asrwt>0</asrwt>
<pdfrwt beam="2">  1        1 0.21889415E-01 0.15384085E+03</pdfrwt>
<pdfrwt beam="1">  1       -1 0.34801772E-01 0.15384085E+03</pdfrwt>
<totfact> 0.17611169E+03</totfact>
</mgrwt>
</event>
<event>
 8    1  0.1154424E-005  0.1327331E+03  0.7546771E-02  0.1236592E+00
          2   -1    0    0  501    0  0.00000000000E+00  0.00000000000E+00  0.74432236764E+03  0.74432236764E+03  0.00000000000E+00 0.  1.
         -2   -1    0    0    0  501 -0.00000000000E+00 -0.00000000000E+00 -0.18460032421E+02  0.18460032421E+02  0.00000000000E+00 0. -1.
         23    2    1    2    0    0  0.17838153768E+02 -0.40974845816E+02  0.38686170274E+03  0.40899884121E+03  0.12498374831E+03 0.  0.
         23    2    1    2    0    0 -0.17838153768E+02  0.40974845816E+02  0.33900063248E+03  0.35378355885E+03  0.90797797196E+02 0.  0.
          5    1    3    3  502    0 -0.29757789410E+02 -0.58651116751E+02  0.11644659725E+03  0.13381845739E+03  0.47000000000E+01 0.  1.
         -5    1    3    3    0  502  0.47595943178E+02  0.17676270935E+02  0.27041510549E+03  0.27518038382E+03  0.47000000000E+01 0.  1.
        -11    1    4    4    0    0 -0.55676875719E+01 -0.29307779358E+02  0.10334920119E+03  0.10756859422E+03  0.00000000000E+00 0.  1.
         11    1    4    4    0    0 -0.12270466196E+02  0.70282625174E+02  0.23565143129E+03  0.24621496463E+03  0.00000000000E+00 0. -1.
<mgrwt>
<rscale>  0 0.12403071E+03</rscale>
<asrwt>0</asrwt>
<pdfrwt beam="1">  1        2 0.11451111E+00 0.13273310E+03</pdfrwt>
<pdfrwt beam="2">  1       -2 0.28400056E-02 0.13273310E+03</pdfrwt>
<totfact> 0.16945681E+04</totfact>
</mgrwt>
</event>
<event>
 8    1  0.1154424E-005  0.1520629E+03  0.7546771E-02  0.1207022E+00
         -1   -1    0    0    0  501 -0.00000000000E+00  0.00000000000E+00  0.89734395921E+02  0.89734395921E+02  0.00000000000E+00 0.  1.
          1   -1    0    0  501    0  0.00000000000E+00 -0.00000000000E+00 -0.21629197608E+03  0.21629197608E+03  0.00000000000E+00 0. -1.
         23    2    1    2    0    0 -0.32488252535E+02  0.80267770249E+02 -0.85516346780E+02  0.17445968002E+03  0.12499893157E+03 0.  0.
         23    2    1    2    0    0  0.32488252535E+02 -0.80267770249E+02 -0.41041233380E+02  0.13156669198E+03  0.90149931263E+02 0.  0.
          5    1    3    3  502    0 -0.21774133822E+02 -0.32068737483E+02 -0.24344431363E+02  0.46013673683E+02  0.47000000000E+01 0.  1.
         -5    1    3    3    0  502 -0.10714118713E+02  0.11233650773E+03 -0.61171915417E+02  0.12844600634E+03  0.47000000000E+01 0.  1.
        -11    1    4    4    0    0  0.50800598484E+02 -0.16102530098E+02 -0.12116676513E+00  0.53291715710E+02  0.00000000000E+00 0.  1.
         11    1    4    4    0    0 -0.18312345949E+02 -0.64165240151E+02 -0.40920066615E+02  0.78274976267E+02  0.00000000000E+00 0. -1.
<mgrwt>
<rscale>  0 0.14479263E+03</rscale>
<asrwt>0</asrwt>
<pdfrwt beam="2">  1        1 0.33275688E-01 0.15206293E+03</pdfrwt>
<pdfrwt beam="1">  1       -1 0.13805292E-01 0.15206293E+03</pdfrwt>
<totfact> 0.46976485E+03</totfact>
</mgrwt>
</event>
<event>
 8    1  0.1154424E-005  0.1465931E+03  0.7546771E-02  0.1214372E+00
          2   -1    0    0  501    0  0.00000000000E+00  0.00000000000E+00  0.51812251151E+03  0.51812251151E+03  0.00000000000E+00 0. -1.
         -2   -1    0    0    0  501 -0.00000000000E+00 -0.00000000000E+00 -0.34144059736E+02  0.34144059736E+02  0.00000000000E+00 0.  1.
         23    2    1    2    0    0  0.76297794768E+02 -0.64186591529E+01  0.27576406057E+03  0.31230651991E+03  0.12500797017E+03 0.  0.
         23    2    1    2    0    0 -0.76297794768E+02  0.64186591529E+01  0.20821439120E+03  0.23996005133E+03  0.91460597301E+02 0.  0.
          5    1    3    3  502    0 -0.17341806780E+02  0.29944240749E+02  0.27501527329E+02  0.44450194846E+02  0.47000000000E+01 0.  1.
         -5    1    3    3    0  502  0.93639601548E+02 -0.36362899902E+02  0.24826253324E+03  0.26785632507E+03  0.47000000000E+01 0.  1.
        -11    1    4    4    0    0 -0.31546356759E+02 -0.42532063053E+02  0.93000175800E+02  0.10701953892E+03  0.00000000000E+00 0. -1.
         11    1    4    4    0    0 -0.44751438009E+02  0.48950722206E+02  0.11521421540E+03  0.13294051241E+03  0.00000000000E+00 0.  1.
<mgrwt>
<rscale>  0 0.13922802E+03</rscale>
<asrwt>0</asrwt>
<pdfrwt beam="1">  1        2 0.79711149E-01 0.14659313E+03</pdfrwt>
<pdfrwt beam="2">  1       -2 0.52529327E-02 0.14659313E+03</pdfrwt>
<totfact> 0.10390016E+04</totfact>
</mgrwt>
</event>
<event>
 8    1  0.1154424E-005  0.1584925E+03  0.7546771E-02  0.1198401E+00
         -2   -1    0    0    0  501 -0.00000000000E+00  0.00000000000E+00  0.76031448288E+02  0.76031448288E+02  0.00000000000E+00 0.  1.
          2   -1    0    0  501    0  0.00000000000E+00 -0.00000000000E+00 -0.27992695293E+03  0.27992695293E+03  0.00000000000E+00 0. -1.
         23    2    1    2    0    0  0.80715833390E+02 -0.54582858911E+02 -0.10323009242E+03  0.18914628027E+03  0.12500211643E+03 0.  0.
         23    2    1    2    0    0 -0.80715833390E+02  0.54582858911E+02 -0.10066541222E+03  0.16681212095E+03  0.90545150227E+02 0.  0.
          5    1    3    3  502    0  0.26856293441E+02 -0.88115298521E+02 -0.77676076603E+02  0.12058701923E+03  0.47000000000E+01 0. -1.
         -5    1    3    3    0  502  0.53859539950E+02  0.33532439611E+02 -0.25554015812E+02  0.68559261037E+02  0.47000000000E+01 0. -1.
        -11    1    4    4    0    0 -0.19366575587E+02  0.45632988008E+02 -0.11766138146E+01  0.49586472596E+02  0.00000000000E+00 0.  1.
         11    1    4    4    0    0 -0.61349257803E+02  0.89498709031E+01 -0.99488798410E+02  0.11722564835E+03  0.00000000000E+00 0. -1.
<mgrwt>
<rscale>  0 0.15169837E+03</rscale>
<asrwt>0</asrwt>
<pdfrwt beam="2">  1        2 0.43065684E-01 0.15849247E+03</pdfrwt>
<pdfrwt beam="1">  1       -2 0.11697146E-01 0.15849247E+03</pdfrwt>
<totfact> 0.58601830E+03</totfact>
</mgrwt>
</event>
<event>
 8    1  0.1154424E-005  0.1849128E+03  0.7546771E-02  0.1168390E+00
          1   -1    0    0  501    0  0.00000000000E+00  0.00000000000E+00  0.62108840254E+03  0.62108840254E+03  0.00000000000E+00 0. -1.
         -1   -1    0    0    0  501 -0.00000000000E+00 -0.00000000000E+00 -0.56810295426E+02  0.56810295426E+02  0.00000000000E+00 0.  1.
         23    2    1    2    0    0 -0.12340691496E+02  0.13570721814E+03  0.17096413397E+03  0.25183624422E+03  0.12499606824E+03 0.  0.
         23    2    1    2    0    0  0.12340691496E+02 -0.13570721814E+03  0.39331397315E+03  0.42606245375E+03  0.90909797602E+02 0.  0.
          5    1    3    3  502    0 -0.66385987116E+02  0.99385510108E+02  0.10898823221E+03  0.16181811909E+03  0.47000000000E+01 0.  1.
         -5    1    3    3    0  502  0.54045295621E+02  0.36321708033E+02  0.61975901754E+02  0.90018125127E+02  0.47000000000E+01 0.  1.
        -11    1    4    4    0    0  0.39717463033E+02 -0.80512528457E+02  0.14774379335E+03  0.17288138298E+03  0.00000000000E+00 0.  1.
         11    1    4    4    0    0 -0.27376771538E+02 -0.55194689684E+02  0.24557017980E+03  0.25318107077E+03  0.00000000000E+00 0. -1.
<mgrwt>
<rscale>  0 0.17939471E+03</rscale>
<asrwt>0</asrwt>
<pdfrwt beam="1">  1        1 0.95552057E-01 0.18491284E+03</pdfrwt>
<pdfrwt beam="2">  1       -1 0.87400459E-02 0.18491284E+03</pdfrwt>
<totfact> 0.24893013E+03</totfact>
</mgrwt>
</event>
<event>
 8    1  0.1154424E-005  0.1389252E+03  0.7546771E-02  0.1225960E+00
         -2   -1    0    0    0  501 -0.00000000000E+00  0.00000000000E+00  0.40066235808E+03  0.40066235808E+03  0.00000000000E+00 0.  1.
          2   -1    0    0  501    0  0.00000000000E+00 -0.00000000000E+00 -0.39027330414E+02  0.39027330414E+02  0.00000000000E+00 0. -1.
         23    2    1    2    0    0  0.57837909516E+01  0.60351567046E+02  0.22384420325E+03  0.26345099699E+03  0.12499774639E+03 0.  0.
         23    2    1    2    0    0 -0.57837909516E+01 -0.60351567046E+02  0.13779082442E+03  0.17623869151E+03  0.91640608948E+02 0.  0.
          5    1    3    3  502    0  0.28194720711E+02  0.77674648331E+02  0.21927663001E+03  0.23437709730E+03  0.47000000000E+01 0. -1.
         -5    1    3    3    0  502 -0.22410929759E+02 -0.17323081285E+02  0.45675732424E+01  0.29073899691E+02  0.47000000000E+01 0. -1.
        -11    1    4    4    0    0 -0.33323889006E+02 -0.63471903243E+01  0.98049867201E+02  0.10375232461E+03  0.00000000000E+00 0.  1.
         11    1    4    4    0    0  0.27540098055E+02 -0.54004376722E+02  0.39740957217E+02  0.72486366901E+02  0.00000000000E+00 0. -1.
<mgrwt>
<rscale>  0 0.13101349E+03</rscale>
<asrwt>0</asrwt>
<pdfrwt beam="2">  1        2 0.60042049E-02 0.13892516E+03</pdfrwt>
<pdfrwt beam="1">  1       -2 0.61640360E-01 0.13892516E+03</pdfrwt>
<totfact> 0.29565696E+03</totfact>
</mgrwt>
</event>
<event>
 8    1  0.1154424E-005  0.1789433E+03  0.7546771E-02  0.1175325E+00
         -2   -1    0    0    0  501 -0.00000000000E+00  0.00000000000E+00  0.21848688581E+02  0.21848688581E+02  0.00000000000E+00 0.  1.
          2   -1    0    0  501    0  0.00000000000E+00 -0.00000000000E+00 -0.12721460296E+04  0.12721460296E+04  0.00000000000E+00 0. -1.
         23    2    1    2    0    0 -0.64845822821E+00  0.12805709660E+03 -0.65060256553E+03  0.67476246932E+03  0.12498660425E+03 0.  0.
         23    2    1    2    0    0  0.64845822821E+00 -0.12805709660E+03 -0.59969477548E+03  0.61923224885E+03  0.86114538775E+02 0.  0.
          5    1    3    3  502    0  0.42554303261E+02  0.25788968896E+02 -0.87212735337E+02  0.10051910688E+03  0.47000000000E+01 0. -1.
         -5    1    3    3    0  502 -0.43202761489E+02  0.10226812771E+03 -0.56338983019E+03  0.57424336244E+03  0.47000000000E+01 0. -1.
        -11    1    4    4    0    0 -0.47028056330E+00 -0.10506685614E+03 -0.57843155695E+03  0.58789653128E+03  0.00000000000E+00 0. -1.
         11    1    4    4    0    0  0.11187387915E+01 -0.22990240463E+02 -0.21263218536E+02  0.31335717568E+02  0.00000000000E+00 0.  1.
<mgrwt>
<rscale>  0 0.17244169E+03</rscale>
<asrwt>0</asrwt>
<pdfrwt beam="2">  1        2 0.19571481E+00 0.17894326E+03</pdfrwt>
<pdfrwt beam="1">  1       -2 0.33613361E-02 0.17894326E+03</pdfrwt>
<totfact> 0.64126627E+03</totfact>
</mgrwt>
</event>
<event>
 8    1  0.1154424E-005  0.1357828E+03  0.7546771E-02  0.1231473E+00
          2   -1    0    0  501    0  0.00000000000E+00  0.00000000000E+00  0.61229716325E+03  0.61229716325E+03  0.00000000000E+00 0. -1.
         -2   -1    0    0    0  501 -0.00000000000E+00 -0.00000000000E+00 -0.24269445615E+02  0.24269445615E+02  0.00000000000E+00 0.  1.
         23    2    1    2    0    0  0.28314130198E+01 -0.52976775512E+02  0.28110232891E+03  0.31217860573E+03  0.12498962723E+03 0.  0.
         23    2    1    2    0    0 -0.28314130198E+01  0.52976775512E+02  0.30692538873E+03  0.32438800314E+03  0.90608093958E+02 0.  0.
          5    1    3    3  502    0  0.74734236152E+01 -0.51338579816E+02  0.29347240400E+03  0.29805979894E+03  0.47000000000E+01 0.  1.
         -5    1    3    3    0  502 -0.46420105954E+01 -0.16381956959E+01 -0.12370075086E+02  0.14118806789E+02  0.47000000000E+01 0.  1.
        -11    1    4    4    0    0 -0.22601102371E+02  0.60327013140E+02  0.29076704448E+03  0.29781811983E+03  0.00000000000E+00 0. -1.
         11    1    4    4    0    0  0.19769689351E+02 -0.73502376275E+01  0.16158344247E+02  0.26569883308E+02  0.00000000000E+00 0.  1.
<mgrwt>
<rscale>  0 0.12732914E+03</rscale>
<asrwt>0</asrwt>
<pdfrwt beam="1">  1        2 0.94199552E-01 0.13578278E+03</pdfrwt>
<pdfrwt beam="2">  1       -2 0.37337613E-02 0.13578278E+03</pdfrwt>
<totfact> 0.14265602E+04</totfact>
</mgrwt>
</event>
<event>
 7    1  0.1154424E-005  0.3104418E+03  0.7546771E-02  0.1080134E+00
          2   -1    0    0  501    0  0.00000000000E+00  0.00000000000E+00  0.33280394368E+03  0.33280394368E+03  0.00000000000E+00 0. -1.
         -2   -1    0    0    0  501 -0.00000000000E+00 -0.00000000000E+00 -0.72395564081E+02  0.72395564081E+02  0.00000000000E+00 0.  1.
         23    2    1    2    0    0  0.18957637293E+02 -0.18129588096E+02  0.24819968850E+03  0.26577602365E+03  0.91354996575E+02 0.  0.
          5    1    1    2  502    0 -0.65689531941E+01 -0.16894329974E+02  0.68945496142E+02  0.71443270989E+02  0.47000000000E+01 0. -1.
         -5    1    1    2    0  502 -0.12388684099E+02  0.35023918071E+02 -0.56736805039E+02  0.67980213126E+02  0.47000000000E+01 0.  1.
        -11    1    3    3    0    0  0.24136546371E+02  0.19636745560E+02  0.26642329689E+02  0.40963256440E+02  0.00000000000E+00 0. -1.
         11    1    3    3    0    0 -0.51789090777E+01 -0.37766333656E+02  0.22155735881E+03  0.22481276721E+03  0.00000000000E+00 0.  1.
<mgrwt>
<rscale>  0 0.31044181E+03</rscale>
<asrwt>0</asrwt>
<pdfrwt beam="1">  1        2 0.51200606E-01 0.31044181E+03</pdfrwt>
<pdfrwt beam="2">  1       -2 0.11137779E-01 0.31044181E+03</pdfrwt>
<totfact> 0.54426236E+03</totfact>
</mgrwt>
</event>
<event>
 8    1  0.1154424E-005  0.1256134E+03  0.7546771E-02  0.1249181E+00
          3   -1    0    0  501    0  0.00000000000E+00  0.00000000000E+00  0.52097226003E+03  0.52097226003E+03  0.00000000000E+00 0. -1.
         -3   -1    0    0    0  501 -0.00000000000E+00 -0.00000000000E+00 -0.24655921096E+02  0.24655921096E+02  0.00000000000E+00 0.  1.
         23    2    1    2    0    0  0.32114847702E+01 -0.11972663088E+02  0.20982603138E+03  0.24455200441E+03  0.12500024448E+03 0.  0.
         23    2    1    2    0    0 -0.32114847702E+01  0.11972663088E+02  0.28649030755E+03  0.30107617672E+03  0.91741536769E+02 0.  0.
          5    1    3    3  502    0 -0.25202736571E+02 -0.59267817322E+02  0.14845779065E+03  0.16189397057E+03  0.47000000000E+01 0.  1.
         -5    1    3    3    0  502  0.28414221341E+02  0.47295154234E+02  0.61368240730E+02  0.82658033843E+02  0.47000000000E+01 0.  1.
        -11    1    4    4    0    0 -0.22900810376E+02  0.47035489032E+02  0.16677053115E+03  0.17478327839E+03  0.00000000000E+00 0. -1.
         11    1    4    4    0    0  0.19689325606E+02 -0.35062825944E+02  0.11971977640E+03  0.12629289832E+03  0.00000000000E+00 0.  1.
<mgrwt>
<rscale>  0 0.11638595E+03</rscale>
<asrwt>0</asrwt>
<pdfrwt beam="1">  1        3 0.80149570E-01 0.12561337E+03</pdfrwt>
<pdfrwt beam="2">  1       -3 0.37932190E-02 0.12561337E+03</pdfrwt>
<totfact> 0.11939022E+03</totfact>
</mgrwt>
</event>
<event>
 8    1  0.1154424E-005  0.1446271E+03  0.7546771E-02  0.1217124E+00
          2   -1    0    0  501    0  0.00000000000E+00  0.00000000000E+00  0.51866985587E+02  0.51866985587E+02  0.00000000000E+00 0. -1.
         -2   -1    0    0    0  501 -0.00000000000E+00 -0.00000000000E+00 -0.33959582521E+03  0.33959582521E+03  0.00000000000E+00 0.  1.
         23    2    1    2    0    0  0.71877718699E+02  0.11183332866E+02 -0.19058368978E+03  0.23924705186E+03  0.12500214251E+03 0.  0.
         23    2    1    2    0    0 -0.71877718699E+02 -0.11183332866E+02 -0.97145149839E+02  0.15221575894E+03  0.91874826541E+02 0.  0.
          5    1    3    3  502    0  0.10589379848E+03  0.34806900659E+01 -0.11847970556E+03  0.15901302584E+03  0.47000000000E+01 0.  1.
         -5    1    3    3    0  502 -0.34016079777E+02  0.77026428006E+01 -0.72103984226E+02  0.80234026016E+02  0.47000000000E+01 0.  1.
        -11    1    4    4    0    0 -0.92903331740E+02 -0.18802952230E+02 -0.80041580686E+02  0.12406141503E+03  0.00000000000E+00 0. -1.
         11    1    4    4    0    0  0.21025613040E+02  0.76196193631E+01 -0.17103569153E+02  0.28154343905E+02  0.00000000000E+00 0.  1.
<mgrwt>
<rscale>  0 0.13721635E+03</rscale>
<asrwt>0</asrwt>
<pdfrwt beam="1">  1        2 0.79795363E-02 0.14462714E+03</pdfrwt>
<pdfrwt beam="2">  1       -2 0.52245511E-01 0.14462714E+03</pdfrwt>
<totfact> 0.28872362E+03</totfact>
</mgrwt>
</event>
<event>
 8    1  0.1154424E-005  0.1349242E+03  0.7546771E-02  0.1232834E+00
          1   -1    0    0  501    0  0.00000000000E+00  0.00000000000E+00  0.84765128028E+03  0.84765128028E+03  0.00000000000E+00 0. -1.
         -1   -1    0    0    0  501 -0.00000000000E+00 -0.00000000000E+00 -0.17569762841E+02  0.17569762841E+02  0.00000000000E+00 0.  1.
         23    2    1    2    0    0 -0.43799395597E+02  0.25716774357E+02  0.37925571260E+03  0.40254123748E+03  0.12499925117E+03 0.  0.
         23    2    1    2    0    0  0.43799395597E+02 -0.25716774357E+02  0.45082580484E+03  0.46267980565E+03  0.90823767276E+02 0.  0.
          5    1    3    3  502    0 -0.65673409781E+02 -0.11623073890E+02  0.33044086168E+03  0.33713698353E+03  0.47000000000E+01 0. -1.
         -5    1    3    3    0  502  0.21874014184E+02  0.37339848248E+02  0.48814850919E+02  0.65404253944E+02  0.47000000000E+01 0. -1.
        -11    1    4    4    0    0  0.10371923694E+02  0.33956034164E+02  0.14215780133E+03  0.14652450149E+03  0.00000000000E+00 0.  1.
         11    1    4    4    0    0  0.33427471903E+02 -0.59672808521E+02  0.30866800352E+03  0.31615530416E+03  0.00000000000E+00 0. -1.
<mgrwt>
<rscale>  0 0.12644147E+03</rscale>
<asrwt>0</asrwt>
<pdfrwt beam="1">  1        1 0.13040786E+00 0.13492425E+03</pdfrwt>
<pdfrwt beam="2">  1       -1 0.27030411E-02 0.13492425E+03</pdfrwt>
<totfact> 0.89163871E+03</totfact>
</mgrwt>
</event>
<event>
 8    1  0.1154424E-005  0.1859280E+03  0.7546771E-02  0.1165875E+00
          2   -1    0    0  501    0  0.00000000000E+00  0.00000000000E+00  0.78983145776E+03  0.78983145776E+03  0.00000000000E+00 0. -1.
         -2   -1    0    0    0  501 -0.00000000000E+00 -0.00000000000E+00 -0.41755403794E+02  0.41755403794E+02  0.00000000000E+00 0.  1.
         23    2    1    2    0    0  0.96077981621E+02  0.98555092720E+02  0.31089240814E+03  0.36224760186E+03  0.12500060306E+03 0.  0.
         23    2    1    2    0    0 -0.96077981621E+02 -0.98555092720E+02  0.43718364583E+03  0.46933925969E+03  0.10102334212E+03 0.  0.
          5    1    3    3  502    0  0.10391307185E+03  0.10489434661E+03  0.18916357241E+03  0.24001186966E+03  0.47000000000E+01 0.  1.
         -5    1    3    3    0  502 -0.78350902337E+01 -0.63392538887E+01  0.12172883573E+03  0.12223573220E+03  0.47000000000E+01 0.  1.
        -11    1    4    4    0    0 -0.85159073720E+01  0.17560584822E+02  0.21935563525E+02  0.29360922410E+02  0.00000000000E+00 0.  1.
         11    1    4    4    0    0 -0.87562074249E+02 -0.11611567754E+03  0.41524808230E+03  0.43997833728E+03  0.00000000000E+00 0. -1.
<mgrwt>
<rscale>  0 0.18200701E+03</rscale>
<asrwt>0</asrwt>
<pdfrwt beam="1">  1        2 0.12151252E+00 0.18592804E+03</pdfrwt>
<pdfrwt beam="2">  1       -2 0.64239089E-02 0.18592804E+03</pdfrwt>
<totfact> 0.47282932E+03</totfact>
</mgrwt>
</event>
<event>
 8    1  0.1154424E-005  0.1368071E+03  0.7546771E-02  0.1227920E+00
          1   -1    0    0  501    0  0.00000000000E+00  0.00000000000E+00  0.21714183263E+02  0.21714183263E+02  0.00000000000E+00 0. -1.
         -1   -1    0    0    0  501 -0.00000000000E+00 -0.00000000000E+00 -0.77178167866E+03  0.77178167866E+03  0.00000000000E+00 0.  1.
         23    2    1    2    0    0  0.58463873831E+02  0.26070664201E+02 -0.52840790726E+03  0.54583065546E+03  0.12090692252E+03 0.  0.
         23    2    1    2    0    0 -0.58463873831E+02 -0.26070664201E+02 -0.22165958815E+03  0.24766520647E+03  0.90040976243E+02 0.  0.
          5    1    3    3  502    0  0.31616773884E+02 -0.48039539399E+02 -0.21090258718E+03  0.21865362795E+03  0.47000000000E+01 0. -1.
         -5    1    3    3    0  502  0.26847099947E+02  0.74110203600E+02 -0.31750532008E+03  0.32717702751E+03  0.47000000000E+01 0.  1.
        -11    1    4    4    0    0 -0.11769304082E+02  0.31359312584E+02 -0.97774737488E+02  0.10335290173E+03  0.00000000000E+00 0.  1.
         11    1    4    4    0    0 -0.46694569749E+02 -0.57429976785E+02 -0.12388485066E+03  0.14431230474E+03  0.00000000000E+00 0. -1.
<mgrwt>
<rscale>  0 0.12968780E+03</rscale>
<asrwt>0</asrwt>
<pdfrwt beam="1">  1        1 0.33406434E-02 0.13680712E+03</pdfrwt>
<pdfrwt beam="2">  1       -1 0.11873565E+00 0.13680712E+03</pdfrwt>
<totfact> 0.19296815E+03</totfact>
</mgrwt>
</event>
<event>
 8    1  0.1154424E-005  0.1688649E+03  0.7546771E-02  0.1186229E+00
         -1   -1    0    0    0  501 -0.00000000000E+00  0.00000000000E+00  0.21088751576E+02  0.21088751576E+02  0.00000000000E+00 0.  1.
          1   -1    0    0  501    0  0.00000000000E+00 -0.00000000000E+00 -0.11590429713E+04  0.11590429713E+04  0.00000000000E+00 0. -1.
         23    2    1    2    0    0  0.10139939693E+03 -0.51139448809E+02 -0.62595781625E+03  0.64833521297E+03  0.12497311605E+03 0.  0.
         23    2    1    2    0    0 -0.10139939693E+03  0.51139448809E+02 -0.51199640344E+03  0.53179650987E+03  0.88148340032E+02 0.  0.
          5    1    3    3  502    0  0.96597704023E+02  0.18867980002E+02 -0.36601958324E+03  0.37905084409E+03  0.47000000000E+01 0.  1.
         -5    1    3    3    0  502  0.48016929079E+01 -0.70007428811E+02 -0.25993823301E+03  0.26928436888E+03  0.47000000000E+01 0.  1.
        -11    1    4    4    0    0 -0.84499940909E+02  0.58154017914E+02 -0.49879636821E+03  0.50923466767E+03  0.00000000000E+00 0.  1.
         11    1    4    4    0    0 -0.16899456021E+02 -0.70145691044E+01 -0.13200035231E+02  0.22561842204E+02  0.00000000000E+00 0. -1.
<mgrwt>
<rscale>  0 0.16220521E+03</rscale>
<asrwt>0</asrwt>
<pdfrwt beam="2">  1        1 0.17831435E+00 0.16886492E+03</pdfrwt>
<pdfrwt beam="1">  1       -1 0.32444225E-02 0.16886492E+03</pdfrwt>
<totfact> 0.40637747E+03</totfact>
</mgrwt>
</event>
<event>
 8    1  0.1154424E-005  0.1305898E+03  0.7546771E-02  0.1240085E+00
          3   -1    0    0  501    0  0.00000000000E+00  0.00000000000E+00  0.39872530239E+03  0.39872530239E+03  0.00000000000E+00 0.  1.
         -3   -1    0    0    0  501 -0.00000000000E+00 -0.00000000000E+00 -0.35323221777E+02  0.35323221777E+02  0.00000000000E+00 0. -1.
         23    2    1    2    0    0 -0.37184127128E+02  0.68189367533E+01  0.15043588879E+03  0.19921009824E+03  0.12499819756E+03 0.  0.
         23    2    1    2    0    0  0.37184127128E+02 -0.68189367533E+01  0.21296619182E+03  0.23483842594E+03  0.91462179218E+02 0.  0.
          5    1    3    3  502    0 -0.65030381343E+02  0.40263504579E+02  0.12999421966E+03  0.15089959391E+03  0.47000000000E+01 0. -1.
         -5    1    3    3    0  502  0.27846254215E+02 -0.33444567825E+02  0.20441669134E+02  0.48310504322E+02  0.47000000000E+01 0. -1.
        -11    1    4    4    0    0 -0.44947725098E+01  0.37427801552E+02  0.93048191893E+02  0.10039426938E+03  0.00000000000E+00 0.  1.
         11    1    4    4    0    0  0.41678899638E+02 -0.44246738306E+02  0.11991799993E+03  0.13444415656E+03  0.00000000000E+00 0. -1.
<mgrwt>
<rscale>  0 0.12184417E+03</rscale>
<asrwt>0</asrwt>
<pdfrwt beam="1">  1        3 0.61342351E-01 0.13058984E+03</pdfrwt>
<pdfrwt beam="2">  1       -3 0.54343421E-02 0.13058984E+03</pdfrwt>
<totfact> 0.12016733E+03</totfact>
</mgrwt>
</event>
<event>
 8    1  0.1154424E-005  0.1705762E+03  0.7546771E-02  0.1184422E+00
         -1   -1    0    0    0  501 -0.00000000000E+00  0.00000000000E+00  0.15317368969E+03  0.15317368969E+03  0.00000000000E+00 0.  1.
          1   -1    0    0  501    0  0.00000000000E+00 -0.00000000000E+00 -0.16280332080E+03  0.16280332080E+03  0.00000000000E+00 0. -1.
         23    2    1    2    0    0  0.97597149271E+02  0.62816371740E+02 -0.78974096251E+01  0.17075893520E+03  0.12500057907E+03 0.  0.
         23    2    1    2    0    0 -0.97597149271E+02 -0.62816371740E+02 -0.17322214805E+01  0.14521807529E+03  0.87259318667E+02 0.  0.
          5    1    3    3  502    0  0.63834903481E+02  0.86207316279E+01  0.52127240808E+02  0.82997296043E+02  0.47000000000E+01 0. -1.
         -5    1    3    3    0  502  0.33762245790E+02  0.54195640112E+02 -0.60024650433E+02  0.87761639157E+02  0.47000000000E+01 0. -1.
        -11    1    4    4    0    0 -0.54534497450E+02 -0.50737573881E+02  0.39565383209E+02  0.84342944956E+02  0.00000000000E+00 0.  1.
         11    1    4    4    0    0 -0.43062651821E+02 -0.12078797859E+02 -0.41297604690E+02  0.60875130330E+02  0.00000000000E+00 0. -1.
<mgrwt>
<rscale>  0 0.16384617E+03</rscale>
<asrwt>0</asrwt>
<pdfrwt beam="2">  1        1 0.25046665E-01 0.17057621E+03</pdfrwt>
<pdfrwt beam="1">  1       -1 0.23565183E-01 0.17057621E+03</pdfrwt>
<totfact> 0.28680384E+03</totfact>
</mgrwt>
</event>
<event>
 7    1  0.1154424E-005  0.2418157E+03  0.7546771E-02  0.1123105E+00
          4   -1    0    0  501    0  0.00000000000E+00  0.00000000000E+00  0.17209059876E+03  0.17209059876E+03  0.00000000000E+00 0. -1.
         -4   -1    0    0    0  501 -0.00000000000E+00 -0.00000000000E+00 -0.31739126075E+03  0.31739126075E+03  0.00000000000E+00 0.  1.
         23    2    1    2    0    0  0.19644906212E+03  0.21225065993E+02 -0.11793565315E+03  0.24612266178E+03  0.87320151870E+02 0.  0.
          5    1    1    2  502    0 -0.21803395441E+03 -0.20128033612E+02 -0.30110147799E+02  0.22107160381E+03  0.47000000000E+01 0. -1.
         -5    1    1    2    0  502  0.21584892286E+02 -0.10970323816E+01  0.27451389548E+01  0.22287593924E+02  0.47000000000E+01 0.  1.
        -11    1    3    3    0    0  0.19362649362E+03  0.39115360613E+02 -0.10381118977E+03  0.22315464052E+03  0.00000000000E+00 0.  1.
         11    1    3    3    0    0  0.28225685036E+01 -0.17890294620E+02 -0.14124463379E+02  0.22968021253E+02  0.00000000000E+00 0. -1.
<mgrwt>
<rscale>  0 0.23509333E+03</rscale>
<asrwt>0</asrwt>
<pdfrwt beam="1">  1        4 0.26475477E-01 0.24181575E+03</pdfrwt>
<pdfrwt beam="2">  1       -4 0.48829425E-01 0.24181575E+03</pdfrwt>
<totfact> 0.99809812E+01</totfact>
</mgrwt>
</event>
<event>
 8    1  0.1154424E-005  0.1257117E+03  0.7546771E-02  0.1249361E+00
          1   -1    0    0  501    0  0.00000000000E+00  0.00000000000E+00  0.11404841833E+03  0.11404841833E+03  0.00000000000E+00 0. -1.
         -1   -1    0    0    0  501 -0.00000000000E+00 -0.00000000000E+00 -0.16157861013E+03  0.16157861013E+03  0.00000000000E+00 0.  1.
         23    2    1    2    0    0 -0.29001398606E+01 -0.13028249601E+02 -0.10781483321E+03  0.16561244467E+03  0.12500118987E+03 0.  0.
         23    2    1    2    0    0  0.29001398606E+01  0.13028249601E+02  0.60284641408E+02  0.11001458379E+03  0.91053965085E+02 0.  0.
          5    1    3    3  502    0 -0.31322989804E+02  0.15932870891E+02 -0.11825003455E+03  0.12345098921E+03  0.47000000000E+01 0. -1.
         -5    1    3    3    0  502  0.28422849943E+02 -0.28961120491E+02  0.10435201343E+02  0.42161455455E+02  0.47000000000E+01 0. -1.
        -11    1    4    4    0    0 -0.33478259395E+02  0.84981192113E+01  0.64447394114E+02  0.73119617685E+02  0.00000000000E+00 0. -1.
         11    1    4    4    0    0  0.36378399256E+02  0.45301303896E+01 -0.41627527058E+01  0.36894966105E+02  0.00000000000E+00 0.  1.
<mgrwt>
<rscale>  0 0.11628153E+03</rscale>
<asrwt>0</asrwt>
<pdfrwt beam="1">  1        1 0.17545911E-01 0.12571175E+03</pdfrwt>
<pdfrwt beam="2">  1       -1 0.24858248E-01 0.12571175E+03</pdfrwt>
<totfact> 0.40661468E+03</totfact>
</mgrwt>
</event>
<event>
 8    1  0.1154424E-005  0.1763603E+03  0.7546771E-02  0.1177454E+00
          1   -1    0    0  501    0  0.00000000000E+00  0.00000000000E+00  0.99345202049E+02  0.99345202049E+02  0.00000000000E+00 0. -1.
         -1   -1    0    0    0  501 -0.00000000000E+00 -0.00000000000E+00 -0.31769381805E+03  0.31769381805E+03  0.00000000000E+00 0.  1.
         23    2    1    2    0    0 -0.12375353042E+03  0.13074483741E+02 -0.19282417802E+03  0.26131232290E+03  0.12496834821E+03 0.  0.
         23    2    1    2    0    0  0.12375353042E+03 -0.13074483741E+02 -0.25524437972E+02  0.15572669719E+03  0.90074573932E+02 0.  0.
          5    1    3    3  502    0 -0.94315159687E+02  0.26155999442E+02 -0.20447012759E+03  0.22673687113E+03  0.47000000000E+01 0. -1.
         -5    1    3    3    0  502 -0.29438370730E+02 -0.13081515701E+02  0.11645949561E+02  0.34575451775E+02  0.47000000000E+01 0. -1.
        -11    1    4    4    0    0  0.56004035571E+02 -0.99020345960E+01 -0.57384269585E+02  0.80792677176E+02  0.00000000000E+00 0.  1.
         11    1    4    4    0    0  0.67749494846E+02 -0.31724491450E+01  0.31859831614E+02  0.74934020017E+02  0.00000000000E+00 0. -1.
<mgrwt>
<rscale>  0 0.17037783E+03</rscale>
<asrwt>0</asrwt>
<pdfrwt beam="1">  1        1 0.15283877E-01 0.17636033E+03</pdfrwt>
<pdfrwt beam="2">  1       -1 0.48875972E-01 0.17636033E+03</pdfrwt>
<totfact> 0.15376583E+03</totfact>
</mgrwt>
</event>
<event>
 8    1  0.1154424E-005  0.1374908E+03  0.7546771E-02  0.1228443E+00
         -1   -1    0    0    0  501 -0.00000000000E+00  0.00000000000E+00  0.24126288179E+02  0.24126288179E+02  0.00000000000E+00 0.  1.
          1   -1    0    0  501    0  0.00000000000E+00 -0.00000000000E+00 -0.62380992439E+03  0.62380992439E+03  0.00000000000E+00 0. -1.
         23    2    1    2    0    0 -0.57033426174E+02  0.50698315480E+01 -0.32316581960E+03  0.35119774223E+03  0.12500076919E+03 0.  0.
         23    2    1    2    0    0  0.57033426174E+02 -0.50698315480E+01 -0.27651781662E+03  0.29673847035E+03  0.91176213910E+02 0.  0.
          5    1    3    3  502    0 -0.56037869650E+02  0.57942606727E+02 -0.23261950480E+03  0.24623466962E+03  0.47000000000E+01 0.  1.
         -5    1    3    3    0  502 -0.99555652396E+00 -0.52872775179E+02 -0.90546314791E+02  0.10496307260E+03  0.47000000000E+01 0.  1.
        -11    1    4    4    0    0  0.30170333600E+02  0.32837289909E+02 -0.57067930378E+02  0.72424342011E+02  0.00000000000E+00 0.  1.
         11    1    4    4    0    0  0.26863092574E+02 -0.37907121457E+02 -0.21944988624E+03  0.22431412834E+03  0.00000000000E+00 0. -1.
<mgrwt>
<rscale>  0 0.12933710E+03</rscale>
<asrwt>0</asrwt>
<pdfrwt beam="2">  1        1 0.95970763E-01 0.13749075E+03</pdfrwt>
<pdfrwt beam="1">  1       -1 0.37117364E-02 0.13749075E+03</pdfrwt>
<totfact> 0.87776027E+03</totfact>
</mgrwt>
</event>
<event>
 8    1  0.1154424E-005  0.1288602E+03  0.7546771E-02  0.1244100E+00
          2   -1    0    0  501    0  0.00000000000E+00  0.00000000000E+00  0.57996448555E+03  0.57996448555E+03  0.00000000000E+00 0. -1.
         -2   -1    0    0    0  501 -0.00000000000E+00 -0.00000000000E+00 -0.21640296790E+02  0.21640296790E+02  0.00000000000E+00 0.  1.
         23    2    1    2    0    0  0.56413219615E+01  0.30802433749E+02  0.33486777277E+03  0.35880550111E+03  0.12499739178E+03 0.  0.
         23    2    1    2    0    0 -0.56413219615E+01 -0.30802433749E+02  0.22345641600E+03  0.24279928123E+03  0.89655488836E+02 0.  0.
          5    1    3    3  502    0 -0.42898451773E+02 -0.20808017573E+02  0.71750190893E+02  0.86275318910E+02  0.47000000000E+01 0. -1.
         -5    1    3    3    0  502  0.48539773734E+02  0.51610451322E+02  0.26311758187E+03  0.27253018220E+03  0.47000000000E+01 0. -1.
        -11    1    4    4    0    0 -0.40975655347E+02 -0.33737922800E+02  0.17421413537E+03  0.18212033585E+03  0.00000000000E+00 0. -1.
         11    1    4    4    0    0  0.35334333385E+02  0.29354890510E+01  0.49242280622E+02  0.60678945381E+02  0.00000000000E+00 0.  1.
<mgrwt>
<rscale>  0 0.11939395E+03</rscale>
<asrwt>0</asrwt>
<pdfrwt beam="1">  1        2 0.89225294E-01 0.12886024E+03</pdfrwt>
<pdfrwt beam="2">  1       -2 0.33292769E-02 0.12886024E+03</pdfrwt>
<totfact> 0.17898266E+04</totfact>
</mgrwt>
</event>
<event>
 8    1  0.1154424E-005  0.1469533E+03  0.7546771E-02  0.1213764E+00
          2   -1    0    0  501    0  0.00000000000E+00  0.00000000000E+00  0.14283611193E+03  0.14283611193E+03  0.00000000000E+00 0. -1.
         -2   -1    0    0    0  501 -0.00000000000E+00 -0.00000000000E+00 -0.12692991220E+03  0.12692991220E+03  0.00000000000E+00 0.  1.
         23    2    1    2    0    0  0.73022837622E+02  0.25243479385E+02 -0.91455170684E+01  0.14723764184E+03  0.12500285847E+03 0.  0.
         23    2    1    2    0    0 -0.73022837622E+02 -0.25243479385E+02  0.25051716802E+02  0.12252838229E+03  0.91739020518E+02 0.  0.
          5    1    3    3  502    0  0.90697173537E+00  0.42623049866E+02 -0.47163603949E+02  0.63749843255E+02  0.47000000000E+01 0.  1.
         -5    1    3    3    0  502  0.72115865887E+02 -0.17379570481E+02  0.38018086881E+02  0.83487798586E+02  0.47000000000E+01 0.  1.
        -11    1    4    4    0    0 -0.32585091872E+01  0.24019741872E+02  0.28048491959E+02  0.37071333708E+02  0.00000000000E+00 0. -1.
         11    1    4    4    0    0 -0.69764328435E+02 -0.49263221257E+02 -0.29967751569E+01  0.85457048580E+02  0.00000000000E+00 0.  1.
<mgrwt>
<rscale>  0 0.13967724E+03</rscale>
<asrwt>0</asrwt>
<pdfrwt beam="1">  1        2 0.21974786E-01 0.14695334E+03</pdfrwt>
<pdfrwt beam="2">  1       -2 0.19527679E-01 0.14695334E+03</pdfrwt>
<totfact> 0.52298210E+03</totfact>
</mgrwt>
</event>
<event>
 8    1  0.1154424E-005  0.1461908E+03  0.7546771E-02  0.1213501E+00
         -4   -1    0    0    0  501 -0.00000000000E+00  0.00000000000E+00  0.10926755887E+04  0.10926755887E+04  0.00000000000E+00 0.  1.
          4   -1    0    0  501    0  0.00000000000E+00 -0.00000000000E+00 -0.37328115176E+02  0.37328115176E+02  0.00000000000E+00 0. -1.
         23    2    1    2    0    0 -0.68747980908E+02 -0.31809713131E+02  0.96938017796E+03  0.98034161588E+03  0.12503444199E+03 0.  0.
         23    2    1    2    0    0  0.68747980908E+02  0.31809713131E+02  0.85967295551E+02  0.14966208798E+03  0.96281991802E+02 0.  0.
          5    1    3    3  502    0 -0.25566570003E+02 -0.74348068124E+02  0.68641285533E+03  0.69091676974E+03  0.47000000000E+01 0. -1.
         -5    1    3    3    0  502 -0.43181410905E+02  0.42538354993E+02  0.28296732262E+03  0.28942484614E+03  0.47000000000E+01 0. -1.
        -11    1    4    4    0    0  0.28773106801E+02 -0.19310490939E+02  0.76628336209E+02  0.84099278508E+02  0.00000000000E+00 0.  1.
         11    1    4    4    0    0  0.39974874107E+02  0.51120204070E+02  0.93389593412E+01  0.65562809470E+02  0.00000000000E+00 0. -1.
<mgrwt>
<rscale>  0 0.13987231E+03</rscale>
<asrwt>0</asrwt>
<pdfrwt beam="2">  1        4 0.57427878E-02 0.14619082E+03</pdfrwt>
<pdfrwt beam="1">  1       -4 0.16810391E+00 0.14619082E+03</pdfrwt>
<totfact> 0.76694936E+01</totfact>
</mgrwt>
</event>
<event>
 8    1  0.1154424E-005  0.1341309E+03  0.7546771E-02  0.1234559E+00
          4   -1    0    0  501    0  0.00000000000E+00  0.00000000000E+00  0.12804916598E+03  0.12804916598E+03  0.00000000000E+00 0.  1.
         -4   -1    0    0    0  501 -0.00000000000E+00 -0.00000000000E+00 -0.26592659089E+03  0.26592659089E+03  0.00000000000E+00 0. -1.
         23    2    1    2    0    0 -0.20754773815E+02  0.43966654882E+02 -0.22347554883E+03  0.26063850191E+03  0.12500912118E+03 0.  0.
         23    2    1    2    0    0  0.20754773815E+02 -0.43966654882E+02  0.85598123920E+02  0.13333725496E+03  0.89933071578E+02 0.  0.
          5    1    3    3  502    0 -0.51783333965E+02  0.55603222578E+02 -0.21200252380E+03  0.22525628101E+03  0.47000000000E+01 0. -1.
         -5    1    3    3    0  502  0.31028560150E+02 -0.11636567696E+02 -0.11473025029E+02  0.35382220904E+02  0.47000000000E+01 0. -1.
        -11    1    4    4    0    0 -0.36772208378E+01  0.12329265427E+02  0.68406280547E+02  0.69605689116E+02  0.00000000000E+00 0.  1.
         11    1    4    4    0    0  0.24431994653E+02 -0.56295920309E+02  0.17191843374E+02  0.63731565842E+02  0.00000000000E+00 0. -1.
<mgrwt>
<rscale>  0 0.12532725E+03</rscale>
<asrwt>0</asrwt>
<pdfrwt beam="1">  1        4 0.19699872E-01 0.13413094E+03</pdfrwt>
<pdfrwt beam="2">  1       -4 0.40911783E-01 0.13413094E+03</pdfrwt>
<totfact> 0.22452515E+02</totfact>
</mgrwt>
</event>
<event>
 8    1  0.1154424E-005  0.1345526E+03  0.7546771E-02  0.1233507E+00
          2   -1    0    0  501    0  0.00000000000E+00  0.00000000000E+00  0.15430980559E+02  0.15430980559E+02  0.00000000000E+00 0. -1.
         -2   -1    0    0    0  501 -0.00000000000E+00 -0.00000000000E+00 -0.98930531109E+03  0.98930531109E+03  0.00000000000E+00 0.  1.
         23    2    1    2    0    0 -0.27052153872E+02  0.41808745901E+02 -0.67972481632E+03  0.69291429753E+03  0.12499843017E+03 0.  0.
         23    2    1    2    0    0  0.27052153872E+02 -0.41808745901E+02 -0.29414951421E+03  0.31182199411E+03  0.90715098187E+02 0.  0.
          5    1    3    3  502    0 -0.58878159404E+02  0.65349758541E+02 -0.55575679482E+03  0.56269435183E+03  0.47000000000E+01 0.  1.
         -5    1    3    3    0  502  0.31826005532E+02 -0.23541012640E+02 -0.12396802150E+03  0.13021994570E+03  0.47000000000E+01 0.  1.
        -11    1    4    4    0    0 -0.14404782046E+02 -0.40559352064E+02 -0.23884907680E+03  0.24269618925E+03  0.00000000000E+00 0.  1.
         11    1    4    4    0    0  0.41456935919E+02 -0.12493938364E+01 -0.55300437407E+02  0.69125804864E+02  0.00000000000E+00 0. -1.
<mgrwt>
<rscale>  0 0.12600499E+03</rscale>
<asrwt>0</asrwt>
<pdfrwt beam="1">  1        2 0.23739964E-02 0.13455258E+03</pdfrwt>
<pdfrwt beam="2">  1       -2 0.15220086E+00 0.13455258E+03</pdfrwt>
<totfact> 0.12709809E+03</totfact>
</mgrwt>
</event>
<event>
 8    1  0.1154424E-005  0.1677420E+03  0.7546771E-02  0.1187568E+00
         -2   -1    0    0    0  501 -0.00000000000E+00  0.00000000000E+00  0.86246420510E+02  0.86246420510E+02  0.00000000000E+00 0.  1.
          2   -1    0    0  501    0  0.00000000000E+00 -0.00000000000E+00 -0.31088252510E+03  0.31088252510E+03  0.00000000000E+00 0. -1.
         23    2    1    2    0    0 -0.53520419950E+02 -0.98226811499E+02 -0.56925855972E+02  0.17713813739E+03  0.12499769915E+03 0.  0.
         23    2    1    2    0    0  0.53520419950E+02  0.98226811499E+02 -0.16771024862E+03  0.21999080822E+03  0.88069781191E+02 0.  0.
          5    1    3    3  502    0  0.85340557007E+01 -0.85037326786E+02 -0.71900021790E+02  0.11178497299E+03  0.47000000000E+01 0. -1.
         -5    1    3    3    0  502 -0.62054475650E+02 -0.13189484713E+02  0.14974165818E+02  0.65353164401E+02  0.47000000000E+01 0. -1.
        -11    1    4    4    0    0  0.61139637989E+02  0.20877537503E+02 -0.78742555168E+02  0.10185439068E+03  0.00000000000E+00 0.  1.
         11    1    4    4    0    0 -0.76192180397E+01  0.77349273996E+02 -0.88967693453E+02  0.11813641754E+03  0.00000000000E+00 0. -1.
<mgrwt>
<rscale>  0 0.16100373E+03</rscale>
<asrwt>0</asrwt>
<pdfrwt beam="2">  1        2 0.47828081E-01 0.16774196E+03</pdfrwt>
<pdfrwt beam="1">  1       -2 0.13268680E-01 0.16774196E+03</pdfrwt>
<totfact> 0.42908885E+03</totfact>
</mgrwt>
</event>
<event>
 8    1  0.1154424E-005  0.1558384E+03  0.7546771E-02  0.1200521E+00
          4   -1    0    0  501    0  0.00000000000E+00  0.00000000000E+00  0.64196936512E+02  0.64196936512E+02  0.00000000000E+00 0. -1.
         -4   -1    0    0    0  501 -0.00000000000E+00 -0.00000000000E+00 -0.38293521877E+03  0.38293521877E+03  0.00000000000E+00 0.  1.
         23    2    1    2    0    0  0.91638229524E+02 -0.16186582507E+02 -0.25555160461E+03  0.29931960365E+03  0.12500412773E+03 0.  0.
         23    2    1    2    0    0 -0.91638229524E+02  0.16186582507E+02 -0.63186677649E+02  0.14781255163E+03  0.95897985499E+02 0.  0.
          5    1    3    3  502    0  0.71983046943E+02 -0.49923937476E+02 -0.77755923058E+02  0.11722641405E+03  0.47000000000E+01 0.  1.
         -5    1    3    3    0  502  0.19655182581E+02  0.33737354969E+02 -0.17779568155E+03  0.18209318961E+03  0.47000000000E+01 0.  1.
        -11    1    4    4    0    0 -0.27146842492E+02  0.36048440049E+02 -0.66368233611E+02  0.80256984244E+02  0.00000000000E+00 0.  1.
         11    1    4    4    0    0 -0.64491387031E+02 -0.19861857542E+02  0.31815559617E+01  0.67555567384E+02  0.00000000000E+00 0. -1.
<mgrwt>
<rscale>  0 0.14996118E+03</rscale>
<asrwt>0</asrwt>
<pdfrwt beam="1">  1        4 0.98764518E-02 0.15583839E+03</pdfrwt>
<pdfrwt beam="2">  1       -4 0.58913111E-01 0.15583839E+03</pdfrwt>
<totfact> 0.36459450E+02</totfact>
</mgrwt>
</event>
<event>
 8    1  0.1154424E-005  0.1705573E+03  0.7546771E-02  0.1183567E+00
          2   -1    0    0  501    0  0.00000000000E+00  0.00000000000E+00  0.31529730167E+03  0.31529730167E+03  0.00000000000E+00 0. -1.
         -2   -1    0    0    0  501 -0.00000000000E+00 -0.00000000000E+00 -0.10683695244E+03  0.10683695244E+03  0.00000000000E+00 0.  1.
         23    2    1    2    0    0  0.11599587279E+03  0.32323472627E+01  0.51575410406E+01  0.17063524837E+03  0.12499718871E+03 0.  0.
         23    2    1    2    0    0 -0.11599587279E+03 -0.32323472627E+01  0.20330280819E+03  0.25149900573E+03  0.91946873213E+02 0.  0.
          5    1    3    3  502    0  0.69611291157E+02 -0.45415462791E+02  0.42636440704E+02  0.93532091781E+02  0.47000000000E+01 0.  1.
         -5    1    3    3    0  502  0.46384581633E+02  0.48647810054E+02 -0.37478899663E+02  0.77103156590E+02  0.47000000000E+01 0.  1.
        -11    1    4    4    0    0 -0.19883308248E+02 -0.31765837846E+02  0.19778055801E+02  0.42374354180E+02  0.00000000000E+00 0.  1.
         11    1    4    4    0    0 -0.96112564541E+02  0.28533490583E+02  0.18352475239E+03  0.20912465155E+03  0.00000000000E+00 0. -1.
<mgrwt>
<rscale>  0 0.16462928E+03</rscale>
<asrwt>0</asrwt>
<pdfrwt beam="1">  1        2 0.48507277E-01 0.17055729E+03</pdfrwt>
<pdfrwt beam="2">  1       -2 0.16436454E-01 0.17055729E+03</pdfrwt>
<totfact> 0.29776032E+03</totfact>
</mgrwt>
</event>
<event>
 8    1  0.1154424E-005  0.1479351E+03  0.7546771E-02  0.1213561E+00
          1   -1    0    0  501    0  0.00000000000E+00  0.00000000000E+00  0.79765158617E+02  0.79765158617E+02  0.00000000000E+00 0. -1.
         -1   -1    0    0    0  501 -0.00000000000E+00 -0.00000000000E+00 -0.22502495125E+03  0.22502495125E+03  0.00000000000E+00 0.  1.
         23    2    1    2    0    0  0.64861550038E+02  0.45346447472E+02 -0.98846833712E+02  0.17791990558E+03  0.12498590039E+03 0.  0.
         23    2    1    2    0    0 -0.64861550038E+02 -0.45346447472E+02 -0.46412958920E+02  0.12687020428E+03  0.87627421548E+02 0.  0.
          5    1    3    3  502    0  0.75329918138E+02  0.63862986229E+01 -0.11201696129E+03  0.13522304165E+03  0.47000000000E+01 0. -1.
         -5    1    3    3    0  502 -0.10468368100E+02  0.38960148849E+02  0.13170127582E+02  0.42696863930E+02  0.47000000000E+01 0. -1.
        -11    1    4    4    0    0  0.24353624834E+01 -0.35408631004E+02 -0.46932082866E+02  0.58841503569E+02  0.00000000000E+00 0.  1.
         11    1    4    4    0    0 -0.67296912522E+02 -0.99378164672E+01  0.51912394635E+00  0.68028700713E+02  0.00000000000E+00 0. -1.
<mgrwt>
<rscale>  0 0.13982783E+03</rscale>
<asrwt>0</asrwt>
<pdfrwt beam="1">  1        1 0.12271563E-01 0.14793511E+03</pdfrwt>
<pdfrwt beam="2">  1       -1 0.34619224E-01 0.14793511E+03</pdfrwt>
<totfact> 0.37450067E+03</totfact>
</mgrwt>
</event>
<event>
 8    1  0.1154424E-005  0.1381332E+03  0.7546771E-02  0.1227635E+00
          3   -1    0    0  501    0  0.00000000000E+00  0.00000000000E+00  0.39781218741E+02  0.39781218741E+02  0.00000000000E+00 0. -1.
         -3   -1    0    0    0  501 -0.00000000000E+00 -0.00000000000E+00 -0.38087614801E+03  0.38087614801E+03  0.00000000000E+00 0.  1.
         23    2    1    2    0    0 -0.44164943825E+02 -0.38842848608E+02 -0.18576208267E+03  0.23149152767E+03  0.12498586669E+03 0.  0.
         23    2    1    2    0    0  0.44164943825E+02  0.38842848608E+02 -0.15533284660E+03  0.18916583909E+03  0.90532382571E+02 0.  0.
          5    1    3    3  502    0  0.14503737962E+02  0.37093439587E+02 -0.73512341507E+02  0.83740289164E+02  0.47000000000E+01 0. -1.
         -5    1    3    3    0  502 -0.58668681787E+02 -0.75936288195E+02 -0.11224974117E+03  0.14775123850E+03  0.47000000000E+01 0. -1.
        -11    1    4    4    0    0  0.54818366426E+02 -0.22341037364E+01 -0.45015082173E+02  0.70967613319E+02  0.00000000000E+00 0. -1.
         11    1    4    4    0    0 -0.10653422601E+02  0.41076952344E+02 -0.11031776442E+03  0.11819822577E+03  0.00000000000E+00 0.  1.
<mgrwt>
<rscale>  0 0.12987917E+03</rscale>
<asrwt>0</asrwt>
<pdfrwt beam="1">  1        3 0.61201875E-02 0.13813318E+03</pdfrwt>
<pdfrwt beam="2">  1       -3 0.58596331E-01 0.13813318E+03</pdfrwt>
<totfact> 0.11016483E+03</totfact>
</mgrwt>
</event>
<event>
 8    1  0.1154424E-005  0.1345725E+03  0.7546771E-02  0.1233210E+00
          1   -1    0    0  501    0  0.00000000000E+00  0.00000000000E+00  0.20812393873E+03  0.20812393873E+03  0.00000000000E+00 0. -1.
         -1   -1    0    0    0  501 -0.00000000000E+00 -0.00000000000E+00 -0.79029465964E+02  0.79029465964E+02  0.00000000000E+00 0.  1.
         23    2    1    2    0    0 -0.45453245538E+02 -0.20435997820E+02  0.19429258713E+02  0.13596781647E+03  0.12500449386E+03 0.  0.
         23    2    1    2    0    0  0.45453245538E+02  0.20435997820E+02  0.10966521405E+03  0.15118558822E+03  0.91361892364E+02 0.  0.
          5    1    3    3  502    0 -0.86076951953E+01 -0.62586091206E+02  0.41362062741E+02  0.75657263123E+02  0.47000000000E+01 0. -1.
         -5    1    3    3    0  502 -0.36845550343E+02  0.42150093386E+02 -0.21932804028E+02  0.60310553347E+02  0.47000000000E+01 0. -1.
        -11    1    4    4    0    0  0.24759041848E+02 -0.32130466305E+02  0.73964925897E+02  0.84357496888E+02  0.00000000000E+00 0. -1.
         11    1    4    4    0    0  0.20694203691E+02  0.52566464126E+02  0.35700288153E+02  0.66828091334E+02  0.00000000000E+00 0.  1.
<mgrwt>
<rscale>  0 0.12619695E+03</rscale>
<asrwt>0</asrwt>
<pdfrwt beam="1">  1        1 0.32019067E-01 0.13457247E+03</pdfrwt>
<pdfrwt beam="2">  1       -1 0.12158379E-01 0.13457247E+03</pdfrwt>
<totfact> 0.59586806E+03</totfact>
</mgrwt>
</event>
<event>
 8    1  0.1154424E-005  0.1543952E+03  0.7546771E-02  0.1203692E+00
         -1   -1    0    0    0  501 -0.00000000000E+00  0.00000000000E+00  0.36685755782E+03  0.36685755782E+03  0.00000000000E+00 0.  1.
          1   -1    0    0  501    0  0.00000000000E+00 -0.00000000000E+00 -0.56862698575E+02  0.56862698575E+02  0.00000000000E+00 0. -1.
         23    2    1    2    0    0 -0.56982978933E+02 -0.70470992936E+02  0.21208909530E+03  0.26233504523E+03  0.12499868350E+03 0.  0.
         23    2    1    2    0    0  0.56982978933E+02  0.70470992936E+02  0.97905763944E+02  0.16138521117E+03  0.90809839976E+02 0.  0.
          5    1    3    3  502    0 -0.75255620598E+02 -0.53378292479E+02  0.64756578426E+02  0.11281912510E+03  0.47000000000E+01 0. -1.
         -5    1    3    3    0  502  0.18272641664E+02 -0.17092700457E+02  0.14733251688E+03  0.14951592013E+03  0.47000000000E+01 0. -1.
        -11    1    4    4    0    0  0.12790143653E+02  0.38842072610E+02  0.98910526267E+02  0.10703077401E+03  0.00000000000E+00 0.  1.
         11    1    4    4    0    0  0.44192835280E+02  0.31628920326E+02 -0.10047623233E+01  0.54354437154E+02  0.00000000000E+00 0. -1.
<mgrwt>
<rscale>  0 0.14741036E+03</rscale>
<asrwt>0</asrwt>
<pdfrwt beam="2">  1        1 0.87481077E-02 0.15439524E+03</pdfrwt>
<pdfrwt beam="1">  1       -1 0.56439623E-01 0.15439524E+03</pdfrwt>
<totfact> 0.24505325E+03</totfact>
</mgrwt>
</event>
<event>
 8    1  0.1154424E-005  0.1514161E+03  0.7546771E-02  0.1207144E+00
          1   -1    0    0  501    0  0.00000000000E+00  0.00000000000E+00  0.14761957469E+02  0.14761957469E+02  0.00000000000E+00 0. -1.
         -1   -1    0    0    0  501 -0.00000000000E+00 -0.00000000000E+00 -0.13183367826E+04  0.13183367826E+04  0.00000000000E+00 0.  1.
         23    2    1    2    0    0 -0.84202394198E+02 -0.22560715796E+02 -0.77455936416E+03  0.78922052945E+03  0.12380551848E+03 0.  0.
         23    2    1    2    0    0  0.84202394198E+02  0.22560715796E+02 -0.52901546095E+03  0.54387821060E+03  0.91362579630E+02 0.  0.
          5    1    3    3  502    0 -0.58735805450E+01  0.26960175948E+02 -0.39980659780E+02  0.48804643140E+02  0.47000000000E+01 0. -1.
         -5    1    3    3    0  502 -0.78328813653E+02 -0.49520891744E+02 -0.73457870438E+03  0.74041588631E+03  0.47000000000E+01 0.  1.
        -11    1    4    4    0    0  0.93223447114E+02  0.56225824031E-01 -0.48249975907E+03  0.49142306799E+03  0.00000000000E+00 0. -1.
         11    1    4    4    0    0 -0.90210529162E+01  0.22504489972E+02 -0.46515701879E+02  0.52455142607E+02  0.00000000000E+00 0.  1.
<mgrwt>
<rscale>  0 0.14469750E+03</rscale>
<asrwt>0</asrwt>
<pdfrwt beam="1">  1        1 0.22710704E-02 0.15141610E+03</pdfrwt>
<pdfrwt beam="2">  1       -1 0.20282104E+00 0.15141610E+03</pdfrwt>
<totfact> 0.79792884E+02</totfact>
</mgrwt>
</event>
<event>
 8    1  0.1154424E-005  0.1477600E+03  0.7546771E-02  0.1210919E+00
         -1   -1    0    0    0  501 -0.00000000000E+00  0.00000000000E+00  0.22562591694E+02  0.22562591694E+02  0.00000000000E+00 0.  1.
          1   -1    0    0  501    0  0.00000000000E+00 -0.00000000000E+00 -0.83305513059E+03  0.83305513059E+03  0.00000000000E+00 0. -1.
         23    2    1    2    0    0 -0.75029856215E+02 -0.24039320228E+02 -0.40026237873E+03  0.42666496502E+03  0.12500260919E+03 0.  0.
         23    2    1    2    0    0  0.75029856215E+02  0.24039320228E+02 -0.41023016017E+03  0.42895275727E+03  0.97490078558E+02 0.  0.
          5    1    3    3  502    0 -0.94390618655E+02 -0.31788152444E+02 -0.18341076079E+03  0.20876223964E+03  0.47000000000E+01 0.  1.
         -5    1    3    3    0  502  0.19360762440E+02  0.77488322159E+01 -0.21685161795E+03  0.21790272538E+03  0.47000000000E+01 0.  1.
        -11    1    4    4    0    0 -0.12480109903E+02  0.81496651620E+01 -0.78224879049E+01  0.16833344958E+02  0.00000000000E+00 0.  1.
         11    1    4    4    0    0  0.87509966118E+02  0.15889655066E+02 -0.40240767226E+03  0.41211941231E+03  0.00000000000E+00 0. -1.
<mgrwt>
<rscale>  0 0.14180630E+03</rscale>
<asrwt>0</asrwt>
<pdfrwt beam="2">  1        1 0.12816230E+00 0.14776001E+03</pdfrwt>
<pdfrwt beam="1">  1       -1 0.34711686E-02 0.14776001E+03</pdfrwt>
<totfact> 0.63897632E+03</totfact>
</mgrwt>
</event>
<event>
 8    1  0.1154424E-005  0.1989924E+03  0.7546771E-02  0.1154464E+00
         -2   -1    0    0    0  501 -0.00000000000E+00  0.00000000000E+00  0.26384950027E+02  0.26384950027E+02  0.00000000000E+00 0.  1.
          2   -1    0    0  501    0  0.00000000000E+00 -0.00000000000E+00 -0.15113232012E+04  0.15113232012E+04  0.00000000000E+00 0. -1.
         23    2    1    2    0    0 -0.13222868547E+03 -0.80482898440E+02 -0.54055621548E+03  0.57601997516E+03  0.12504426210E+03 0.  0.
         23    2    1    2    0    0  0.13222868547E+03  0.80482898440E+02 -0.94438203565E+03  0.96168817603E+03  0.94998928655E+02 0.  0.
          5    1    3    3  502    0 -0.13736080351E+03 -0.74156494258E+02 -0.54402415945E+03  0.56599607070E+03  0.47000000000E+01 0.  1.
         -5    1    3    3    0  502  0.51321180404E+01 -0.63264041818E+01  0.34679439611E+01  0.10023904467E+02  0.47000000000E+01 0.  1.
        -11    1    4    4    0    0  0.11460545440E+03  0.10115586806E+03 -0.84200993057E+03  0.85577312589E+03  0.00000000000E+00 0. -1.
         11    1    4    4    0    0  0.17623231070E+02 -0.20672969618E+02 -0.10237210509E+03  0.10591505014E+03  0.00000000000E+00 0.  1.
<mgrwt>
<rscale>  0 0.19450009E+03</rscale>
<asrwt>0</asrwt>
<pdfrwt beam="2">  1        2 0.23251137E+00 0.19899244E+03</pdfrwt>
<pdfrwt beam="1">  1       -2 0.40592211E-02 0.19899244E+03</pdfrwt>
<totfact> 0.36061673E+03</totfact>
</mgrwt>
</event>
<event>
 8    1  0.1154424E-005  0.1534562E+03  0.7546771E-02  0.1201970E+00
          1   -1    0    0  501    0  0.00000000000E+00  0.00000000000E+00  0.39873749634E+03  0.39873749634E+03  0.00000000000E+00 0. -1.
         -1   -1    0    0    0  501 -0.00000000000E+00 -0.00000000000E+00 -0.52500019351E+02  0.52500019351E+02  0.00000000000E+00 0.  1.
         23    2    1    2    0    0  0.12233374793E+02 -0.98253418376E+02  0.17359891633E+03  0.23170109426E+03  0.11724087875E+03 0.  0.
         23    2    1    2    0    0 -0.12233374793E+02  0.98253418376E+02  0.17263856065E+03  0.21953642142E+03  0.92675660373E+02 0.  0.
          5    1    3    3  502    0 -0.57913229039E+01 -0.12251527850E+03  0.13512477602E+03  0.18254952199E+03  0.47000000000E+01 0. -1.
         -5    1    3    3    0  502  0.18024697697E+02  0.24261860122E+02  0.38474140316E+02  0.49151572271E+02  0.47000000000E+01 0.  1.
        -11    1    4    4    0    0  0.12373331776E+02 -0.10495627941E+02  0.55472687453E+02  0.57796856302E+02  0.00000000000E+00 0. -1.
         11    1    4    4    0    0 -0.24606706569E+02  0.10874904632E+03  0.11716587320E+03  0.16173956512E+03  0.00000000000E+00 0.  1.
<mgrwt>
<rscale>  0 0.14878786E+03</rscale>
<asrwt>0</asrwt>
<pdfrwt beam="1">  1        1 0.61344228E-01 0.15345623E+03</pdfrwt>
<pdfrwt beam="2">  1       -1 0.80769263E-02 0.15345623E+03</pdfrwt>
<totfact> 0.49964498E+03</totfact>
</mgrwt>
</event>
<event>
 8    1  0.1154424E-005  0.1660301E+03  0.7546771E-02  0.1188891E+00
         -2   -1    0    0    0  501 -0.00000000000E+00  0.00000000000E+00  0.21337274912E+02  0.21337274912E+02  0.00000000000E+00 0. -1.
          2   -1    0    0  501    0  0.00000000000E+00 -0.00000000000E+00 -0.12351858038E+04  0.12351858038E+04  0.00000000000E+00 0.  1.
         23    2    1    2    0    0  0.82427415402E+02  0.71735788228E+02 -0.45383470745E+03  0.48325142064E+03  0.12500276692E+03 0.  0.
         23    2    1    2    0    0 -0.82427415402E+02 -0.71735788228E+02 -0.76001382142E+03  0.77327165806E+03  0.91584639998E+02 0.  0.
          5    1    3    3  502    0  0.63934592096E+02  0.10649618433E+03 -0.37392018943E+03  0.39403993124E+03  0.47000000000E+01 0.  1.
         -5    1    3    3    0  502  0.18492823307E+02 -0.34760396102E+02 -0.79914518022E+02  0.89211489404E+02  0.47000000000E+01 0.  1.
        -11    1    4    4    0    0 -0.90381264448E+02 -0.23640193102E+02 -0.52641723825E+03  0.53464262869E+03  0.00000000000E+00 0.  1.
         11    1    4    4    0    0  0.79538490455E+01 -0.48095595126E+02 -0.23359658318E+03  0.23862902937E+03  0.00000000000E+00 0. -1.
<mgrwt>
<rscale>  0 0.15982771E+03</rscale>
<asrwt>0</asrwt>
<pdfrwt beam="2">  1        2 0.19002864E+00 0.16603010E+03</pdfrwt>
<pdfrwt beam="1">  1       -2 0.32826567E-02 0.16603010E+03</pdfrwt>
<totfact> 0.69435565E+03</totfact>
</mgrwt>
</event>
<event>
 8    1  0.1154424E-005  0.4457127E+03  0.7546771E-02  0.1029648E+00
          2   -1    0    0  501    0  0.00000000000E+00  0.00000000000E+00  0.10228864808E+04  0.10228864808E+04  0.00000000000E+00 0. -1.
         -2   -1    0    0    0  501 -0.00000000000E+00 -0.00000000000E+00 -0.25978065807E+03  0.25978065807E+03  0.00000000000E+00 0.  1.
         23    2    1    2    0    0  0.38656386468E+03  0.18331176568E+03  0.53204524904E+02  0.44887699028E+03  0.12500002406E+03 0.  0.
         23    2    1    2    0    0 -0.38656386468E+03 -0.18331176568E+03  0.70990129787E+03  0.83379014864E+03  0.90616413215E+02 0.  0.
          5    1    3    3  502    0  0.18582833345E+02  0.49994810779E+02  0.14984497213E+02  0.55600611117E+02  0.47000000000E+01 0.  1.
         -5    1    3    3    0  502  0.36798103134E+03  0.13331695490E+03  0.38220027691E+02  0.39327637916E+03  0.47000000000E+01 0.  1.
        -11    1    4    4    0    0 -0.10624653452E+03 -0.72345813450E+02  0.14726825776E+03  0.19547425039E+03  0.00000000000E+00 0.  1.
         11    1    4    4    0    0 -0.28031733017E+03 -0.11096595223E+03  0.56263304011E+03  0.63831589825E+03  0.00000000000E+00 0. -1.
<mgrwt>
<rscale>  0 0.44359880E+03</rscale>
<asrwt>0</asrwt>
<pdfrwt beam="1">  1        2 0.15736715E+00 0.44571272E+03</pdfrwt>
<pdfrwt beam="2">  1       -2 0.39966256E-01 0.44571272E+03</pdfrwt>
<totfact> 0.14978231E+02</totfact>
</mgrwt>
</event>
<event>
 8    1  0.1154424E-005  0.1836809E+03  0.7546771E-02  0.1169104E+00
          2   -1    0    0  501    0  0.00000000000E+00  0.00000000000E+00  0.50827185106E+02  0.50827185106E+02  0.00000000000E+00 0.  1.
         -2   -1    0    0    0  501 -0.00000000000E+00 -0.00000000000E+00 -0.61587591630E+03  0.61587591630E+03  0.00000000000E+00 0. -1.
         23    2    1    2    0    0 -0.51879852692E+02 -0.12420842049E+03 -0.23784123886E+03  0.30051145859E+03  0.12497772205E+03 0.  0.
         23    2    1    2    0    0  0.51879852692E+02  0.12420842049E+03 -0.32720749234E+03  0.36619164282E+03  0.94405113159E+02 0.  0.
          5    1    3    3  502    0  0.32490762089E+02 -0.22954618373E+02 -0.17491889623E+02  0.43710643193E+02  0.47000000000E+01 0. -1.
         -5    1    3    3    0  502 -0.84370614781E+02 -0.10125380212E+03 -0.22034934923E+03  0.25680081540E+03  0.47000000000E+01 0. -1.
        -11    1    4    4    0    0  0.59249765520E+02  0.71198207263E+02 -0.11672610996E+03  0.14901242961E+03  0.00000000000E+00 0.  1.
         11    1    4    4    0    0 -0.73699128281E+01  0.53010213225E+02 -0.21048138238E+03  0.21717921321E+03  0.00000000000E+00 0. -1.
<mgrwt>
<rscale>  0 0.17866191E+03</rscale>
<asrwt>0</asrwt>
<pdfrwt beam="1">  1        2 0.78195667E-02 0.18368092E+03</pdfrwt>
<pdfrwt beam="2">  1       -2 0.94750143E-01 0.18368092E+03</pdfrwt>
<totfact> 0.84021323E+02</totfact>
</mgrwt>
</event>
<event>
 8    1  0.1154424E-005  0.1322497E+03  0.7546771E-02  0.1235729E+00
         -1   -1    0    0    0  501 -0.00000000000E+00  0.00000000000E+00  0.28213521381E+03  0.28213521381E+03  0.00000000000E+00 0.  1.
          1   -1    0    0  501    0  0.00000000000E+00 -0.00000000000E+00 -0.49785857507E+02  0.49785857507E+02  0.00000000000E+00 0. -1.
         23    2    1    2    0    0  0.43031131295E+02 -0.82308087185E+00  0.14211911373E+03  0.19413352472E+03  0.12505049863E+03 0.  0.
         23    2    1    2    0    0 -0.43031131295E+02  0.82308087185E+00  0.90230242566E+02  0.13778754660E+03  0.94823813472E+02 0.  0.
          5    1    3    3  502    0  0.14621021725E+02 -0.39865938612E+02 -0.12895037414E+01  0.42741316750E+02  0.47000000000E+01 0. -1.
         -5    1    3    3    0  502  0.28410109571E+02  0.39042857740E+02  0.14340861748E+03  0.15139220797E+03  0.47000000000E+01 0. -1.
        -11    1    4    4    0    0  0.24340971698E+02  0.22673480437E+02  0.27020874386E+02  0.42856706254E+02  0.00000000000E+00 0. -1.
         11    1    4    4    0    0 -0.67372102993E+02 -0.21850399565E+02  0.63209368180E+02  0.94930840345E+02  0.00000000000E+00 0.  1.
<mgrwt>
<rscale>  0 0.12457883E+03</rscale>
<asrwt>0</asrwt>
<pdfrwt beam="2">  1        1 0.76593629E-02 0.13224970E+03</pdfrwt>
<pdfrwt beam="1">  1       -1 0.43405417E-01 0.13224970E+03</pdfrwt>
<totfact> 0.46891720E+03</totfact>
</mgrwt>
</event>
<event>
 8    1  0.1154424E-005  0.1240872E+03  0.7546771E-02  0.1251251E+00
          2   -1    0    0  501    0  0.00000000000E+00  0.00000000000E+00  0.26938270636E+02  0.26938270636E+02  0.00000000000E+00 0. -1.
         -2   -1    0    0    0  501 -0.00000000000E+00 -0.00000000000E+00 -0.43768282011E+03  0.43768282011E+03  0.00000000000E+00 0.  1.
         23    2    1    2    0    0 -0.50805074917E+01  0.10455171118E+02 -0.25676046306E+03  0.28517287109E+03  0.12354152684E+03 0.  0.
         23    2    1    2    0    0  0.50805074917E+01 -0.10455171118E+02 -0.15398408641E+03  0.17944821966E+03  0.91408109652E+02 0.  0.
          5    1    3    3  502    0 -0.57426927481E+02 -0.21094713788E+02 -0.10686672794E+03  0.12322916250E+03  0.47000000000E+01 0. -1.
         -5    1    3    3    0  502  0.52346419989E+02  0.31549884906E+02 -0.14989373512E+03  0.16194370859E+03  0.47000000000E+01 0.  1.
        -11    1    4    4    0    0  0.19482371568E+01 -0.50965559733E+02 -0.76241364930E+02  0.91728019892E+02  0.00000000000E+00 0.  1.
         11    1    4    4    0    0  0.31322703349E+01  0.40510388615E+02 -0.77742721484E+02  0.87720199766E+02  0.00000000000E+00 0. -1.
<mgrwt>
<rscale>  0 0.11518934E+03</rscale>
<asrwt>0</asrwt>
<pdfrwt beam="1">  1        2 0.41443494E-02 0.12408719E+03</pdfrwt>
<pdfrwt beam="2">  1       -2 0.67335817E-01 0.12408719E+03</pdfrwt>
<totfact> 0.39553203E+03</totfact>
</mgrwt>
</event>
<event>
 7    1  0.1154424E-005  0.1740334E+03  0.7546771E-02  0.1189502E+00
         -2   -1    0    0    0  501 -0.00000000000E+00  0.00000000000E+00  0.23865326717E+03  0.23865326717E+03  0.00000000000E+00 0.  1.
          2   -1    0    0  501    0  0.00000000000E+00 -0.00000000000E+00 -0.10919299148E+03  0.10919299148E+03  0.00000000000E+00 0. -1.
         23    2    1    2    0    0  0.11775777923E+00 -0.81472591837E+02 -0.13154136935E+02  0.12284291611E+03  0.90992052581E+02 0.  0.
          5    1    1    2  502    0 -0.10897822953E+02  0.20379704321E+02 -0.31934188486E+02  0.39698580423E+02  0.47000000000E+01 0. -1.
         -5    1    1    2    0  502  0.10780065173E+02  0.61092887517E+02  0.17454860111E+03  0.18530476211E+03  0.47000000000E+01 0.  1.
        -11    1    3    3    0    0 -0.40392160800E+02 -0.28382647646E+02 -0.24489499715E+02  0.55107503462E+02  0.00000000000E+00 0.  1.
         11    1    3    3    0    0  0.40509918579E+02 -0.53089944192E+02  0.11335362780E+02  0.67735412651E+02  0.00000000000E+00 0. -1.
<mgrwt>
<rscale>  0 0.15928907E+03</rscale>
<asrwt>0</asrwt>
<pdfrwt beam="2">  1        2 0.16798922E-01 0.17403343E+03</pdfrwt>
<pdfrwt beam="1">  1       -2 0.36715887E-01 0.17403343E+03</pdfrwt>
<totfact> 0.23388179E+03</totfact>
</mgrwt>
</event>
<event>
 8    1  0.1154424E-005  0.1846803E+03  0.7546771E-02  0.1168695E+00
          1   -1    0    0  501    0  0.00000000000E+00  0.00000000000E+00  0.29445308214E+03  0.29445308214E+03  0.00000000000E+00 0. -1.
         -1   -1    0    0    0  501 -0.00000000000E+00 -0.00000000000E+00 -0.11044842614E+03  0.11044842614E+03  0.00000000000E+00 0.  1.
         23    2    1    2    0    0  0.75861797141E+02  0.11277596599E+03  0.44084526700E+02  0.18986909202E+03  0.12503357886E+03 0.  0.
         23    2    1    2    0    0 -0.75861797141E+02 -0.11277596599E+03  0.13992012930E+03  0.21503241625E+03  0.90486831567E+02 0.  0.
          5    1    3    3  502    0  0.10858133152E+02  0.53923900316E+01 -0.37765825337E+02  0.39941513356E+02  0.47000000000E+01 0.  1.
         -5    1    3    3    0  502  0.65003663989E+02  0.10738357595E+03  0.81850352036E+02  0.14992757867E+03  0.47000000000E+01 0.  1.
        -11    1    4    4    0    0 -0.21719480584E+02 -0.36127002710E+02 -0.49298034068E+01  0.42440536322E+02  0.00000000000E+00 0.  1.
         11    1    4    4    0    0 -0.54142316557E+02 -0.76648963276E+02  0.14484993270E+03  0.17259187993E+03  0.00000000000E+00 0. -1.
<mgrwt>
<rscale>  0 0.17908147E+03</rscale>
<asrwt>0</asrwt>
<pdfrwt beam="1">  1        1 0.45300474E-01 0.18468034E+03</pdfrwt>
<pdfrwt beam="2">  1       -1 0.16992066E-01 0.18468034E+03</pdfrwt>
<totfact> 0.23251981E+03</totfact>
</mgrwt>
</event>
<event>
 8    1  0.1154424E-005  0.2093667E+03  0.7546771E-02  0.1148161E+00
         -2   -1    0    0    0  501 -0.00000000000E+00  0.00000000000E+00  0.70686184285E+03  0.70686184285E+03  0.00000000000E+00 0.  1.
          2   -1    0    0  501    0  0.00000000000E+00 -0.00000000000E+00 -0.60878634672E+02  0.60878634672E+02  0.00000000000E+00 0. -1.
         23    2    1    2    0    0 -0.15185923830E+03  0.71784280953E+02  0.47349824613E+03  0.51772097613E+03  0.12498083367E+03 0.  0.
         23    2    1    2    0    0  0.15185923830E+03 -0.71784280953E+02  0.17248496205E+03  0.25001950140E+03  0.67412741341E+02 0.  0.
          5    1    3    3  502    0 -0.31002868460E+02  0.48170528658E+02  0.29668245659E+03  0.30219885462E+03  0.47000000000E+01 0. -1.
         -5    1    3    3    0  502 -0.12085636984E+03  0.23613752295E+02  0.17681578954E+03  0.21552212151E+03  0.47000000000E+01 0. -1.
        -11    1    4    4    0    0  0.78531715176E+02 -0.34514601792E+02  0.41364271816E+02  0.95233875319E+02  0.00000000000E+00 0. -1.
         11    1    4    4    0    0  0.73327523127E+02 -0.37269679162E+02  0.13112069023E+03  0.15478562608E+03  0.00000000000E+00 0.  1.
<mgrwt>
<rscale>  0 0.20188151E+03</rscale>
<asrwt>0</asrwt>
<pdfrwt beam="2">  1        2 0.93659443E-02 0.20936671E+03</pdfrwt>
<pdfrwt beam="1">  1       -2 0.10874797E+00 0.20936671E+03</pdfrwt>
<totfact> 0.48743354E+02</totfact>
</mgrwt>
</event>
<event>
 8    1  0.1154424E-005  0.1398139E+03  0.7546771E-02  0.1222039E+00
          1   -1    0    0  501    0  0.00000000000E+00  0.00000000000E+00  0.35026574735E+02  0.35026574735E+02  0.00000000000E+00 0. -1.
         -1   -1    0    0    0  501 -0.00000000000E+00 -0.00000000000E+00 -0.50684261311E+03  0.50684261311E+03  0.00000000000E+00 0.  1.
         23    2    1    2    0    0  0.60520241501E+02  0.16125515173E+02 -0.32749019236E+03  0.35608670142E+03  0.12500072386E+03 0.  0.
         23    2    1    2    0    0 -0.60520241501E+02 -0.16125515173E+02 -0.14432584601E+03  0.18578248642E+03  0.98805114055E+02 0.  0.
          5    1    3    3  502    0  0.49586971809E+02  0.68629218995E+02 -0.17720314763E+03  0.19644816875E+03  0.47000000000E+01 0.  1.
         -5    1    3    3    0  502  0.10933269692E+02 -0.52503703822E+02 -0.15028704473E+03  0.15963853267E+03  0.47000000000E+01 0.  1.
        -11    1    4    4    0    0  0.29342261389E+01 -0.45805977405E+02 -0.45354887096E+02  0.64528001926E+02  0.00000000000E+00 0. -1.
         11    1    4    4    0    0 -0.63454467640E+02  0.29680462232E+02 -0.98970958918E+02  0.12125448450E+03  0.00000000000E+00 0.  1.
<mgrwt>
<rscale>  0 0.13371926E+03</rscale>
<asrwt>0</asrwt>
<pdfrwt beam="1">  1        1 0.53887037E-02 0.13981385E+03</pdfrwt>
<pdfrwt beam="2">  1       -1 0.77975788E-01 0.13981385E+03</pdfrwt>
<totfact> 0.24996628E+03</totfact>
</mgrwt>
</event>
<event>
 8    1  0.1154424E-005  0.1436856E+03  0.7546771E-02  0.1218870E+00
          1   -1    0    0  501    0  0.00000000000E+00  0.00000000000E+00  0.25521385932E+03  0.25521385932E+03  0.00000000000E+00 0. -1.
         -1   -1    0    0    0  501 -0.00000000000E+00 -0.00000000000E+00 -0.90327063794E+02  0.90327063794E+02  0.00000000000E+00 0.  1.
         23    2    1    2    0    0  0.48964634897E+02  0.51218060365E+02 -0.87217479711E+00  0.14368826654E+03  0.12499892830E+03 0.  0.
         23    2    1    2    0    0 -0.48964634897E+02 -0.51218060365E+02  0.16575897032E+03  0.20185265657E+03  0.90816482776E+02 0.  0.
          5    1    3    3  502    0 -0.19158295421E+02 -0.22168804003E+02 -0.26975679611E+02  0.40103284714E+02  0.47000000000E+01 0. -1.
         -5    1    3    3    0  502  0.68122930318E+02  0.73386864369E+02  0.26103504814E+02  0.10358498183E+03  0.47000000000E+01 0. -1.
        -11    1    4    4    0    0 -0.70619626344E+02 -0.39607801278E+02  0.84801008108E+02  0.11724811522E+03  0.00000000000E+00 0.  1.
         11    1    4    4    0    0  0.21654991447E+02 -0.11610259088E+02  0.80957962216E+02  0.84604541349E+02  0.00000000000E+00 0. -1.
<mgrwt>
<rscale>  0 0.13596043E+03</rscale>
<asrwt>0</asrwt>
<pdfrwt beam="1">  1        1 0.39263670E-01 0.14368562E+03</pdfrwt>
<pdfrwt beam="2">  1       -1 0.13896471E-01 0.14368562E+03</pdfrwt>
<totfact> 0.37750102E+03</totfact>
</mgrwt>
</event>
<event>
 8    1  0.1154424E-005  0.1600685E+03  0.7546771E-02  0.1196149E+00
          2   -1    0    0  501    0  0.00000000000E+00  0.00000000000E+00  0.65839413508E+03  0.65839413508E+03  0.00000000000E+00 0. -1.
         -2   -1    0    0    0  501 -0.00000000000E+00 -0.00000000000E+00 -0.41051566049E+02  0.41051566049E+02  0.00000000000E+00 0.  1.
         23    2    1    2    0    0 -0.95280983470E+02 -0.30314296027E+02  0.17678816735E+03  0.23848682355E+03  0.12499794613E+03 0.  0.
         23    2    1    2    0    0  0.95280983470E+02  0.30314296027E+02  0.44055440168E+03  0.46095887758E+03  0.91637784912E+02 0.  0.
          5    1    3    3  502    0 -0.26719879130E+02 -0.61950509739E+02  0.13751609014E+03  0.15324680305E+03  0.47000000000E+01 0.  1.
         -5    1    3    3    0  502 -0.68561104340E+02  0.31636213712E+02  0.39272077209E+02  0.85240020499E+02  0.47000000000E+01 0.  1.
        -11    1    4    4    0    0  0.27865745055E+02 -0.22251194217E+02  0.51613548897E+02  0.62734151953E+02  0.00000000000E+00 0.  1.
         11    1    4    4    0    0  0.67415238416E+02  0.52565490244E+02  0.38894085278E+03  0.39822472562E+03  0.00000000000E+00 0. -1.
<mgrwt>
<rscale>  0 0.15357358E+03</rscale>
<asrwt>0</asrwt>
<pdfrwt beam="1">  1        2 0.10129140E+00 0.16006845E+03</pdfrwt>
<pdfrwt beam="2">  1       -2 0.63156260E-02 0.16006845E+03</pdfrwt>
<totfact> 0.60125811E+03</totfact>
</mgrwt>
</event>
<event>
 8    1  0.1154424E-005  0.2510933E+03  0.7546771E-02  0.1114848E+00
         -2   -1    0    0    0  501 -0.00000000000E+00  0.00000000000E+00  0.30783843609E+02  0.30783843609E+02  0.00000000000E+00 0.  1.
          2   -1    0    0  501    0  0.00000000000E+00 -0.00000000000E+00 -0.19407072423E+04  0.19407072423E+04  0.00000000000E+00 0. -1.
         23    2    1    2    0    0 -0.21628016014E+03 -0.25335444842E+02 -0.10237810833E+04  0.10541231244E+04  0.12501544886E+03 0.  0.
         23    2    1    2    0    0  0.21628016014E+03  0.25335444842E+02 -0.88614231546E+03  0.91736796157E+03  0.94322750339E+02 0.  0.
          5    1    3    3  502    0 -0.20809491234E+02 -0.79116583650E+01 -0.38940765330E+03  0.39007183916E+03  0.47000000000E+01 0. -1.
         -5    1    3    3    0  502 -0.19547066891E+03 -0.17423786477E+02 -0.63437342997E+03  0.66405128521E+03  0.47000000000E+01 0. -1.
        -11    1    4    4    0    0  0.73491918843E+02 -0.31452815688E+02 -0.23084359943E+03  0.24429308043E+03  0.00000000000E+00 0.  1.
         11    1    4    4    0    0  0.14278824130E+03  0.56788260530E+02 -0.65529871603E+03  0.67307488114E+03  0.00000000000E+00 0. -1.
<mgrwt>
<rscale>  0 0.24757405E+03</rscale>
<asrwt>0</asrwt>
<pdfrwt beam="2">  1        2 0.29857032E+00 0.25109332E+03</pdfrwt>
<pdfrwt beam="1">  1       -2 0.47359763E-02 0.25109332E+03</pdfrwt>
<totfact> 0.17000065E+03</totfact>
</mgrwt>
</event>
<event>
 8    1  0.1154424E-005  0.1251918E+03  0.7546771E-02  0.1250749E+00
         -1   -1    0    0    0  501 -0.00000000000E+00  0.00000000000E+00  0.39773152422E+02  0.39773152422E+02  0.00000000000E+00 0.  1.
          1   -1    0    0  501    0  0.00000000000E+00 -0.00000000000E+00 -0.30353960950E+03  0.30353960950E+03  0.00000000000E+00 0. -1.
         23    2    1    2    0    0  0.53001043727E+00  0.71867735389E+01 -0.12033689670E+03  0.17364891020E+03  0.12498417773E+03 0.  0.
         23    2    1    2    0    0 -0.53001043727E+00 -0.71867735389E+01 -0.14342956038E+03  0.16966385172E+03  0.90342975183E+02 0.  0.
          5    1    3    3  502    0 -0.42940615905E+02 -0.14817326744E+02 -0.11581296385E+03  0.12449169555E+03  0.47000000000E+01 0.  1.
         -5    1    3    3    0  502  0.43470626343E+02  0.22004100283E+02 -0.45239328531E+01  0.49157214652E+02  0.47000000000E+01 0.  1.
        -11    1    4    4    0    0  0.14734612284E+01 -0.25720176820E+02 -0.14819937408E+03  0.15042191683E+03  0.00000000000E+00 0. -1.
         11    1    4    4    0    0 -0.20034716656E+01  0.18533403281E+02  0.47698136973E+01  0.19241934898E+02  0.00000000000E+00 0.  1.
<mgrwt>
<rscale>  0 0.11547812E+03</rscale>
<asrwt>0</asrwt>
<pdfrwt beam="2">  1        1 0.46698403E-01 0.12519175E+03</pdfrwt>
<pdfrwt beam="1">  1       -1 0.61189463E-02 0.12519175E+03</pdfrwt>
<totfact> 0.10512550E+04</totfact>
</mgrwt>
</event>
<event>
 8    1  0.1154424E-005  0.1692296E+03  0.7546771E-02  0.1185364E+00
          2   -1    0    0  501    0  0.00000000000E+00  0.00000000000E+00  0.19755144740E+03  0.19755144740E+03  0.00000000000E+00 0. -1.
         -2   -1    0    0    0  501 -0.00000000000E+00 -0.00000000000E+00 -0.49027725880E+03  0.49027725880E+03  0.00000000000E+00 0.  1.
         23    2    1    2    0    0  0.10162389466E+03  0.51837559981E+02 -0.44563210364E+03  0.47668295462E+03  0.12499647534E+03 0.  0.
         23    2    1    2    0    0 -0.10162389466E+03 -0.51837559981E+02  0.15290629224E+03  0.21114575157E+03  0.90485609971E+02 0.  0.
          5    1    3    3  502    0  0.55551088083E+02 -0.32628896945E+02 -0.25552025250E+03  0.26355883165E+03  0.47000000000E+01 0.  1.
         -5    1    3    3    0  502  0.46072806572E+02  0.84466456925E+02 -0.19011185114E+03  0.21312412298E+03  0.47000000000E+01 0.  1.
        -11    1    4    4    0    0 -0.64661935461E+02 -0.76844118018E+02  0.11413485636E+03  0.15202943731E+03  0.00000000000E+00 0.  1.
         11    1    4    4    0    0 -0.36961959194E+02  0.25006558038E+02  0.38771435876E+02  0.59116314264E+02  0.00000000000E+00 0. -1.
<mgrwt>
<rscale>  0 0.16298773E+03</rscale>
<asrwt>0</asrwt>
<pdfrwt beam="1">  1        2 0.30392531E-01 0.16922963E+03</pdfrwt>
<pdfrwt beam="2">  1       -2 0.75427270E-01 0.16922963E+03</pdfrwt>
<totfact> 0.28217546E+02</totfact>
</mgrwt>
</event>
<event>
 8    1  0.1154424E-005  0.1659777E+03  0.7546771E-02  0.1189380E+00
          2   -1    0    0  501    0  0.00000000000E+00  0.00000000000E+00  0.29408217504E+02  0.29408217504E+02  0.00000000000E+00 0. -1.
         -2   -1    0    0    0  501 -0.00000000000E+00 -0.00000000000E+00 -0.11748062176E+04  0.11748062176E+04  0.00000000000E+00 0.  1.
         23    2    1    2    0    0  0.54311836838E+02 -0.94726343584E+02 -0.94268908058E+03  0.95718927647E+03  0.12500301019E+03 0.  0.
         23    2    1    2    0    0 -0.54311836838E+02  0.94726343584E+02 -0.20270891951E+03  0.24702515863E+03  0.89485569542E+02 0.  0.
          5    1    3    3  502    0  0.49771406886E+02 -0.80068565852E+02 -0.93434516798E+03  0.93910124646E+03  0.47000000000E+01 0. -1.
         -5    1    3    3    0  502  0.45404299522E+01 -0.14657777731E+02 -0.83439126050E+01  0.18088030013E+02  0.47000000000E+01 0. -1.
        -11    1    4    4    0    0 -0.69129781181E+02  0.69791348835E+02 -0.99513918885E+02  0.13983125212E+03  0.00000000000E+00 0. -1.
         11    1    4    4    0    0  0.14817944343E+02  0.24934994749E+02 -0.10319500062E+03  0.10719390650E+03  0.00000000000E+00 0.  1.
<mgrwt>
<rscale>  0 0.15939592E+03</rscale>
<asrwt>0</asrwt>
<pdfrwt beam="1">  1        2 0.45243412E-02 0.16597773E+03</pdfrwt>
<pdfrwt beam="2">  1       -2 0.18073941E+00 0.16597773E+03</pdfrwt>
<totfact> 0.34225011E+02</totfact>
</mgrwt>
</event>
<event>
 8    1  0.1154424E-005  0.1361096E+03  0.7546771E-02  0.1230886E+00
         -2   -1    0    0    0  501 -0.00000000000E+00  0.00000000000E+00  0.10445827224E+03  0.10445827224E+03  0.00000000000E+00 0.  1.
          2   -1    0    0  501    0  0.00000000000E+00 -0.00000000000E+00 -0.15002811480E+03  0.15002811480E+03  0.00000000000E+00 0. -1.
         23    2    1    2    0    0  0.42586442470E+02  0.32981100938E+02  0.76240486368E+01  0.13632296474E+03  0.12499786597E+03 0.  0.
         23    2    1    2    0    0 -0.42586442470E+02 -0.32981100938E+02 -0.53193891189E+02  0.11816342230E+03  0.90728420070E+02 0.  0.
          5    1    3    3  502    0 -0.34670718673E+02 -0.16641827734E+01 -0.27503731183E+02  0.44535081302E+02  0.47000000000E+01 0.  1.
         -5    1    3    3    0  502  0.77257161142E+02  0.34645283711E+02  0.35127779820E+02  0.91787883439E+02  0.47000000000E+01 0.  1.
        -11    1    4    4    0    0 -0.30596727592E+02  0.28898696864E+02 -0.16327364893E+02  0.45142853965E+02  0.00000000000E+00 0.  1.
         11    1    4    4    0    0 -0.11989714878E+02 -0.61879797801E+02 -0.36866526296E+02  0.73020568335E+02  0.00000000000E+00 0. -1.
<mgrwt>
<rscale>  0 0.12771536E+03</rscale>
<asrwt>0</asrwt>
<pdfrwt beam="2">  1        2 0.23081248E-01 0.13610961E+03</pdfrwt>
<pdfrwt beam="1">  1       -2 0.16070504E-01 0.13610961E+03</pdfrwt>
<totfact> 0.68167435E+03</totfact>
</mgrwt>
</event>
<event>
 8    1  0.1154424E-005  0.1386751E+03  0.7546771E-02  0.1228185E+00
          2   -1    0    0  501    0  0.00000000000E+00  0.00000000000E+00  0.25240411492E+03  0.25240411492E+03  0.00000000000E+00 0.  1.
         -2   -1    0    0    0  501 -0.00000000000E+00 -0.00000000000E+00 -0.61038276967E+02  0.61038276967E+02  0.00000000000E+00 0. -1.
         23    2    1    2    0    0 -0.59442649693E+02  0.84985562461E+01  0.80226432743E+02  0.16020942990E+03  0.12500050743E+03 0.  0.
         23    2    1    2    0    0  0.59442649693E+02 -0.84985562461E+01  0.11113940521E+03  0.15323296198E+03  0.86733610486E+02 0.  0.
          5    1    3    3  502    0  0.29581485241E+02 -0.13635965653E+02 -0.68780675355E+01  0.33621446152E+02  0.47000000000E+01 0.  1.
         -5    1    3    3    0  502 -0.89024134934E+02  0.22134521899E+02  0.87104500279E+02  0.12658798375E+03  0.47000000000E+01 0.  1.
        -11    1    4    4    0    0  0.59905168077E+02  0.28814340007E+02  0.57514511942E+02  0.87902300518E+02  0.00000000000E+00 0. -1.
         11    1    4    4    0    0 -0.46251838377E+00 -0.37312896253E+02  0.53624893264E+02  0.65330661466E+02  0.00000000000E+00 0.  1.
<mgrwt>
<rscale>  0 0.12950985E+03</rscale>
<asrwt>0</asrwt>
<pdfrwt beam="1">  1        2 0.38831402E-01 0.13867509E+03</pdfrwt>
<pdfrwt beam="2">  1       -2 0.93905043E-02 0.13867509E+03</pdfrwt>
<totfact> 0.91780826E+03</totfact>
</mgrwt>
</event>
<event>
 8    1  0.1154424E-005  0.1399094E+03  0.7546771E-02  0.1224637E+00
         -1   -1    0    0    0  501 -0.00000000000E+00  0.00000000000E+00  0.32967539361E+02  0.32967539361E+02  0.00000000000E+00 0.  1.
          1   -1    0    0  501    0  0.00000000000E+00 -0.00000000000E+00 -0.56751429324E+03  0.56751429324E+03  0.00000000000E+00 0. -1.
         23    2    1    2    0    0 -0.45484863620E+02  0.43358284202E+02 -0.17351376644E+03  0.22289386705E+03  0.12500334074E+03 0.  0.
         23    2    1    2    0    0  0.45484863620E+02 -0.43358284202E+02 -0.36103298744E+03  0.37758796556E+03  0.90989230591E+02 0.  0.
          5    1    3    3  502    0  0.12532811589E+02  0.37842801129E+02 -0.36726057732E+00  0.40141921279E+02  0.47000000000E+01 0.  1.
         -5    1    3    3    0  502 -0.58017675209E+02  0.55154830726E+01 -0.17314650586E+03  0.18275194577E+03  0.47000000000E+01 0.  1.
        -11    1    4    4    0    0  0.31986215827E+02  0.16448085867E+02 -0.56737883587E+02  0.67177711822E+02  0.00000000000E+00 0.  1.
         11    1    4    4    0    0  0.13498647793E+02 -0.59806370069E+02 -0.30429510386E+03  0.31041025374E+03  0.00000000000E+00 0. -1.
<mgrwt>
<rscale>  0 0.13191799E+03</rscale>
<asrwt>0</asrwt>
<pdfrwt beam="2">  1        1 0.87309889E-01 0.13990943E+03</pdfrwt>
<pdfrwt beam="1">  1       -1 0.50719293E-02 0.13990943E+03</pdfrwt>
<totfact> 0.63084226E+03</totfact>
</mgrwt>
</event>
<event>
 7    1  0.1154424E-005  0.2027499E+03  0.7546771E-02  0.1172666E+00
          2   -1    0    0  501    0  0.00000000000E+00  0.00000000000E+00  0.25580995116E+03  0.25580995116E+03  0.00000000000E+00 0. -1.
         -2   -1    0    0    0  501 -0.00000000000E+00 -0.00000000000E+00 -0.12506458793E+03  0.12506458793E+03  0.00000000000E+00 0.  1.
         23    2    1    2    0    0  0.61689148798E+02 -0.64624148406E+01  0.13778103868E+03  0.17800263535E+03  0.94095747451E+02 0.  0.
          5    1    1    2  502    0  0.66241667669E+02  0.56353629600E+01  0.24530305767E+02  0.71017897408E+02  0.47000000000E+01 0. -1.
         -5    1    1    2    0  502 -0.12793081647E+03  0.82705188067E+00 -0.31565981210E+02  0.13185400633E+03  0.47000000000E+01 0.  1.
        -11    1    3    3    0    0 -0.11566177598E+02 -0.32272049107E+02  0.52000046314E+02  0.62283757389E+02  0.00000000000E+00 0.  1.
         11    1    3    3    0    0  0.73255326396E+02  0.25809634266E+02  0.85780992364E+02  0.11571887796E+03  0.00000000000E+00 0. -1.
<mgrwt>
<rscale>  0 0.17506590E+03</rscale>
<asrwt>0</asrwt>
<pdfrwt beam="1">  1        2 0.39355377E-01 0.20274987E+03</pdfrwt>
<pdfrwt beam="2">  1       -2 0.19240706E-01 0.20274987E+03</pdfrwt>
<totfact> 0.28790313E+03</totfact>
</mgrwt>
</event>
<event>
 8    1  0.1154424E-005  0.1317345E+03  0.7546771E-02  0.1238036E+00
         -2   -1    0    0    0  501 -0.00000000000E+00  0.00000000000E+00  0.13326912070E+03  0.13326912070E+03  0.00000000000E+00 0.  1.
          2   -1    0    0  501    0  0.00000000000E+00 -0.00000000000E+00 -0.14437365681E+03  0.14437365681E+03  0.00000000000E+00 0. -1.
         23    2    1    2    0    0  0.20793164413E+02 -0.36019019891E+02  0.69369504454E+02  0.14888290531E+03  0.12499706343E+03 0.  0.
         23    2    1    2    0    0 -0.20793164413E+02  0.36019019891E+02 -0.80474040570E+02  0.12875987220E+03  0.91505781255E+02 0.  0.
          5    1    3    3  502    0  0.46035112215E+02 -0.71307109459E+02  0.60533760817E+02  0.10435689539E+03  0.47000000000E+01 0. -1.
         -5    1    3    3    0  502 -0.25241947802E+02  0.35288089568E+02  0.88357436376E+01  0.44526009924E+02  0.47000000000E+01 0. -1.
        -11    1    4    4    0    0  0.25729496145E+02  0.29543188774E+02 -0.70630926318E+02  0.80768401788E+02  0.00000000000E+00 0. -1.
         11    1    4    4    0    0 -0.46522660558E+02  0.64758311166E+01 -0.98431142518E+01  0.47991470412E+02  0.00000000000E+00 0.  1.
<mgrwt>
<rscale>  0 0.12312075E+03</rscale>
<asrwt>0</asrwt>
<pdfrwt beam="2">  1        2 0.22211332E-01 0.13173455E+03</pdfrwt>
<pdfrwt beam="1">  1       -2 0.20502942E-01 0.13173455E+03</pdfrwt>
<totfact> 0.47260274E+03</totfact>
</mgrwt>
</event>
<event>
 8    1  0.1154424E-005  0.1340010E+03  0.7546771E-02  0.1232980E+00
          2   -1    0    0  501    0  0.00000000000E+00  0.00000000000E+00  0.12913985869E+03  0.12913985869E+03  0.00000000000E+00 0. -1.
         -2   -1    0    0    0  501 -0.00000000000E+00 -0.00000000000E+00 -0.12131729435E+03  0.12131729435E+03  0.00000000000E+00 0.  1.
         23    2    1    2    0    0 -0.47989841555E+02  0.53237672715E+01 -0.31207901203E+02  0.13758709399E+03  0.12499963178E+03 0.  0.
         23    2    1    2    0    0  0.47989841555E+02 -0.53237672715E+01  0.39030465546E+02  0.11287005905E+03  0.94259777209E+02 0.  0.
          5    1    3    3  502    0 -0.43166436562E+02  0.50259500132E+02 -0.55056690888E+02  0.86271013733E+02  0.47000000000E+01 0. -1.
         -5    1    3    3    0  502 -0.48234049934E+01 -0.44935732861E+02  0.23848789686E+02  0.51316080257E+02  0.47000000000E+01 0. -1.
        -11    1    4    4    0    0  0.42853899898E+02 -0.26080891614E+02 -0.16943744321E+02  0.52950544052E+02  0.00000000000E+00 0.  1.
         11    1    4    4    0    0  0.51359416574E+01  0.20757124342E+02  0.55974209867E+02  0.59919515001E+02  0.00000000000E+00 0. -1.
<mgrwt>
<rscale>  0 0.12634620E+03</rscale>
<asrwt>0</asrwt>
<pdfrwt beam="1">  1        2 0.19867671E-01 0.13400103E+03</pdfrwt>
<pdfrwt beam="2">  1       -2 0.18664199E-01 0.13400103E+03</pdfrwt>
<totfact> 0.62837092E+03</totfact>
</mgrwt>
</event>
<event>
 8    1  0.1154424E-005  0.1269260E+03  0.7546771E-02  0.1246919E+00
          3   -1    0    0  501    0  0.00000000000E+00  0.00000000000E+00  0.35477941027E+02  0.35477941027E+02  0.00000000000E+00 0. -1.
         -3   -1    0    0    0  501 -0.00000000000E+00 -0.00000000000E+00 -0.34588410689E+03  0.34588410689E+03  0.00000000000E+00 0.  1.
         23    2    1    2    0    0 -0.20229308040E+02 -0.92638502189E+01 -0.19356673542E+03  0.23146984284E+03  0.12496064683E+03 0.  0.
         23    2    1    2    0    0  0.20229308040E+02  0.92638502189E+01 -0.11683943044E+03  0.14989220508E+03  0.91220484614E+02 0.  0.
          5    1    3    3  502    0  0.37009192847E+02  0.14818583296E+01 -0.97461812891E+01  0.38586970715E+02  0.47000000000E+01 0.  1.
         -5    1    3    3    0  502 -0.57238500887E+02 -0.10745708549E+02 -0.18382055413E+03  0.19288287212E+03  0.47000000000E+01 0.  1.
        -11    1    4    4    0    0  0.15460275127E+01  0.25092618262E+02  0.49862713535E+01  0.25629916003E+02  0.00000000000E+00 0. -1.
         11    1    4    4    0    0  0.18683280527E+02 -0.15828768043E+02 -0.12182570179E+03  0.12426228907E+03  0.00000000000E+00 0.  1.
<mgrwt>
<rscale>  0 0.11771267E+03</rscale>
<asrwt>0</asrwt>
<pdfrwt beam="1">  1        3 0.54581447E-02 0.12692599E+03</pdfrwt>
<pdfrwt beam="2">  1       -3 0.53212940E-01 0.12692599E+03</pdfrwt>
<totfact> 0.15856468E+03</totfact>
</mgrwt>
</event>
<event>
 8    1  0.1154424E-005  0.1457693E+03  0.7546771E-02  0.1215438E+00
         -2   -1    0    0    0  501 -0.00000000000E+00  0.00000000000E+00  0.43180449936E+02  0.43180449936E+02  0.00000000000E+00 0.  1.
          2   -1    0    0  501    0  0.00000000000E+00 -0.00000000000E+00 -0.45237073882E+03  0.45237073882E+03  0.00000000000E+00 0. -1.
         23    2    1    2    0    0  0.62690468594E+02  0.41151368217E+02 -0.14331240416E+03  0.20441899886E+03  0.12500060780E+03 0.  0.
         23    2    1    2    0    0 -0.62690468594E+02 -0.41151368217E+02 -0.26587788473E+03  0.29113218990E+03  0.91887825355E+02 0.  0.
          5    1    3    3  502    0  0.92263639911E+02  0.42693725987E+02 -0.14160962970E+03  0.17438667011E+03  0.47000000000E+01 0.  1.
         -5    1    3    3    0  502 -0.29573171318E+02 -0.15423577691E+01 -0.17027744571E+01  0.30032328749E+02  0.47000000000E+01 0.  1.
        -11    1    4    4    0    0 -0.47860953748E+02 -0.52428445558E+02 -0.26283766306E+03  0.27225548648E+03  0.00000000000E+00 0. -1.
         11    1    4    4    0    0 -0.14829514845E+02  0.11277077341E+02 -0.30402216645E+01  0.18876703411E+02  0.00000000000E+00 0.  1.
<mgrwt>
<rscale>  0 0.13844405E+03</rscale>
<asrwt>0</asrwt>
<pdfrwt beam="2">  1        2 0.69595495E-01 0.14576928E+03</pdfrwt>
<pdfrwt beam="1">  1       -2 0.66431464E-02 0.14576928E+03</pdfrwt>
<totfact> 0.84386281E+03</totfact>
</mgrwt>
</event>
<event>
 8    1  0.1154424E-005  0.1277094E+03  0.7546771E-02  0.1245302E+00
          1   -1    0    0  501    0  0.00000000000E+00  0.00000000000E+00  0.28926342921E+03  0.28926342921E+03  0.00000000000E+00 0. -1.
         -1   -1    0    0    0  501 -0.00000000000E+00 -0.00000000000E+00 -0.53289714169E+02  0.53289714169E+02  0.00000000000E+00 0.  1.
         23    2    1    2    0    0  0.20143735140E+02 -0.16602912668E+02  0.57060086734E+02  0.13987690113E+03  0.12501306811E+03 0.  0.
         23    2    1    2    0    0 -0.20143735140E+02  0.16602912668E+02  0.17891362830E+03  0.20267624224E+03  0.91575902958E+02 0.  0.
          5    1    3    3  502    0 -0.37680170198E+02  0.22215214987E+02 -0.76967624446E+01  0.44661405657E+02  0.47000000000E+01 0. -1.
         -5    1    3    3    0  502  0.57823905338E+02 -0.38818127655E+02  0.64756849178E+02  0.95215495476E+02  0.47000000000E+01 0. -1.
        -11    1    4    4    0    0 -0.43923378435E+02  0.11486966356E+02  0.36648174553E+02  0.58346398923E+02  0.00000000000E+00 0.  1.
         11    1    4    4    0    0  0.23779643295E+02  0.51159463115E+01  0.14226545375E+03  0.14432984332E+03  0.00000000000E+00 0. -1.
<mgrwt>
<rscale>  0 0.11867345E+03</rscale>
<asrwt>0</asrwt>
<pdfrwt beam="1">  1        1 0.44502065E-01 0.12770941E+03</pdfrwt>
<pdfrwt beam="2">  1       -1 0.81984177E-02 0.12770941E+03</pdfrwt>
<totfact> 0.72097965E+03</totfact>
</mgrwt>
</event>
<event>
 8    1  0.1154424E-005  0.1917676E+03  0.7546771E-02  0.1161716E+00
         -2   -1    0    0    0  501 -0.00000000000E+00  0.00000000000E+00  0.22230798965E+03  0.22230798965E+03  0.00000000000E+00 0.  1.
          2   -1    0    0  501    0  0.00000000000E+00 -0.00000000000E+00 -0.31261205568E+03  0.31261205568E+03  0.00000000000E+00 0. -1.
         23    2    1    2    0    0  0.76425225919E+02  0.12372883126E+03  0.14743106358E+03  0.24188993276E+03  0.12500072887E+03 0.  0.
         23    2    1    2    0    0 -0.76425225919E+02 -0.12372883126E+03 -0.23773512961E+03  0.29303011257E+03  0.90548418989E+02 0.  0.
          5    1    3    3  502    0  0.94267590829E+02  0.13886013705E+03  0.12965967112E+03  0.21213730614E+03  0.47000000000E+01 0.  1.
         -5    1    3    3    0  502 -0.17842364910E+02 -0.15131305790E+02  0.17771392459E+02  0.29752626614E+02  0.47000000000E+01 0.  1.
        -11    1    4    4    0    0  0.91444870120E+01 -0.68998295773E+02 -0.90939541804E+02  0.11451806288E+03  0.00000000000E+00 0.  1.
         11    1    4    4    0    0 -0.85569712931E+02 -0.54730535486E+02 -0.14679558781E+03  0.17851204969E+03  0.00000000000E+00 0. -1.
<mgrwt>
<rscale>  0 0.18643609E+03</rscale>
<asrwt>0</asrwt>
<pdfrwt beam="2">  1        2 0.48094162E-01 0.19176762E+03</pdfrwt>
<pdfrwt beam="1">  1       -2 0.34201229E-01 0.19176762E+03</pdfrwt>
<totfact> 0.83757379E+02</totfact>
</mgrwt>
</event>
<event>
 8    1  0.1154424E-005  0.1282256E+03  0.7546771E-02  0.1244547E+00
          2   -1    0    0  501    0  0.00000000000E+00  0.00000000000E+00  0.86056952344E+02  0.86056952344E+02  0.00000000000E+00 0. -1.
         -2   -1    0    0    0  501 -0.00000000000E+00 -0.00000000000E+00 -0.14608202924E+03  0.14608202924E+03  0.00000000000E+00 0.  1.
         23    2    1    2    0    0 -0.61436024322E+01 -0.27927083789E+02 -0.42033569407E+02  0.13493935723E+03  0.12499657320E+03 0.  0.
         23    2    1    2    0    0  0.61436024322E+01  0.27927083789E+02 -0.17991507494E+02  0.97199624358E+02  0.91139490747E+02 0.  0.
          5    1    3    3  502    0 -0.42195175163E+02 -0.25883940903E+02 -0.72191092883E+02  0.87658742265E+02  0.47000000000E+01 0.  1.
         -5    1    3    3    0  502  0.36051572731E+02 -0.20431428855E+01  0.30157523477E+02  0.47280614965E+02  0.47000000000E+01 0.  1.
        -11    1    4    4    0    0  0.20744116035E+02 -0.92615749110E+01 -0.44006316597E+02  0.49524246792E+02  0.00000000000E+00 0.  1.
         11    1    4    4    0    0 -0.14600513603E+02  0.37188658700E+02  0.26014809103E+02  0.47675377566E+02  0.00000000000E+00 0. -1.
<mgrwt>
<rscale>  0 0.11912549E+03</rscale>
<asrwt>0</asrwt>
<pdfrwt beam="1">  1        2 0.13239531E-01 0.12822562E+03</pdfrwt>
<pdfrwt beam="2">  1       -2 0.22474158E-01 0.12822562E+03</pdfrwt>
<totfact> 0.73140015E+03</totfact>
</mgrwt>
</event>
<event>
 8    1  0.1154424E-005  0.1532002E+03  0.7546771E-02  0.1205172E+00
         -2   -1    0    0    0  501 -0.00000000000E+00  0.00000000000E+00  0.90401996666E+02  0.90401996666E+02  0.00000000000E+00 0.  1.
          2   -1    0    0  501    0  0.00000000000E+00 -0.00000000000E+00 -0.23668442656E+03  0.23668442656E+03  0.00000000000E+00 0. -1.
         23    2    1    2    0    0 -0.18565617247E+02 -0.86538865433E+02 -0.32902702382E+02  0.15669365427E+03  0.12504661567E+03 0.  0.
         23    2    1    2    0    0  0.18565617247E+02  0.86538865433E+02 -0.11337972751E+03  0.17039276895E+03  0.91351386016E+02 0.  0.
          5    1    3    3  502    0  0.44678025771E+02 -0.69849762917E+02 -0.37148291368E+02  0.90979123528E+02  0.47000000000E+01 0. -1.
         -5    1    3    3    0  502 -0.63243643019E+02 -0.16689102515E+02  0.42455889858E+01  0.65714530744E+02  0.47000000000E+01 0. -1.
        -11    1    4    4    0    0  0.52752080950E+02  0.32511123826E+02 -0.43697722723E+02  0.75823783790E+02  0.00000000000E+00 0. -1.
         11    1    4    4    0    0 -0.34186463703E+02  0.54027741607E+02 -0.69682004789E+02  0.94568985165E+02  0.00000000000E+00 0.  1.
<mgrwt>
<rscale>  0 0.14623881E+03</rscale>
<asrwt>0</asrwt>
<pdfrwt beam="2">  1        2 0.36412989E-01 0.15320024E+03</pdfrwt>
<pdfrwt beam="1">  1       -2 0.13907999E-01 0.15320024E+03</pdfrwt>
<totfact> 0.52932490E+03</totfact>
</mgrwt>
</event>
<event>
 8    1  0.1154424E-005  0.1514565E+03  0.7546771E-02  0.1207837E+00
         -1   -1    0    0    0  501 -0.00000000000E+00  0.00000000000E+00  0.16059163999E+02  0.16059163999E+02  0.00000000000E+00 0.  1.
          1   -1    0    0  501    0  0.00000000000E+00 -0.00000000000E+00 -0.11855479015E+04  0.11855479015E+04  0.00000000000E+00 0. -1.
         23    2    1    2    0    0 -0.67183632657E+02 -0.52916827789E+02 -0.62006260831E+03  0.63829202066E+03  0.12500093699E+03 0.  0.
         23    2    1    2    0    0  0.67183632657E+02  0.52916827789E+02 -0.54942612919E+03  0.56331504484E+03  0.90227141969E+02 0.  0.
          5    1    3    3  502    0  0.64758203584E+01  0.23037182034E+02 -0.30359117192E+03  0.30456910164E+03  0.47000000000E+01 0.  1.
         -5    1    3    3    0  502 -0.73659453015E+02 -0.75954009823E+02 -0.31647143639E+03  0.33372291901E+03  0.47000000000E+01 0.  1.
        -11    1    4    4    0    0 -0.17526996383E+02  0.31796282940E+02 -0.19000435914E+03  0.19344212494E+03  0.00000000000E+00 0. -1.
         11    1    4    4    0    0  0.84710629040E+02  0.21120544849E+02 -0.35942177006E+03  0.36987291990E+03  0.00000000000E+00 0.  1.
<mgrwt>
<rscale>  0 0.14416131E+03</rscale>
<asrwt>0</asrwt>
<pdfrwt beam="2">  1        1 0.18239208E+00 0.15145648E+03</pdfrwt>
<pdfrwt beam="1">  1       -1 0.24706394E-02 0.15145648E+03</pdfrwt>
<totfact> 0.57784358E+03</totfact>
</mgrwt>
</event>
<event>
 8    1  0.1154424E-005  0.1314674E+03  0.7546771E-02  0.1237779E+00
         -2   -1    0    0    0  501 -0.00000000000E+00  0.00000000000E+00  0.44611369695E+03  0.44611369695E+03  0.00000000000E+00 0.  1.
          2   -1    0    0  501    0  0.00000000000E+00 -0.00000000000E+00 -0.33246982762E+02  0.33246982762E+02  0.00000000000E+00 0. -1.
         23    2    1    2    0    0 -0.28581790119E+02  0.28993811433E+02  0.29953685437E+03  0.32711772546E+03  0.12500447735E+03 0.  0.
         23    2    1    2    0    0  0.28581790119E+02 -0.28993811433E+02  0.11332985982E+03  0.15224295425E+03  0.93148806567E+02 0.  0.
          5    1    3    3  502    0  0.74308184482E+01 -0.20834624466E+02  0.13843299028E+01  0.22656235537E+02  0.47000000000E+01 0.  1.
         -5    1    3    3    0  502 -0.36012608567E+02  0.49828435899E+02  0.29815252447E+03  0.30446148992E+03  0.47000000000E+01 0.  1.
        -11    1    4    4    0    0 -0.49306067813E+01  0.31651491867E+02  0.30216944470E+02  0.44036252721E+02  0.00000000000E+00 0. -1.
         11    1    4    4    0    0  0.33512396901E+02 -0.60645303300E+02  0.83112915348E+02  0.10820670153E+03  0.00000000000E+00 0.  1.
<mgrwt>
<rscale>  0 0.12328167E+03</rscale>
<asrwt>0</asrwt>
<pdfrwt beam="2">  1        2 0.51149207E-02 0.13146741E+03</pdfrwt>
<pdfrwt beam="1">  1       -2 0.68632872E-01 0.13146741E+03</pdfrwt>
<totfact> 0.28963987E+03</totfact>
</mgrwt>
</event>
<event>
 8    1  0.1154424E-005  0.1922263E+03  0.7546771E-02  0.1158614E+00
          3   -1    0    0  501    0  0.00000000000E+00  0.00000000000E+00  0.26519536974E+03  0.26519536974E+03  0.00000000000E+00 0. -1.
         -3   -1    0    0    0  501 -0.00000000000E+00 -0.00000000000E+00 -0.24341965032E+03  0.24341965032E+03  0.00000000000E+00 0.  1.
         23    2    1    2    0    0 -0.12606963704E+03 -0.92389723991E+02 -0.16052250562E+03  0.25043648486E+03  0.11189970356E+03 0.  0.
         23    2    1    2    0    0  0.12606963704E+03  0.92389723991E+02  0.18229822505E+03  0.25817853520E+03  0.94837222125E+02 0.  0.
          5    1    3    3  502    0  0.12729535739E+02 -0.23418891474E+02  0.25529172282E+00  0.27067336993E+02  0.47000000000E+01 0. -1.
         -5    1    3    3    0  502 -0.13879917278E+03 -0.68970832516E+02 -0.16077779734E+03  0.22336914787E+03  0.47000000000E+01 0.  1.
        -11    1    4    4    0    0  0.10714719792E+03  0.10904717840E+03  0.17404147627E+03  0.23165112692E+03  0.00000000000E+00 0. -1.
         11    1    4    4    0    0  0.18922439124E+02 -0.16657454411E+02  0.82567487712E+01  0.26527408281E+02  0.00000000000E+00 0.  1.
<mgrwt>
<rscale>  0 0.18983057E+03</rscale>
<asrwt>0</asrwt>
<pdfrwt beam="1">  1        3 0.40799288E-01 0.19222632E+03</pdfrwt>
<pdfrwt beam="2">  1       -3 0.37449177E-01 0.19222632E+03</pdfrwt>
<totfact> 0.10262689E+02</totfact>
</mgrwt>
</event>
<event>
 8    1  0.1154424E-005  0.1320525E+03  0.7546771E-02  0.1238586E+00
          2   -1    0    0  501    0  0.00000000000E+00  0.00000000000E+00  0.30916721030E+03  0.30916721030E+03  0.00000000000E+00 0. -1.
         -2   -1    0    0    0  501 -0.00000000000E+00 -0.00000000000E+00 -0.44992325342E+02  0.44992325342E+02  0.00000000000E+00 0.  1.
         23    2    1    2    0    0 -0.87388912242E+01  0.41672669136E+02  0.11392687720E+03  0.17440525626E+03  0.12499952196E+03 0.  0.
         23    2    1    2    0    0  0.87388912242E+01 -0.41672669136E+02  0.15024800776E+03  0.17975427939E+03  0.89017737270E+02 0.  0.
          5    1    3    3  502    0 -0.42136205078E+02 -0.19215944295E+02  0.89060355779E+02  0.10049153828E+03  0.47000000000E+01 0.  1.
         -5    1    3    3    0  502  0.33397313854E+02  0.60888613432E+02  0.24866521417E+02  0.73913717980E+02  0.47000000000E+01 0.  1.
        -11    1    4    4    0    0  0.33018085851E+02  0.11885143131E+02  0.31119627194E+02  0.46902897748E+02  0.00000000000E+00 0.  1.
         11    1    4    4    0    0 -0.24279194627E+02 -0.53557812267E+02  0.11912838057E+03  0.13285138164E+03  0.00000000000E+00 0. -1.
<mgrwt>
<rscale>  0 0.12277611E+03</rscale>
<asrwt>0</asrwt>
<pdfrwt beam="1">  1        2 0.47564185E-01 0.13205249E+03</pdfrwt>
<pdfrwt beam="2">  1       -2 0.69218964E-02 0.13205249E+03</pdfrwt>
<totfact> 0.11814933E+04</totfact>
</mgrwt>
</event>
<event>
 8    1  0.1154424E-005  0.1421910E+03  0.7546771E-02  0.1220603E+00
         -2   -1    0    0    0  501 -0.00000000000E+00  0.00000000000E+00  0.53422142187E+02  0.53422142187E+02  0.00000000000E+00 0.  1.
          2   -1    0    0  501    0  0.00000000000E+00 -0.00000000000E+00 -0.31989593800E+03  0.31989593800E+03  0.00000000000E+00 0. -1.
         23    2    1    2    0    0  0.49806184573E+02  0.45974648666E+02 -0.11218618048E+03  0.18111882010E+03  0.12499585417E+03 0.  0.
         23    2    1    2    0    0 -0.49806184573E+02 -0.45974648666E+02 -0.15428761533E+03  0.19219926009E+03  0.92420576671E+02 0.  0.
          5    1    3    3  502    0  0.41489096873E+02  0.21216694771E+02 -0.13700193391E+03  0.14478643995E+03  0.47000000000E+01 0.  1.
         -5    1    3    3    0  502  0.83170876999E+01  0.24757953895E+02  0.24815753433E+02  0.36332380150E+02  0.47000000000E+01 0.  1.
        -11    1    4    4    0    0 -0.19380307243E+02 -0.41906093205E+02 -0.13499563286E+02  0.48103587865E+02  0.00000000000E+00 0.  1.
         11    1    4    4    0    0 -0.30425877330E+02 -0.40685554609E+01 -0.14078805205E+03  0.14409567223E+03  0.00000000000E+00 0. -1.
<mgrwt>
<rscale>  0 0.13472915E+03</rscale>
<asrwt>0</asrwt>
<pdfrwt beam="2">  1        2 0.49214760E-01 0.14219103E+03</pdfrwt>
<pdfrwt beam="1">  1       -2 0.82187910E-02 0.14219103E+03</pdfrwt>
<totfact> 0.87971141E+03</totfact>
</mgrwt>
</event>
<event>
 8    1  0.1154424E-005  0.4235931E+03  0.7546771E-02  0.1036584E+00
          1   -1    0    0  501    0  0.00000000000E+00  0.00000000000E+00  0.35901522204E+03  0.35901522204E+03  0.00000000000E+00 0. -1.
         -1   -1    0    0    0  501 -0.00000000000E+00 -0.00000000000E+00 -0.52217171911E+03  0.52217171911E+03  0.00000000000E+00 0.  1.
         23    2    1    2    0    0  0.71929110561E+02  0.39829119204E+03 -0.19177477811E+03  0.46498244762E+03  0.12498576107E+03 0.  0.
         23    2    1    2    0    0 -0.71929110561E+02 -0.39829119204E+03  0.28618281041E+02  0.41620449354E+03  0.92722725521E+02 0.  0.
          5    1    3    3  502    0  0.36905206782E+02  0.23621536250E+03 -0.17881972519E+03  0.29859383095E+03  0.47000000000E+01 0. -1.
         -5    1    3    3    0  502  0.35023903780E+02  0.16207582955E+03 -0.12955052917E+02  0.16638861666E+03  0.47000000000E+01 0. -1.
        -11    1    4    4    0    0 -0.25358667207E+02 -0.26215401665E+03 -0.20487268871E+02  0.26417327388E+03  0.00000000000E+00 0.  1.
         11    1    4    4    0    0 -0.46570443354E+02 -0.13613717539E+03  0.49105549913E+02  0.15203121966E+03  0.00000000000E+00 0. -1.
<mgrwt>
<rscale>  0 0.42148398E+03</rscale>
<asrwt>0</asrwt>
<pdfrwt beam="1">  1        1 0.55233111E-01 0.42359310E+03</pdfrwt>
<pdfrwt beam="2">  1       -1 0.80334111E-01 0.42359310E+03</pdfrwt>
<totfact> 0.11167243E+02</totfact>
</mgrwt>
</event>
<event>
 8    1  0.1154424E-005  0.1419199E+03  0.7546771E-02  0.1222270E+00
         -1   -1    0    0    0  501 -0.00000000000E+00  0.00000000000E+00  0.55171991616E+03  0.55171991616E+03  0.00000000000E+00 0.  1.
          1   -1    0    0  501    0  0.00000000000E+00 -0.00000000000E+00 -0.29618185376E+02  0.29618185376E+02  0.00000000000E+00 0. -1.
         23    2    1    2    0    0  0.58750030377E+02 -0.32622979674E+02  0.33168831317E+03  0.36077470975E+03  0.12500171690E+03 0.  0.
         23    2    1    2    0    0 -0.58750030377E+02  0.32622979674E+02  0.19041341761E+03  0.22056339179E+03  0.88741846484E+02 0.  0.
          5    1    3    3  502    0  0.48529402836E+02 -0.51935513434E+02  0.33082545845E+03  0.33840799998E+03  0.47000000000E+01 0. -1.
         -5    1    3    3    0  502  0.10220627541E+02  0.19312533760E+02  0.86285472616E+00  0.22366709768E+02  0.47000000000E+01 0. -1.
        -11    1    4    4    0    0 -0.49196181283E+02  0.62581330673E+02  0.12942268918E+03  0.15194380434E+03  0.00000000000E+00 0.  1.
         11    1    4    4    0    0 -0.95538490937E+01 -0.29958350999E+02  0.60990728431E+02  0.68619587448E+02  0.00000000000E+00 0. -1.
<mgrwt>
<rscale>  0 0.13355817E+03</rscale>
<asrwt>0</asrwt>
<pdfrwt beam="2">  1        1 0.45566443E-02 0.14191989E+03</pdfrwt>
<pdfrwt beam="1">  1       -1 0.84879980E-01 0.14191989E+03</pdfrwt>
<totfact> 0.26427073E+03</totfact>
</mgrwt>
</event>
<event>
 8    1  0.1154424E-005  0.1264652E+03  0.7546771E-02  0.1247382E+00
         -2   -1    0    0    0  501 -0.00000000000E+00  0.00000000000E+00  0.25582924344E+03  0.25582924344E+03  0.00000000000E+00 0. -1.
          2   -1    0    0  501    0  0.00000000000E+00 -0.00000000000E+00 -0.47590447874E+02  0.47590447874E+02  0.00000000000E+00 0.  1.
         23    2    1    2    0    0  0.15593123134E+02  0.11314193892E+02  0.12528277929E+03  0.17801469597E+03  0.12498920242E+03 0.  0.
         23    2    1    2    0    0 -0.15593123134E+02 -0.11314193892E+02  0.82956016275E+02  0.12540499535E+03  0.92051918768E+02 0.  0.
          5    1    3    3  502    0 -0.25929116350E+02 -0.34527364590E+02  0.63743854953E+01  0.43899667091E+02  0.47000000000E+01 0.  1.
         -5    1    3    3    0  502  0.41522239483E+02  0.45841558483E+02  0.11890839379E+03  0.13411502888E+03  0.47000000000E+01 0.  1.
        -11    1    4    4    0    0 -0.28657342220E+01  0.29584094952E+02 -0.24875114104E+01  0.29826478501E+02  0.00000000000E+00 0.  1.
         11    1    4    4    0    0 -0.12727388912E+02 -0.40898288844E+02  0.85443527685E+02  0.95578516844E+02  0.00000000000E+00 0. -1.
<mgrwt>
<rscale>  0 0.11743941E+03</rscale>
<asrwt>0</asrwt>
<pdfrwt beam="2">  1        2 0.73216075E-02 0.12646524E+03</pdfrwt>
<pdfrwt beam="1">  1       -2 0.39358344E-01 0.12646524E+03</pdfrwt>
<totfact> 0.55229675E+03</totfact>
</mgrwt>
</event>
<event>
 8    1  0.1154424E-005  0.1663014E+03  0.7546771E-02  0.1187717E+00
         -2   -1    0    0    0  501 -0.00000000000E+00  0.00000000000E+00  0.13766588168E+03  0.13766588168E+03  0.00000000000E+00 0. -1.
          2   -1    0    0  501    0  0.00000000000E+00 -0.00000000000E+00 -0.18051772567E+03  0.18051772567E+03  0.00000000000E+00 0.  1.
         23    2    1    2    0    0  0.73918511946E+02  0.81028287375E+02  0.30785195485E+00  0.16630169352E+03  0.12500651476E+03 0.  0.
         23    2    1    2    0    0 -0.73918511946E+02 -0.81028287375E+02 -0.43159695941E+02  0.15188191383E+03  0.95790535180E+02 0.  0.
          5    1    3    3  502    0  0.91046608557E+02  0.94490627253E+02  0.24326609490E+02  0.13353590340E+03  0.47000000000E+01 0. -1.
         -5    1    3    3    0  502 -0.17128096611E+02 -0.13462339877E+02 -0.24018757535E+02  0.32765790117E+02  0.47000000000E+01 0. -1.
        -11    1    4    4    0    0 -0.41932512838E+02 -0.40835235480E+01  0.20658380720E+02  0.46923123207E+02  0.00000000000E+00 0. -1.
         11    1    4    4    0    0 -0.31985999108E+02 -0.76944763827E+02 -0.63818076661E+02  0.10495879062E+03  0.00000000000E+00 0.  1.
<mgrwt>
<rscale>  0 0.16087096E+03</rscale>
<asrwt>0</asrwt>
<pdfrwt beam="2">  1        2 0.27771958E-01 0.16630141E+03</pdfrwt>
<pdfrwt beam="1">  1       -2 0.21179366E-01 0.16630141E+03</pdfrwt>
<totfact> 0.35377703E+03</totfact>
</mgrwt>
</event>
<event>
 8    1  0.1154424E-005  0.1370912E+03  0.7546771E-02  0.1229012E+00
         -2   -1    0    0    0  501 -0.00000000000E+00  0.00000000000E+00  0.22934635350E+03  0.22934635350E+03  0.00000000000E+00 0.  1.
          2   -1    0    0  501    0  0.00000000000E+00 -0.00000000000E+00 -0.67031401698E+02  0.67031401698E+02  0.00000000000E+00 0. -1.
         23    2    1    2    0    0 -0.55836806302E+02  0.61233265428E+01  0.11556761686E+03  0.17930387394E+03  0.12505503220E+03 0.  0.
         23    2    1    2    0    0  0.55836806302E+02 -0.61233265428E+01  0.46747334936E+02  0.11707388125E+03  0.91464398986E+02 0.  0.
          5    1    3    3  502    0 -0.50997188599E+01  0.28695181357E+02 -0.17999936305E+02  0.34576122868E+02  0.47000000000E+01 0. -1.
         -5    1    3    3    0  502 -0.50737087442E+02 -0.22571854814E+02  0.13356755317E+03  0.14472775108E+03  0.47000000000E+01 0. -1.
        -11    1    4    4    0    0  0.12324930238E+02  0.11501515715E+02  0.64663954141E+02  0.66825262695E+02  0.00000000000E+00 0.  1.
         11    1    4    4    0    0  0.43511876064E+02 -0.17624842258E+02 -0.17916619204E+02  0.50248618558E+02  0.00000000000E+00 0. -1.
<mgrwt>
<rscale>  0 0.12895656E+03</rscale>
<asrwt>0</asrwt>
<pdfrwt beam="2">  1        2 0.10312523E-01 0.13709123E+03</pdfrwt>
<pdfrwt beam="1">  1       -2 0.35284054E-01 0.13709123E+03</pdfrwt>
<totfact> 0.44492879E+03</totfact>
</mgrwt>
</event>
<event>
 8    1  0.1154424E-005  0.1552265E+03  0.7546771E-02  0.1201998E+00
         -1   -1    0    0    0  501 -0.00000000000E+00  0.00000000000E+00  0.44639406484E+02  0.44639406484E+02  0.00000000000E+00 0.  1.
          1   -1    0    0  501    0  0.00000000000E+00 -0.00000000000E+00 -0.45941317322E+03  0.45941317322E+03  0.00000000000E+00 0. -1.
         23    2    1    2    0    0  0.56458541526E+02  0.72688651881E+02 -0.21481271718E+03  0.26502787263E+03  0.12499625110E+03 0.  0.
         23    2    1    2    0    0 -0.56458541526E+02 -0.72688651881E+02 -0.19996104956E+03  0.23902470707E+03  0.93151394115E+02 0.  0.
          5    1    3    3  502    0 -0.29922904935E+02 -0.12504858458E+02 -0.59059175375E+02  0.67541305294E+02  0.47000000000E+01 0.  1.
         -5    1    3    3    0  502  0.86381446461E+02  0.85193510339E+02 -0.15575354180E+03  0.19748656734E+03  0.47000000000E+01 0.  1.
        -11    1    4    4    0    0 -0.81952581378E+02 -0.45901459904E+02 -0.14612276399E+03  0.17370961911E+03  0.00000000000E+00 0. -1.
         11    1    4    4    0    0  0.25494039852E+02 -0.26787191977E+02 -0.53838285573E+02  0.65315087961E+02  0.00000000000E+00 0.  1.
<mgrwt>
<rscale>  0 0.14876554E+03</rscale>
<asrwt>0</asrwt>
<pdfrwt beam="2">  1        1 0.70678949E-01 0.15522651E+03</pdfrwt>
<pdfrwt beam="1">  1       -1 0.68676011E-02 0.15522651E+03</pdfrwt>
<totfact> 0.53285774E+03</totfact>
</mgrwt>
</event>
<event>
 8    1  0.1154424E-005  0.1501095E+03  0.7546771E-02  0.1209446E+00
          2   -1    0    0  501    0  0.00000000000E+00  0.00000000000E+00  0.65346362262E+03  0.65346362262E+03  0.00000000000E+00 0. -1.
         -2   -1    0    0    0  501 -0.00000000000E+00 -0.00000000000E+00 -0.29850772200E+02  0.29850772200E+02  0.00000000000E+00 0.  1.
         23    2    1    2    0    0  0.83099410349E+02  0.19465030260E+00  0.27179140565E+03  0.31048901777E+03  0.12500924799E+03 0.  0.
         23    2    1    2    0    0 -0.83099410349E+02 -0.19465030260E+00  0.35182144477E+03  0.37282537705E+03  0.91185979637E+02 0.  0.
          5    1    3    3  502    0 -0.17822606172E+02 -0.34553778269E+02  0.44110425085E+02  0.58986680570E+02  0.47000000000E+01 0. -1.
         -5    1    3    3    0  502  0.10092201652E+03  0.34748428571E+02  0.22768098057E+03  0.25150233720E+03  0.47000000000E+01 0. -1.
        -11    1    4    4    0    0 -0.24758678348E+02  0.71934073828E+00  0.11097448382E+02  0.27141535794E+02  0.00000000000E+00 0.  1.
         11    1    4    4    0    0 -0.58340732001E+02 -0.91399104088E+00  0.34072399639E+03  0.34568384126E+03  0.00000000000E+00 0. -1.
<mgrwt>
<rscale>  0 0.14292543E+03</rscale>
<asrwt>0</asrwt>
<pdfrwt beam="1">  1        2 0.10053285E+00 0.15010950E+03</pdfrwt>
<pdfrwt beam="2">  1       -2 0.45924270E-02 0.15010950E+03</pdfrwt>
<totfact> 0.97863201E+03</totfact>
</mgrwt>
</event>
<event>
 8    1  0.1154424E-005  0.1284616E+03  0.7546771E-02  0.1244992E+00
         -1   -1    0    0    0  501 -0.00000000000E+00  0.00000000000E+00  0.32043044739E+02  0.32043044739E+02  0.00000000000E+00 0.  1.
          1   -1    0    0  501    0  0.00000000000E+00 -0.00000000000E+00 -0.43562289113E+03  0.43562289113E+03  0.00000000000E+00 0. -1.
         23    2    1    2    0    0 -0.27987028716E+02  0.97440002510E+01 -0.15180314327E+03  0.19886323377E+03  0.12499668844E+03 0.  0.
         23    2    1    2    0    0  0.27987028716E+02 -0.97440002510E+01 -0.25177670312E+03  0.26880270210E+03  0.89359751038E+02 0.  0.
          5    1    3    3  502    0  0.43648517547E+02 -0.22565163191E+02 -0.66003538364E+02  0.82419274144E+02  0.47000000000E+01 0.  1.
         -5    1    3    3    0  502 -0.71635546263E+02  0.32309163442E+02 -0.85799604906E+02  0.11644395962E+03  0.47000000000E+01 0.  1.
        -11    1    4    4    0    0  0.34664454921E+01 -0.44351883604E+02 -0.76758968565E+02  0.88718910491E+02  0.00000000000E+00 0.  1.
         11    1    4    4    0    0  0.24520583224E+02  0.34607883353E+02 -0.17501773456E+03  0.18008379161E+03  0.00000000000E+00 0. -1.
<mgrwt>
<rscale>  0 0.11885844E+03</rscale>
<asrwt>0</asrwt>
<pdfrwt beam="2">  1        1 0.67018907E-01 0.12846163E+03</pdfrwt>
<pdfrwt beam="1">  1       -1 0.49296991E-02 0.12846163E+03</pdfrwt>
<totfact> 0.92386849E+03</totfact>
</mgrwt>
</event>
<event>
 8    1  0.1154424E-005  0.2451529E+03  0.7546771E-02  0.1119029E+00
          2   -1    0    0  501    0  0.00000000000E+00  0.00000000000E+00  0.69710861485E+03  0.69710861485E+03  0.00000000000E+00 0. -1.
         -2   -1    0    0    0  501 -0.00000000000E+00 -0.00000000000E+00 -0.82007287199E+02  0.82007287199E+02  0.00000000000E+00 0.  1.
         23    2    1    2    0    0 -0.19694743658E+03  0.75421808056E+02  0.36463497928E+03  0.43938433553E+03  0.12499273694E+03 0.  0.
         23    2    1    2    0    0  0.19694743658E+03 -0.75421808056E+02  0.25046634837E+03  0.33973156652E+03  0.90594722353E+02 0.  0.
          5    1    3    3  502    0  0.37749090562E+01 -0.21407690823E+02  0.33945475156E+02  0.40582316941E+02  0.47000000000E+01 0.  1.
         -5    1    3    3    0  502 -0.20072234564E+03  0.96829498879E+02  0.33068950413E+03  0.39880201859E+03  0.47000000000E+01 0.  1.
        -11    1    4    4    0    0  0.10559142539E+03 -0.27605010852E+02  0.63641386371E+02  0.12634006411E+03  0.00000000000E+00 0.  1.
         11    1    4    4    0    0  0.91356011194E+02 -0.47816797204E+02  0.18682496200E+03  0.21339150241E+03  0.00000000000E+00 0. -1.
<mgrwt>
<rscale>  0 0.24115025E+03</rscale>
<asrwt>0</asrwt>
<pdfrwt beam="1">  1        2 0.10724748E+00 0.24515286E+03</pdfrwt>
<pdfrwt beam="2">  1       -2 0.12616506E-01 0.24515286E+03</pdfrwt>
<totfact> 0.19159087E+03</totfact>
</mgrwt>
</event>
<event>
 8    1  0.1154424E-005  0.2831315E+03  0.7546771E-02  0.1095797E+00
         -1   -1    0    0    0  501 -0.00000000000E+00  0.00000000000E+00  0.37689684699E+02  0.37689684699E+02  0.00000000000E+00 0.  1.
          1   -1    0    0  501    0  0.00000000000E+00 -0.00000000000E+00 -0.20436349772E+04  0.20436349772E+04  0.00000000000E+00 0. -1.
         23    2    1    2    0    0 -0.23712948660E+03  0.91132946533E+02 -0.94081248698E+03  0.98249253998E+03  0.12501139190E+03 0.  0.
         23    2    1    2    0    0  0.23712948660E+03 -0.91132946533E+02 -0.10651328055E+04  0.10988321219E+04  0.91588926222E+02 0.  0.
          5    1    3    3  502    0 -0.35632803219E+02  0.65695379743E+02 -0.34385873925E+03  0.35191831744E+03  0.47000000000E+01 0.  1.
         -5    1    3    3    0  502 -0.20149668338E+03  0.25437566790E+02 -0.59695374772E+03  0.63057422254E+03  0.47000000000E+01 0.  1.
        -11    1    4    4    0    0  0.98676397701E+02 -0.34313137188E+02 -0.26550389459E+03  0.28531866551E+03  0.00000000000E+00 0.  1.
         11    1    4    4    0    0  0.13845308890E+03 -0.56819809345E+02 -0.79962891095E+03  0.81351345643E+03  0.00000000000E+00 0. -1.
<mgrwt>
<rscale>  0 0.27980152E+03</rscale>
<asrwt>0</asrwt>
<pdfrwt beam="2">  1        1 0.31440549E+00 0.28313152E+03</pdfrwt>
<pdfrwt beam="1">  1       -1 0.57984111E-02 0.28313152E+03</pdfrwt>
<totfact> 0.44384528E+02</totfact>
</mgrwt>
</event>
<event>
 8    1  0.1154424E-005  0.1541211E+03  0.7546771E-02  0.1204043E+00
         -1   -1    0    0    0  501 -0.00000000000E+00  0.00000000000E+00  0.77108670021E+02  0.77108670021E+02  0.00000000000E+00 0.  1.
          1   -1    0    0  501    0  0.00000000000E+00 -0.00000000000E+00 -0.26815464600E+03  0.26815464600E+03  0.00000000000E+00 0. -1.
         23    2    1    2    0    0  0.19845331076E+02  0.87952333585E+02 -0.70686313217E+02  0.16955790212E+03  0.12499550851E+03 0.  0.
         23    2    1    2    0    0 -0.19845331076E+02 -0.87952333585E+02 -0.12035966276E+03  0.17570541390E+03  0.90865251360E+02 0.  0.
          5    1    3    3  502    0 -0.19072176971E+02 -0.25457725633E+02 -0.26567294472E+02  0.41710368787E+02  0.47000000000E+01 0. -1.
         -5    1    3    3    0  502  0.38917508047E+02  0.11341005922E+03 -0.44119018745E+02  0.12784753333E+03  0.47000000000E+01 0. -1.
        -11    1    4    4    0    0  0.24761776231E+02 -0.66615224979E+02 -0.40561700470E+02  0.81829000398E+02  0.00000000000E+00 0.  1.
         11    1    4    4    0    0 -0.44607107306E+02 -0.21337108606E+02 -0.79797962289E+02  0.93876413499E+02  0.00000000000E+00 0. -1.
<mgrwt>
<rscale>  0 0.14713148E+03</rscale>
<asrwt>0</asrwt>
<pdfrwt beam="2">  1        1 0.41254560E-01 0.15412114E+03</pdfrwt>
<pdfrwt beam="1">  1       -1 0.11862872E-01 0.15412114E+03</pdfrwt>
<totfact> 0.45565468E+03</totfact>
</mgrwt>
</event>
<event>
 8    1  0.1154424E-005  0.1467283E+03  0.7546771E-02  0.1214028E+00
          2   -1    0    0  501    0  0.00000000000E+00  0.00000000000E+00  0.17587071983E+03  0.17587071983E+03  0.00000000000E+00 0. -1.
         -2   -1    0    0    0  501 -0.00000000000E+00 -0.00000000000E+00 -0.10184159844E+03  0.10184159844E+03  0.00000000000E+00 0.  1.
         23    2    1    2    0    0  0.27376503062E+02  0.71796178278E+02  0.28116464117E+02  0.14939792857E+03  0.12500016548E+03 0.  0.
         23    2    1    2    0    0 -0.27376503062E+02 -0.71796178278E+02  0.45912657277E+02  0.12831438971E+03  0.91937187104E+02 0.  0.
          5    1    3    3  502    0  0.53583106915E+02  0.89862057506E+02 -0.28121182293E+01  0.10476801389E+03  0.47000000000E+01 0. -1.
         -5    1    3    3    0  502 -0.26206603853E+02 -0.18065879228E+02  0.30928582346E+02  0.44629914673E+02  0.47000000000E+01 0. -1.
        -11    1    4    4    0    0 -0.57441405260E+02 -0.35673006471E+02  0.83113902769E+01  0.68126042284E+02  0.00000000000E+00 0.  1.
         11    1    4    4    0    0  0.30064902198E+02 -0.36123171807E+02  0.37601267000E+02  0.60188347424E+02  0.00000000000E+00 0. -1.
<mgrwt>
<rscale>  0 0.13948162E+03</rscale>
<asrwt>0</asrwt>
<pdfrwt beam="1">  1        2 0.27057034E-01 0.14672834E+03</pdfrwt>
<pdfrwt beam="2">  1       -2 0.15667938E-01 0.14672834E+03</pdfrwt>
<totfact> 0.59929986E+03</totfact>
</mgrwt>
</event>
<event>
 8    1  0.1154424E-005  0.1374351E+03  0.7546771E-02  0.1228920E+00
          2   -1    0    0  501    0  0.00000000000E+00  0.00000000000E+00  0.12917058807E+03  0.12917058807E+03  0.00000000000E+00 0. -1.
         -2   -1    0    0    0  501 -0.00000000000E+00 -0.00000000000E+00 -0.12810411689E+03  0.12810411689E+03  0.00000000000E+00 0.  1.
         23    2    1    2    0    0  0.44477963469E+02 -0.35851757432E+02 -0.39643418173E+02  0.14303845324E+03  0.12499904302E+03 0.  0.
         23    2    1    2    0    0 -0.44477963469E+02  0.35851757432E+02  0.40709889350E+02  0.11423625172E+03  0.90160902672E+02 0.  0.
          5    1    3    3  502    0  0.63245976556E+02  0.27646859981E+02 -0.31975497828E+02  0.76216303234E+02  0.47000000000E+01 0.  1.
         -5    1    3    3    0  502 -0.18768013087E+02 -0.63498617413E+02 -0.76679203454E+01  0.66822150003E+02  0.47000000000E+01 0.  1.
        -11    1    4    4    0    0 -0.15250080563E+02 -0.13318295518E+02 -0.21631559029E+02  0.29628808594E+02  0.00000000000E+00 0.  1.
         11    1    4    4    0    0 -0.29227882906E+02  0.49170052949E+02  0.62341448379E+02  0.84607443125E+02  0.00000000000E+00 0. -1.
<mgrwt>
<rscale>  0 0.12901825E+03</rscale>
<asrwt>0</asrwt>
<pdfrwt beam="1">  1        2 0.19872398E-01 0.13743507E+03</pdfrwt>
<pdfrwt beam="2">  1       -2 0.19708326E-01 0.13743507E+03</pdfrwt>
<totfact> 0.57418124E+03</totfact>
</mgrwt>
</event>
<event>
 8    1  0.1154424E-005  0.1671137E+03  0.7546771E-02  0.1190479E+00
          1   -1    0    0  501    0  0.00000000000E+00  0.00000000000E+00  0.11257838047E+04  0.11257838047E+04  0.00000000000E+00 0. -1.
         -1   -1    0    0    0  501 -0.00000000000E+00 -0.00000000000E+00 -0.22064906000E+02  0.22064906000E+02  0.00000000000E+00 0.  1.
         23    2    1    2    0    0 -0.56113857719E+02 -0.95673048782E+02  0.76865515407E+03  0.78661155270E+03  0.12499956670E+03 0.  0.
         23    2    1    2    0    0  0.56113857719E+02  0.95673048782E+02  0.33506374467E+03  0.36123715804E+03  0.76957612125E+02 0.  0.
          5    1    3    3  502    0 -0.64744074804E+02 -0.70265567831E+02  0.25691411588E+03  0.27414594322E+03  0.47000000000E+01 0.  1.
         -5    1    3    3    0  502  0.86302170854E+01 -0.25407480951E+02  0.51174103820E+03  0.51246560949E+03  0.47000000000E+01 0.  1.
        -11    1    4    4    0    0  0.26193539216E+02  0.87916873742E+02  0.30349404154E+03  0.31705537598E+03  0.00000000000E+00 0. -1.
         11    1    4    4    0    0  0.29920318502E+02  0.77561750398E+01  0.31569703135E+02  0.44181782066E+02  0.00000000000E+00 0.  1.
<mgrwt>
<rscale>  0 0.15843138E+03</rscale>
<asrwt>0</asrwt>
<pdfrwt beam="1">  1        1 0.17319746E+00 0.16711370E+03</pdfrwt>
<pdfrwt beam="2">  1       -1 0.33946018E-02 0.16711370E+03</pdfrwt>
<totfact> 0.40111062E+03</totfact>
</mgrwt>
</event>
<event>
 7    1  0.1154424E-005  0.1746557E+03  0.7546771E-02  0.1177263E+00
          2   -1    0    0  501    0  0.00000000000E+00  0.00000000000E+00  0.17393043592E+03  0.17393043592E+03  0.00000000000E+00 0. -1.
         -2   -1    0    0    0  501 -0.00000000000E+00 -0.00000000000E+00 -0.19299524186E+03  0.19299524186E+03  0.00000000000E+00 0.  1.
         23    2    1    2    0    0 -0.48301264393E+01 -0.10476668748E+03 -0.85094084688E+02  0.18020531564E+03  0.11930449953E+03 0.  0.
          5    1    3    3  502    0 -0.52428376051E+02 -0.50910355954E+02 -0.63780584971E+01  0.73507609054E+02  0.47000000000E+01 0. -1.
         -5    1    3    3    0  502  0.47598249611E+02 -0.53856331527E+02 -0.78716026191E+02  0.10669770659E+03  0.47000000000E+01 0.  1.
        -11    1    1    2    0    0  0.53654192964E+02 -0.43824546641E+01  0.10341631674E+02  0.54817220627E+02  0.00000000000E+00 0.  1.
         11    1    1    2    0    0 -0.48824066525E+02  0.10914914214E+03  0.55687647076E+02  0.13190314151E+03  0.00000000000E+00 0. -1.
<mgrwt>
<rscale>  0 0.17056235E+03</rscale>
<asrwt>0</asrwt>
<pdfrwt beam="1">  1        2 0.26758529E-01 0.17465574E+03</pdfrwt>
<pdfrwt beam="2">  1       -2 0.29691575E-01 0.17465574E+03</pdfrwt>
<totfact> 0.20400859E+03</totfact>
</mgrwt>
</event>
<event>
 8    1  0.1154424E-005  0.1625793E+03  0.7546771E-02  0.1194104E+00
         -1   -1    0    0    0  501 -0.00000000000E+00  0.00000000000E+00  0.78327860507E+02  0.78327860507E+02  0.00000000000E+00 0.  1.
          1   -1    0    0  501    0  0.00000000000E+00 -0.00000000000E+00 -0.32865402385E+03  0.32865402385E+03  0.00000000000E+00 0. -1.
         23    2    1    2    0    0 -0.21268382643E+02 -0.10175089364E+03 -0.59730919050E+02  0.17320458305E+03  0.12500582564E+03 0.  0.
         23    2    1    2    0    0  0.21268382643E+02  0.10175089364E+03 -0.19059524429E+03  0.23377730130E+03  0.86716151905E+02 0.  0.
          5    1    3    3  502    0  0.10539914536E+01 -0.62472890083E+02  0.32360036834E+02  0.70521166164E+02  0.47000000000E+01 0. -1.
         -5    1    3    3    0  502 -0.22322374097E+02 -0.39278003554E+02 -0.92090955884E+02  0.10268341689E+03  0.47000000000E+01 0. -1.
        -11    1    4    4    0    0  0.55137760307E+02  0.66372142100E+02 -0.11708537669E+03  0.14544558877E+03  0.00000000000E+00 0.  1.
         11    1    4    4    0    0 -0.33869377664E+02  0.35378751537E+02 -0.73509867605E+02  0.88331712533E+02  0.00000000000E+00 0. -1.
<mgrwt>
<rscale>  0 0.15530318E+03</rscale>
<asrwt>0</asrwt>
<pdfrwt beam="2">  1        1 0.50562159E-01 0.16257935E+03</pdfrwt>
<pdfrwt beam="1">  1       -1 0.12050440E-01 0.16257935E+03</pdfrwt>
<totfact> 0.34618162E+03</totfact>
</mgrwt>
</event>
<event>
 8    1  0.1154424E-005  0.1604782E+03  0.7546771E-02  0.1196002E+00
         -2   -1    0    0    0  501 -0.00000000000E+00  0.00000000000E+00  0.20290171960E+03  0.20290171960E+03  0.00000000000E+00 0. -1.
          2   -1    0    0  501    0  0.00000000000E+00 -0.00000000000E+00 -0.13639229065E+03  0.13639229065E+03  0.00000000000E+00 0.  1.
         23    2    1    2    0    0 -0.56321234572E+02  0.83401499793E+02  0.11324136726E+03  0.19640991934E+03  0.12500143010E+03 0.  0.
         23    2    1    2    0    0  0.56321234572E+02 -0.83401499793E+02 -0.46731938303E+02  0.14288409091E+03  0.90022762379E+02 0.  0.
          5    1    3    3  502    0  0.38581905647E+02  0.38163274199E+02  0.29688265007E+02  0.62036134793E+02  0.47000000000E+01 0.  1.
         -5    1    3    3    0  502 -0.94903140219E+02  0.45238225594E+02  0.83553102251E+02  0.13437378455E+03  0.47000000000E+01 0.  1.
        -11    1    4    4    0    0 -0.14661102638E+02 -0.39904947394E+02 -0.41594397458E+02  0.59476437830E+02  0.00000000000E+00 0.  1.
         11    1    4    4    0    0  0.70982337210E+02 -0.43496552399E+02 -0.51375408452E+01  0.83407653081E+02  0.00000000000E+00 0. -1.
<mgrwt>
<rscale>  0 0.15369731E+03</rscale>
<asrwt>0</asrwt>
<pdfrwt beam="2">  1        2 0.20983429E-01 0.16047819E+03</pdfrwt>
<pdfrwt beam="1">  1       -2 0.31215649E-01 0.16047819E+03</pdfrwt>
<totfact> 0.24360464E+03</totfact>
</mgrwt>
</event>
<event>
 8    1  0.1154424E-005  0.1274260E+03  0.7546771E-02  0.1244827E+00
         -1   -1    0    0    0  501 -0.00000000000E+00  0.00000000000E+00  0.12714524801E+03  0.12714524801E+03  0.00000000000E+00 0.  1.
          1   -1    0    0  501    0  0.00000000000E+00 -0.00000000000E+00 -0.10393091962E+03  0.10393091962E+03  0.00000000000E+00 0. -1.
         23    2    1    2    0    0 -0.24372480788E+02  0.41508823689E+01  0.38453639163E+02  0.13310170261E+03  0.12500453283E+03 0.  0.
         23    2    1    2    0    0  0.24372480788E+02 -0.41508823689E+01 -0.15239310772E+02  0.97974465014E+02  0.93570890547E+02 0.  0.
          5    1    3    3  502    0  0.34667805885E+02 -0.28742122955E+02  0.46470309616E+02  0.64881014732E+02  0.47000000000E+01 0. -1.
         -5    1    3    3    0  502 -0.59040286673E+02  0.32893005324E+02 -0.80166704533E+01  0.68220687880E+02  0.47000000000E+01 0. -1.
        -11    1    4    4    0    0  0.25679866893E+02  0.13716576481E+02 -0.50575366819E+02  0.58356385793E+02  0.00000000000E+00 0. -1.
         11    1    4    4    0    0 -0.13073861047E+01 -0.17867458850E+02  0.35336056047E+02  0.39618079220E+02  0.00000000000E+00 0.  1.
<mgrwt>
<rscale>  0 0.11895759E+03</rscale>
<asrwt>0</asrwt>
<pdfrwt beam="2">  1        1 0.15989372E-01 0.12742598E+03</pdfrwt>
<pdfrwt beam="1">  1       -1 0.19560807E-01 0.12742598E+03</pdfrwt>
<totfact> 0.67574072E+03</totfact>
</mgrwt>
</event>
<event>
 8    1  0.1154424E-005  0.2006060E+03  0.7546771E-02  0.1153759E+00
         -3   -1    0    0    0  501 -0.00000000000E+00  0.00000000000E+00  0.96188922125E+02  0.96188922125E+02  0.00000000000E+00 0.  1.
          3   -1    0    0  501    0  0.00000000000E+00 -0.00000000000E+00 -0.42015929805E+03  0.42015929805E+03  0.00000000000E+00 0. -1.
         23    2    1    2    0    0  0.89317966379E+02 -0.12882504432E+03 -0.87096448385E+02  0.21869742365E+03  0.12517659777E+03 0.  0.
         23    2    1    2    0    0 -0.89317966379E+02  0.12882504432E+03 -0.23687392754E+03  0.29765079652E+03  0.88955876484E+02 0.  0.
          5    1    3    3  502    0  0.90936535452E+02 -0.14470115479E+03 -0.99620343345E+02  0.19787415315E+03  0.47000000000E+01 0.  1.
         -5    1    3    3    0  502 -0.16185690728E+01  0.15876110468E+02  0.12523894960E+02  0.20823270502E+02  0.47000000000E+01 0.  1.
        -11    1    4    4    0    0 -0.44028972534E+02  0.93159661976E+02 -0.21027399721E+03  0.23416324849E+03  0.00000000000E+00 0. -1.
         11    1    4    4    0    0 -0.45288993846E+02  0.35665382342E+02 -0.26599930325E+02  0.63487548027E+02  0.00000000000E+00 0.  1.
<mgrwt>
<rscale>  0 0.19530853E+03</rscale>
<asrwt>0</asrwt>
<pdfrwt beam="2">  1        3 0.64639893E-01 0.20060601E+03</pdfrwt>
<pdfrwt beam="1">  1       -3 0.14798295E-01 0.20060601E+03</pdfrwt>
<totfact> 0.21884670E+02</totfact>
</mgrwt>
</event>
<event>
 8    1  0.1154424E-005  0.1454745E+03  0.7546771E-02  0.1216181E+00
         -1   -1    0    0    0  501 -0.00000000000E+00  0.00000000000E+00  0.48855236055E+02  0.48855236055E+02  0.00000000000E+00 0.  1.
          1   -1    0    0  501    0  0.00000000000E+00 -0.00000000000E+00 -0.38242255200E+03  0.38242255200E+03  0.00000000000E+00 0. -1.
         23    2    1    2    0    0  0.30460309230E+02 -0.67897387660E+02 -0.12452569547E+03  0.19149274500E+03  0.12499974747E+03 0.  0.
         23    2    1    2    0    0 -0.30460309230E+02  0.67897387660E+02 -0.20904162047E+03  0.23978504305E+03  0.90887744453E+02 0.  0.
          5    1    3    3  502    0 -0.12090066074E+02 -0.82762333707E+02 -0.11944295992E+03  0.14589202944E+03  0.47000000000E+01 0. -1.
         -5    1    3    3    0  502  0.42550375304E+02  0.14864946047E+02 -0.50827355504E+01  0.45600715566E+02  0.47000000000E+01 0. -1.
        -11    1    4    4    0    0 -0.53961187469E+02  0.10716144766E+02 -0.86119503093E+02  0.10219204629E+03  0.00000000000E+00 0.  1.
         11    1    4    4    0    0  0.23500878239E+02  0.57181242895E+02 -0.12292211738E+03  0.13759299676E+03  0.00000000000E+00 0. -1.
<mgrwt>
<rscale>  0 0.13790149E+03</rscale>
<asrwt>0</asrwt>
<pdfrwt beam="2">  1        1 0.58834240E-01 0.14547447E+03</pdfrwt>
<pdfrwt beam="1">  1       -1 0.75161900E-02 0.14547447E+03</pdfrwt>
<totfact> 0.58541763E+03</totfact>
</mgrwt>
</event>
<event>
 8    1  0.1154424E-005  0.1406237E+03  0.7546771E-02  0.1223436E+00
         -2   -1    0    0    0  501 -0.00000000000E+00  0.00000000000E+00  0.17950729851E+03  0.17950729851E+03  0.00000000000E+00 0.  1.
          2   -1    0    0  501    0  0.00000000000E+00 -0.00000000000E+00 -0.94403874098E+02  0.94403874098E+02  0.00000000000E+00 0. -1.
         23    2    1    2    0    0 -0.64820830776E+01  0.64094301786E+02  0.80751191022E+02  0.16215973438E+03  0.12499971071E+03 0.  0.
         23    2    1    2    0    0  0.64820830776E+01 -0.64094301786E+02  0.43522333902E+01  0.11175143823E+03  0.91210443970E+02 0.  0.
          5    1    3    3  502    0  0.32926709875E+02 -0.25210981340E+02  0.33970262405E+02  0.53812921600E+02  0.47000000000E+01 0. -1.
         -5    1    3    3    0  502 -0.39408792953E+02  0.89305283126E+02  0.46780928617E+02  0.10834681278E+03  0.47000000000E+01 0. -1.
        -11    1    4    4    0    0 -0.12997027093E+02 -0.82716093679E+02 -0.31113348982E+01  0.83788753849E+02  0.00000000000E+00 0.  1.
         11    1    4    4    0    0  0.19479110171E+02  0.18621791893E+02  0.74635682884E+01  0.27962684384E+02  0.00000000000E+00 0. -1.
<mgrwt>
<rscale>  0 0.13274702E+03</rscale>
<asrwt>0</asrwt>
<pdfrwt beam="2">  1        2 0.14523673E-01 0.14062370E+03</pdfrwt>
<pdfrwt beam="1">  1       -2 0.27616507E-01 0.14062370E+03</pdfrwt>
<totfact> 0.46059411E+03</totfact>
</mgrwt>
</event>
<event>
 8    1  0.1154424E-005  0.1276695E+03  0.7546771E-02  0.1242105E+00
          2   -1    0    0  501    0  0.00000000000E+00  0.00000000000E+00  0.31992589081E+03  0.31992589081E+03  0.00000000000E+00 0. -1.
         -2   -1    0    0    0  501 -0.00000000000E+00 -0.00000000000E+00 -0.41123643314E+02  0.41123643314E+02  0.00000000000E+00 0.  1.
         23    2    1    2    0    0  0.25945577400E+02 -0.15461419462E+01  0.15085815768E+03  0.19763016062E+03  0.12499573235E+03 0.  0.
         23    2    1    2    0    0 -0.25945577400E+02  0.15461419462E+01  0.12794408981E+03  0.16341937351E+03  0.98288544485E+02 0.  0.
          5    1    3    3  502    0  0.16849004825E+02 -0.52583093879E+02  0.23778019255E+02  0.60302196686E+02  0.47000000000E+01 0. -1.
         -5    1    3    3    0  502  0.90965725752E+01  0.51036951933E+02  0.12708013843E+03  0.13732796393E+03  0.47000000000E+01 0. -1.
        -11    1    4    4    0    0 -0.35319490025E+02  0.41122015838E+02  0.42825689169E+02  0.69083472807E+02  0.00000000000E+00 0.  1.
         11    1    4    4    0    0  0.93739126253E+01 -0.39575873892E+02  0.85118400646E+02  0.94335900699E+02  0.00000000000E+00 0. -1.
<mgrwt>
<rscale>  0 0.12060365E+03</rscale>
<asrwt>0</asrwt>
<pdfrwt beam="1">  1        2 0.49219366E-01 0.12766948E+03</pdfrwt>
<pdfrwt beam="2">  1       -2 0.63267146E-02 0.12766948E+03</pdfrwt>
<totfact> 0.13031584E+04</totfact>
</mgrwt>
</event>
<event>
 8    1  0.1154424E-005  0.1370876E+03  0.7546771E-02  0.1227896E+00
          1   -1    0    0  501    0  0.00000000000E+00  0.00000000000E+00  0.29960123382E+03  0.29960123382E+03  0.00000000000E+00 0. -1.
         -1   -1    0    0    0  501 -0.00000000000E+00 -0.00000000000E+00 -0.58814148858E+02  0.58814148858E+02  0.00000000000E+00 0.  1.
         23    2    1    2    0    0 -0.22067767517E+02  0.51781660337E+02  0.66425320238E+02  0.15233295859E+03  0.12499872156E+03 0.  0.
         23    2    1    2    0    0  0.22067767517E+02 -0.51781660337E+02  0.17436176473E+03  0.20608242409E+03  0.94337764504E+02 0.  0.
          5    1    3    3  502    0 -0.20510748315E+01 -0.93969638796E+01  0.84605433786E+02  0.85280005067E+02  0.47000000000E+01 0. -1.
         -5    1    3    3    0  502 -0.20016692685E+02  0.61178624217E+02 -0.18180113547E+02  0.67052953519E+02  0.47000000000E+01 0. -1.
        -11    1    4    4    0    0 -0.14824980391E+02  0.35257867529E+01 -0.39817434210E+01  0.15750095127E+02  0.00000000000E+00 0.  1.
         11    1    4    4    0    0  0.36892747908E+02 -0.55307447090E+02  0.17834350815E+03  0.19033232897E+03  0.00000000000E+00 0. -1.
<mgrwt>
<rscale>  0 0.12970381E+03</rscale>
<asrwt>0</asrwt>
<pdfrwt beam="1">  1        1 0.46092497E-01 0.13708759E+03</pdfrwt>
<pdfrwt beam="2">  1       -1 0.90483308E-02 0.13708759E+03</pdfrwt>
<totfact> 0.59740110E+03</totfact>
</mgrwt>
</event>
<event>
 7    1  0.1154424E-005  0.1651044E+03  0.7546771E-02  0.1207232E+00
          2   -1    0    0  501    0  0.00000000000E+00  0.00000000000E+00  0.54848666523E+03  0.54848666523E+03  0.00000000000E+00 0. -1.
         -2   -1    0    0    0  501 -0.00000000000E+00 -0.00000000000E+00 -0.33342382310E+02  0.33342382310E+02  0.00000000000E+00 0.  1.
         23    2    1    2    0    0 -0.12446484854E+02 -0.32161564279E+02  0.26344590861E+03  0.28081153570E+03  0.90896042893E+02 0.  0.
          5    1    1    2  502    0 -0.45503147464E+02  0.34375070661E+02  0.23297173553E+03  0.23989602220E+03  0.47000000000E+01 0. -1.
         -5    1    1    2    0  502  0.57949632318E+02 -0.22135063824E+01  0.18726638778E+02  0.61121489643E+02  0.47000000000E+01 0.  1.
        -11    1    3    3    0    0  0.95111932163E+01  0.69077748882E+01 -0.17242166020E+01  0.11880785883E+02  0.00000000000E+00 0. -1.
         11    1    3    3    0    0 -0.21957678071E+02 -0.39069339167E+02  0.26517012521E+03  0.26893074981E+03  0.00000000000E+00 0.  1.
<mgrwt>
<rscale>  0 0.14462917E+03</rscale>
<asrwt>0</asrwt>
<pdfrwt beam="1">  1        2 0.84382557E-01 0.16510442E+03</pdfrwt>
<pdfrwt beam="2">  1       -2 0.51295977E-02 0.16510442E+03</pdfrwt>
<totfact> 0.10185252E+04</totfact>
</mgrwt>
</event>
<event>
 8    1  0.1154424E-005  0.1341224E+03  0.7546771E-02  0.1230293E+00
         -1   -1    0    0    0  501 -0.00000000000E+00  0.00000000000E+00  0.35845654584E+03  0.35845654584E+03  0.00000000000E+00 0.  1.
          1   -1    0    0  501    0  0.00000000000E+00 -0.00000000000E+00 -0.49684302717E+02  0.49684302717E+02  0.00000000000E+00 0. -1.
         23    2    1    2    0    0 -0.18709752161E+02  0.44889538017E+02  0.24570285916E+03  0.27992625976E+03  0.12499476171E+03 0.  0.
         23    2    1    2    0    0  0.18709752161E+02 -0.44889538017E+02  0.63069383963E+02  0.12821458880E+03  0.10047939161E+03 0.  0.
          5    1    3    3  502    0  0.53458384172E+02  0.24191364132E+02  0.10480896305E+03  0.12020827622E+03  0.47000000000E+01 0. -1.
         -5    1    3    3    0  502 -0.72168136333E+02  0.20698173885E+02  0.14089389611E+03  0.15971798354E+03  0.47000000000E+01 0. -1.
        -11    1    4    4    0    0  0.13662276015E+02  0.27720028358E+02  0.42557618820E+02  0.52594759033E+02  0.00000000000E+00 0.  1.
         11    1    4    4    0    0  0.50474761466E+01 -0.72609566375E+02  0.20511765143E+02  0.75619829766E+02  0.00000000000E+00 0. -1.
<mgrwt>
<rscale>  0 0.12810648E+03</rscale>
<asrwt>0</asrwt>
<pdfrwt beam="2">  1        1 0.76437391E-02 0.13412239E+03</pdfrwt>
<pdfrwt beam="1">  1       -1 0.55147159E-01 0.13412239E+03</pdfrwt>
<totfact> 0.30454939E+03</totfact>
</mgrwt>
</event>
<event>
 8    1  0.1154424E-005  0.1271931E+03  0.7546771E-02  0.1246617E+00
         -2   -1    0    0    0  501 -0.00000000000E+00  0.00000000000E+00  0.16302569913E+03  0.16302569913E+03  0.00000000000E+00 0.  1.
          2   -1    0    0  501    0  0.00000000000E+00 -0.00000000000E+00 -0.77614676679E+02  0.77614676679E+02  0.00000000000E+00 0. -1.
         23    2    1    2    0    0  0.21537996908E+01 -0.23399543840E+02  0.71001648288E+02  0.14566852234E+03  0.12500362729E+03 0.  0.
         23    2    1    2    0    0 -0.21537996908E+01  0.23399543840E+02  0.14409374167E+02  0.94971853476E+02  0.90883691516E+02 0.  0.
          5    1    3    3  502    0  0.32423256039E+02 -0.30024438741E+02 -0.20506564179E+02  0.48942247888E+02  0.47000000000E+01 0. -1.
         -5    1    3    3    0  502 -0.30269456348E+02  0.66248949008E+01  0.91508212467E+02  0.96726274450E+02  0.47000000000E+01 0. -1.
        -11    1    4    4    0    0 -0.12796333068E+02  0.32017641681E+02 -0.31720915095E+02  0.46851808645E+02  0.00000000000E+00 0. -1.
         11    1    4    4    0    0  0.10642533377E+02 -0.86180978407E+01  0.46130289262E+02  0.48120044831E+02  0.00000000000E+00 0.  1.
<mgrwt>
<rscale>  0 0.11789140E+03</rscale>
<asrwt>0</asrwt>
<pdfrwt beam="2">  1        2 0.11940720E-01 0.12719310E+03</pdfrwt>
<pdfrwt beam="1">  1       -2 0.25080877E-01 0.12719310E+03</pdfrwt>
<totfact> 0.68377486E+03</totfact>
</mgrwt>
</event>
<event>
 8    1  0.1154424E-005  0.1433909E+03  0.7546771E-02  0.1211787E+00
          3   -1    0    0  501    0  0.00000000000E+00  0.00000000000E+00  0.80014267007E+02  0.80014267007E+02  0.00000000000E+00 0. -1.
         -3   -1    0    0    0  501 -0.00000000000E+00 -0.00000000000E+00 -0.24192621669E+03  0.24192621669E+03  0.00000000000E+00 0.  1.
         23    2    1    2    0    0  0.70241388828E+02  0.18165562827E+01 -0.76963953817E+02  0.16274024148E+03  0.12499513362E+03 0.  0.
         23    2    1    2    0    0 -0.70241388828E+02 -0.18165562827E+01 -0.84947995863E+02  0.15920024222E+03  0.11485383119E+03 0.  0.
          5    1    3    3  502    0  0.11133073429E+01  0.35861385001E+02 -0.77507714225E+02  0.85538378240E+02  0.47000000000E+01 0.  1.
         -5    1    3    3    0  502  0.69128081485E+02 -0.34044828719E+02  0.54376040776E+00  0.77201863240E+02  0.47000000000E+01 0.  1.
        -11    1    4    4    0    0 -0.25686617492E+02 -0.11785737021E+02 -0.10543571970E+03  0.10915766993E+03  0.00000000000E+00 0.  1.
         11    1    4    4    0    0 -0.44554771336E+02  0.99691807382E+01  0.20487723835E+02  0.50042572290E+02  0.00000000000E+00 0. -1.
<mgrwt>
<rscale>  0 0.14115182E+03</rscale>
<asrwt>0</asrwt>
<pdfrwt beam="1">  1        3 0.12309887E-01 0.14339085E+03</pdfrwt>
<pdfrwt beam="2">  1       -3 0.37219417E-01 0.14339085E+03</pdfrwt>
<totfact> 0.86479491E+02</totfact>
</mgrwt>
</event>
<event>
 8    1  0.1154424E-005  0.1741600E+03  0.7546771E-02  0.1179568E+00
         -2   -1    0    0    0  501 -0.00000000000E+00  0.00000000000E+00  0.67783946372E+02  0.67783946372E+02  0.00000000000E+00 0.  1.
          2   -1    0    0  501    0  0.00000000000E+00 -0.00000000000E+00 -0.40530984222E+03  0.40530984222E+03  0.00000000000E+00 0. -1.
         23    2    1    2    0    0 -0.10033690219E+03 -0.68115119622E+02 -0.13799989180E+03  0.22220635994E+03  0.12499813117E+03 0.  0.
         23    2    1    2    0    0  0.10033690219E+03  0.68115119622E+02 -0.19952600404E+03  0.25088742865E+03  0.91797124704E+02 0.  0.
          5    1    3    3  502    0 -0.27318189641E+02  0.20139219092E+02  0.93465910602E+01  0.35515072790E+02  0.47000000000E+01 0.  1.
         -5    1    3    3    0  502 -0.73018712552E+02 -0.88254338714E+02 -0.14734648286E+03  0.18669128715E+03  0.47000000000E+01 0.  1.
        -11    1    4    4    0    0  0.11145579165E+03  0.57414681278E+02 -0.19929851430E+03  0.23545432024E+03  0.00000000000E+00 0. -1.
         11    1    4    4    0    0 -0.11118889456E+02  0.10700438344E+02 -0.22748973663E+00  0.15433108406E+02  0.00000000000E+00 0.  1.
<mgrwt>
<rscale>  0 0.16836132E+03</rscale>
<asrwt>0</asrwt>
<pdfrwt beam="2">  1        2 0.62355359E-01 0.17415997E+03</pdfrwt>
<pdfrwt beam="1">  1       -2 0.10428300E-01 0.17415997E+03</pdfrwt>
<totfact> 0.47594995E+03</totfact>
</mgrwt>
</event>
<event>
 7    1  0.1154424E-005  0.2820206E+03  0.7546771E-02  0.1094590E+00
         -1   -1    0    0    0  501 -0.00000000000E+00  0.00000000000E+00  0.76597461675E+02  0.76597461675E+02  0.00000000000E+00 0.  1.
          1   -1    0    0  501    0  0.00000000000E+00 -0.00000000000E+00 -0.25958954745E+03  0.25958954745E+03  0.00000000000E+00 0. -1.
         23    2    1    2    0    0 -0.32740937625E+02 -0.28024853991E+02 -0.10209994777E+03  0.14159990871E+03  0.88140645407E+02 0.  0.
          5    1    1    2  502    0 -0.53739057744E+02 -0.27954578316E+02 -0.67140960513E+02  0.90550225591E+02  0.47000000000E+01 0. -1.
         -5    1    1    2    0  502  0.86479995369E+02  0.55979432307E+02 -0.13751177484E+02  0.10403687482E+03  0.47000000000E+01 0.  1.
        -11    1    3    3    0    0 -0.51102794882E+02  0.32224883570E+01 -0.26261114996E+02  0.57545862030E+02  0.00000000000E+00 0.  1.
         11    1    3    3    0    0  0.18361857257E+02 -0.31247342348E+02 -0.75838832778E+02  0.84054046677E+02  0.00000000000E+00 0. -1.
<mgrwt>
<rscale>  0 0.28202057E+03</rscale>
<asrwt>0</asrwt>
<pdfrwt beam="2">  1        1 0.39936854E-01 0.28202057E+03</pdfrwt>
<pdfrwt beam="1">  1       -1 0.11784225E-01 0.28202057E+03</pdfrwt>
<totfact> 0.49362061E+03</totfact>
</mgrwt>
</event>
<event>
 8    1  0.1154424E-005  0.1287573E+03  0.7546771E-02  0.1243730E+00
         -2   -1    0    0    0  501 -0.00000000000E+00  0.00000000000E+00  0.72674319652E+03  0.72674319652E+03  0.00000000000E+00 0. -1.
          2   -1    0    0  501    0  0.00000000000E+00 -0.00000000000E+00 -0.28221109909E+02  0.28221109909E+02  0.00000000000E+00 0.  1.
         23    2    1    2    0    0  0.16587067059E+02  0.26068290972E+02  0.61327670127E+03  0.62664722836E+03  0.12499499949E+03 0.  0.
         23    2    1    2    0    0 -0.16587067059E+02 -0.26068290972E+02  0.85245385342E+02  0.12831707807E+03  0.90795430589E+02 0.  0.
          5    1    3    3  502    0  0.26992856743E+02  0.71800618838E+02  0.45699823132E+03  0.46341495078E+03  0.47000000000E+01 0. -1.
         -5    1    3    3    0  502 -0.10405789685E+02 -0.45732327866E+02  0.15627846995E+03  0.16323227757E+03  0.47000000000E+01 0. -1.
        -11    1    4    4    0    0 -0.45833616149E+02  0.96523292668E+01  0.58579541227E+02  0.75003003139E+02  0.00000000000E+00 0.  1.
         11    1    4    4    0    0  0.29246549090E+02 -0.35720620238E+02  0.26665844115E+02  0.53314074936E+02  0.00000000000E+00 0. -1.
<mgrwt>
<rscale>  0 0.11961715E+03</rscale>
<asrwt>0</asrwt>
<pdfrwt beam="2">  1        2 0.43417098E-02 0.12875728E+03</pdfrwt>
<pdfrwt beam="1">  1       -2 0.11180663E+00 0.12875728E+03</pdfrwt>
<totfact> 0.12055952E+03</totfact>
</mgrwt>
</event>
<event>
 8    1  0.1154424E-005  0.1611241E+03  0.7546771E-02  0.1194764E+00
         -2   -1    0    0    0  501 -0.00000000000E+00  0.00000000000E+00  0.21926042080E+02  0.21926042080E+02  0.00000000000E+00 0.  1.
          2   -1    0    0  501    0  0.00000000000E+00 -0.00000000000E+00 -0.10226223762E+04  0.10226223762E+04  0.00000000000E+00 0. -1.
         23    2    1    2    0    0  0.55858972701E+02  0.84951770401E+02 -0.58848125001E+03  0.61014027190E+03  0.12499576651E+03 0.  0.
         23    2    1    2    0    0 -0.55858972701E+02 -0.84951770401E+02 -0.41221508408E+03  0.43440814636E+03  0.91935488002E+02 0.  0.
          5    1    3    3  502    0  0.81330542985E+02  0.10090785819E+03 -0.50128999794E+03  0.51779417253E+03  0.47000000000E+01 0.  1.
         -5    1    3    3    0  502 -0.25471570284E+02 -0.15956087793E+02 -0.87191252071E+02  0.92346099366E+02  0.47000000000E+01 0.  1.
        -11    1    4    4    0    0 -0.48754152102E+02 -0.10155882615E+03 -0.38905530831E+03  0.40503727660E+03  0.00000000000E+00 0. -1.
         11    1    4    4    0    0 -0.71048205987E+01  0.16607055748E+02 -0.23159775773E+02  0.29370869755E+02  0.00000000000E+00 0.  1.
<mgrwt>
<rscale>  0 0.15474220E+03</rscale>
<asrwt>0</asrwt>
<pdfrwt beam="2">  1        2 0.15732650E+00 0.16112408E+03</pdfrwt>
<pdfrwt beam="1">  1       -2 0.33732376E-02 0.16112408E+03</pdfrwt>
<totfact> 0.88132068E+03</totfact>
</mgrwt>
</event>
<event>
 8    1  0.1154424E-005  0.1686074E+03  0.7546771E-02  0.1185664E+00
         -2   -1    0    0    0  501 -0.00000000000E+00  0.00000000000E+00  0.39860120912E+02  0.39860120912E+02  0.00000000000E+00 0.  1.
          2   -1    0    0  501    0  0.00000000000E+00 -0.00000000000E+00 -0.66058190056E+03  0.66058190056E+03  0.00000000000E+00 0. -1.
         23    2    1    2    0    0 -0.11245183786E+03  0.12951368719E+02 -0.24640680775E+03  0.29857121144E+03  0.12496119238E+03 0.  0.
         23    2    1    2    0    0  0.11245183786E+03 -0.12951368719E+02 -0.37431497190E+03  0.40187081003E+03  0.92602894026E+02 0.  0.
          5    1    3    3  502    0 -0.81121186650E+02  0.26460395175E+02 -0.24975225811E+03  0.26396795235E+03  0.47000000000E+01 0. -1.
         -5    1    3    3    0  502 -0.31330651213E+02 -0.13509026456E+02  0.33454503611E+01  0.34603259085E+02  0.47000000000E+01 0. -1.
        -11    1    4    4    0    0  0.12331032233E+03 -0.29093469698E+02 -0.31931711888E+03  0.34353353254E+03  0.00000000000E+00 0.  1.
         11    1    4    4    0    0 -0.10858484463E+02  0.16142100979E+02 -0.54997853018E+02  0.58337277494E+02  0.00000000000E+00 0. -1.
<mgrwt>
<rscale>  0 0.16271586E+03</rscale>
<asrwt>0</asrwt>
<pdfrwt beam="2">  1        2 0.10162798E+00 0.16860739E+03</pdfrwt>
<pdfrwt beam="1">  1       -2 0.61323268E-02 0.16860739E+03</pdfrwt>
<totfact> 0.62799945E+03</totfact>
</mgrwt>
</event>
<event>
 8    1  0.1154424E-005  0.1256239E+03  0.7546771E-02  0.1248435E+00
          1   -1    0    0  501    0  0.00000000000E+00  0.00000000000E+00  0.17638538886E+03  0.17638538886E+03  0.00000000000E+00 0. -1.
         -1   -1    0    0    0  501 -0.00000000000E+00 -0.00000000000E+00 -0.75113592635E+02  0.75113592635E+02  0.00000000000E+00 0.  1.
         23    2    1    2    0    0  0.11730537014E+02  0.39315750673E+01  0.19854233972E+02  0.12718315065E+03  0.12501320099E+03 0.  0.
         23    2    1    2    0    0 -0.11730537014E+02 -0.39315750673E+01  0.81417562258E+02  0.12431583085E+03  0.93126492339E+02 0.  0.
          5    1    3    3  502    0  0.53970048931E+02  0.41976721220E+02  0.12598844247E+02  0.69682366366E+02  0.47000000000E+01 0.  1.
         -5    1    3    3    0  502 -0.42239511918E+02 -0.38045146152E+02  0.72553897245E+01  0.57500784280E+02  0.47000000000E+01 0.  1.
        -11    1    4    4    0    0 -0.48383187805E+02  0.15426745606E+02  0.32928658946E+02  0.60524490268E+02  0.00000000000E+00 0. -1.
         11    1    4    4    0    0  0.36652650791E+02 -0.19358320673E+02  0.48488903311E+02  0.63791340585E+02  0.00000000000E+00 0.  1.
<mgrwt>
<rscale>  0 0.11682136E+03</rscale>
<asrwt>0</asrwt>
<pdfrwt beam="1">  1        1 0.27136213E-01 0.12562390E+03</pdfrwt>
<pdfrwt beam="2">  1       -1 0.11555937E-01 0.12562390E+03</pdfrwt>
<totfact> 0.78770555E+03</totfact>
</mgrwt>
</event>
<event>
 8    1  0.1154424E-005  0.1350446E+03  0.7546771E-02  0.1232499E+00
          2   -1    0    0  501    0  0.00000000000E+00  0.00000000000E+00  0.35844959894E+02  0.35844959894E+02  0.00000000000E+00 0. -1.
         -2   -1    0    0    0  501 -0.00000000000E+00 -0.00000000000E+00 -0.40997098582E+03  0.40997098582E+03  0.00000000000E+00 0.  1.
         23    2    1    2    0    0 -0.14637924468E+02  0.48946850457E+02 -0.24448051756E+03  0.27929872846E+03  0.12500797274E+03 0.  0.
         23    2    1    2    0    0  0.14637924468E+02 -0.48946850457E+02 -0.12964550836E+03  0.16651721725E+03  0.91158997367E+02 0.  0.
          5    1    3    3  502    0  0.33647944047E+01  0.21993162164E+02 -0.24548051850E+03  0.24653153142E+03  0.47000000000E+01 0.  1.
         -5    1    3    3    0  502 -0.18002718873E+02  0.26953688293E+02  0.10000009401E+01  0.32767197031E+02  0.47000000000E+01 0.  1.
        -11    1    4    4    0    0  0.39952934809E+02 -0.43655145622E+02 -0.12750258414E+03  0.14056641741E+03  0.00000000000E+00 0.  1.
         11    1    4    4    0    0 -0.25315010340E+02 -0.52917048354E+01 -0.21429242201E+01  0.25950799849E+02  0.00000000000E+00 0. -1.
<mgrwt>
<rscale>  0 0.12665898E+03</rscale>
<asrwt>0</asrwt>
<pdfrwt beam="1">  1        2 0.55146093E-02 0.13504465E+03</pdfrwt>
<pdfrwt beam="2">  1       -2 0.63072459E-01 0.13504465E+03</pdfrwt>
<totfact> 0.31409104E+03</totfact>
</mgrwt>
</event>
<event>
 8    1  0.1154424E-005  0.1262181E+03  0.7546771E-02  0.1241775E+00
          3   -1    0    0  501    0  0.00000000000E+00  0.00000000000E+00  0.10274389442E+03  0.10274389442E+03  0.00000000000E+00 0. -1.
         -3   -1    0    0    0  501 -0.00000000000E+00 -0.00000000000E+00 -0.14589441132E+03  0.14589441132E+03  0.00000000000E+00 0.  1.
         23    2    1    2    0    0  0.35662099404E+02  0.42108655626E+02 -0.62695799464E+02  0.14093177489E+03  0.11351686082E+03 0.  0.
         23    2    1    2    0    0 -0.35662099404E+02 -0.42108655626E+02  0.19545282557E+02  0.10770653085E+03  0.90408818733E+02 0.  0.
          5    1    3    3  502    0  0.68440175127E+02  0.48355868719E+02 -0.19535347029E+02  0.86174633127E+02  0.47000000000E+01 0. -1.
         -5    1    3    3    0  502 -0.32778075723E+02 -0.62472130934E+01 -0.43160452435E+02  0.54757141762E+02  0.47000000000E+01 0.  1.
        -11    1    4    4    0    0  0.40312165399E+01 -0.43530227704E+02  0.43214116713E+02  0.61470247389E+02  0.00000000000E+00 0.  1.
         11    1    4    4    0    0 -0.39693315944E+02  0.14215720783E+01 -0.23668834157E+02  0.46236283460E+02  0.00000000000E+00 0. -1.
<mgrwt>
<rscale>  0 0.12080471E+03</rscale>
<asrwt>0</asrwt>
<pdfrwt beam="1">  1        3 0.15806753E-01 0.12621807E+03</pdfrwt>
<pdfrwt beam="2">  1       -3 0.22445294E-01 0.12621807E+03</pdfrwt>
<totfact> 0.14060550E+03</totfact>
</mgrwt>
</event>
<event>
 8    1  0.1154424E-005  0.1726500E+03  0.7546771E-02  0.1180210E+00
         -2   -1    0    0    0  501 -0.00000000000E+00  0.00000000000E+00  0.81300074940E+02  0.81300074940E+02  0.00000000000E+00 0. -1.
          2   -1    0    0  501    0  0.00000000000E+00 -0.00000000000E+00 -0.33221179985E+03  0.33221179985E+03  0.00000000000E+00 0.  1.
         23    2    1    2    0    0 -0.80915354199E+02  0.87390732765E+02 -0.15614798453E+03  0.23278794474E+03  0.12499439757E+03 0.  0.
         23    2    1    2    0    0  0.80915354199E+02 -0.87390732765E+02 -0.94763740381E+02  0.18072393005E+03  0.97450180525E+02 0.  0.
          5    1    3    3  502    0 -0.10575241654E+03  0.78854462220E+02 -0.15819127221E+03  0.20602953288E+03  0.47000000000E+01 0. -1.
         -5    1    3    3    0  502  0.24837062344E+02  0.85362705449E+01  0.20432876765E+01  0.26758411859E+02  0.47000000000E+01 0. -1.
        -11    1    4    4    0    0  0.44832755782E+02 -0.71904298012E+01  0.73101640833E+01  0.45990398679E+02  0.00000000000E+00 0. -1.
         11    1    4    4    0    0  0.36082598418E+02 -0.80200302963E+02 -0.10207390446E+03  0.13473353137E+03  0.00000000000E+00 0.  1.
<mgrwt>
<rscale>  0 0.16775479E+03</rscale>
<asrwt>0</asrwt>
<pdfrwt beam="2">  1        2 0.51109508E-01 0.17265003E+03</pdfrwt>
<pdfrwt beam="1">  1       -2 0.12507704E-01 0.17265003E+03</pdfrwt>
<totfact> 0.44039030E+03</totfact>
</mgrwt>
</event>
<event>
 8    1  0.1154424E-005  0.1677534E+03  0.7546771E-02  0.1187323E+00
         -1   -1    0    0    0  501 -0.00000000000E+00  0.00000000000E+00  0.47776707192E+03  0.47776707192E+03  0.00000000000E+00 0.  1.
          1   -1    0    0  501    0  0.00000000000E+00 -0.00000000000E+00 -0.51805132204E+02  0.51805132204E+02  0.00000000000E+00 0. -1.
         23    2    1    2    0    0 -0.67558740129E+02 -0.89190749726E+02  0.27022988872E+03  0.31806509839E+03  0.12498816284E+03 0.  0.
         23    2    1    2    0    0  0.67558740129E+02  0.89190749726E+02  0.15573205099E+03  0.21150710573E+03  0.89239065802E+02 0.  0.
          5    1    3    3  502    0 -0.67648407946E+02 -0.10844977174E+03  0.15415072596E+03  0.20030525805E+03  0.47000000000E+01 0. -1.
         -5    1    3    3    0  502  0.89667817104E-01  0.19259022015E+02  0.11607916276E+03  0.11775984034E+03  0.47000000000E+01 0. -1.
        -11    1    4    4    0    0  0.14351755626E+02 -0.97674403722E+01  0.64443128200E+02  0.66740486612E+02  0.00000000000E+00 0.  1.
         11    1    4    4    0    0  0.53206984503E+02  0.98958190098E+02  0.91288922792E+02  0.14476661912E+03  0.00000000000E+00 0. -1.
<mgrwt>
<rscale>  0 0.16122307E+03</rscale>
<asrwt>0</asrwt>
<pdfrwt beam="2">  1        1 0.79700206E-02 0.16775343E+03</pdfrwt>
<pdfrwt beam="1">  1       -1 0.73502624E-01 0.16775343E+03</pdfrwt>
<totfact> 0.16688121E+03</totfact>
</mgrwt>
</event>
<event>
 8    1  0.1154424E-005  0.1356481E+03  0.7546771E-02  0.1233404E+00
         -3   -1    0    0    0  501 -0.00000000000E+00  0.00000000000E+00  0.12746276189E+04  0.12746276189E+04  0.00000000000E+00 0.  1.
          3   -1    0    0  501    0  0.00000000000E+00 -0.00000000000E+00 -0.15977721151E+02  0.15977721151E+02  0.00000000000E+00 0. -1.
         23    2    1    2    0    0  0.48254260099E+02  0.21093619017E+02  0.10497562091E+04  0.10584840620E+04  0.12500798601E+03 0.  0.
         23    2    1    2    0    0 -0.48254260099E+02 -0.21093619017E+02  0.20889368865E+03  0.23212127806E+03  0.86430898353E+02 0.  0.
          5    1    3    3  502    0  0.17276990490E+01 -0.92272617887E+01  0.87484941348E+03  0.87491240337E+03  0.47000000000E+01 0.  1.
         -5    1    3    3    0  502  0.46526561050E+02  0.30320880806E+02  0.17490679567E+03  0.18357165867E+03  0.47000000000E+01 0.  1.
        -11    1    4    4    0    0 -0.53681164484E+02 -0.37496125586E+01  0.20696466000E+03  0.21384596677E+03  0.00000000000E+00 0.  1.
         11    1    4    4    0    0  0.54269043852E+01 -0.17344006459E+02  0.19290286491E+01  0.18275311291E+02  0.00000000000E+00 0. -1.
<mgrwt>
<rscale>  0 0.12607167E+03</rscale>
<asrwt>0</asrwt>
<pdfrwt beam="2">  1        3 0.24581120E-02 0.13564811E+03</pdfrwt>
<pdfrwt beam="1">  1       -3 0.19609648E+00 0.13564811E+03</pdfrwt>
<totfact> 0.27499081E+02</totfact>
</mgrwt>
</event>
<event>
 8    1  0.1154424E-005  0.1381384E+03  0.7546771E-02  0.1226822E+00
          1   -1    0    0  501    0  0.00000000000E+00  0.00000000000E+00  0.23736345928E+03  0.23736345928E+03  0.00000000000E+00 0. -1.
         -1   -1    0    0    0  501 -0.00000000000E+00 -0.00000000000E+00 -0.79810450643E+02  0.79810450643E+02  0.00000000000E+00 0.  1.
         23    2    1    2    0    0 -0.14626524995E+02  0.56992917381E+02  0.17532940988E+02  0.13924658891E+03  0.12498032100E+03 0.  0.
         23    2    1    2    0    0  0.14626524995E+02 -0.56992917381E+02  0.14002006765E+03  0.17792732102E+03  0.92684326371E+02 0.  0.
          5    1    3    3  502    0 -0.17345043457E+02  0.96373313658E+02  0.16952511354E+02  0.99489415312E+02  0.47000000000E+01 0.  1.
         -5    1    3    3    0  502  0.27185184621E+01 -0.39380396278E+02  0.58042963482E+00  0.39757173594E+02  0.47000000000E+01 0.  1.
        -11    1    4    4    0    0  0.23765469080E+02  0.20656044866E+02  0.43887274560E+02  0.54014466381E+02  0.00000000000E+00 0. -1.
         11    1    4    4    0    0 -0.91389440858E+01 -0.77648962247E+02  0.96132793089E+02  0.12391285464E+03  0.00000000000E+00 0.  1.
<mgrwt>
<rscale>  0 0.13042788E+03</rscale>
<asrwt>0</asrwt>
<pdfrwt beam="1">  1        1 0.36517455E-01 0.13813837E+03</pdfrwt>
<pdfrwt beam="2">  1       -1 0.12278531E-01 0.13813837E+03</pdfrwt>
<totfact> 0.49944757E+03</totfact>
</mgrwt>
</event>
<event>
 8    1  0.1154424E-005  0.2273573E+03  0.7546771E-02  0.1131594E+00
          1   -1    0    0  501    0  0.00000000000E+00  0.00000000000E+00  0.40319994974E+03  0.40319994974E+03  0.00000000000E+00 0. -1.
         -1   -1    0    0    0  501 -0.00000000000E+00 -0.00000000000E+00 -0.12435812293E+03  0.12435812293E+03  0.00000000000E+00 0.  1.
         23    2    1    2    0    0 -0.18277521917E+03 -0.51401613109E+02  0.89918099115E+02  0.24449250953E+03  0.12506964498E+03 0.  0.
         23    2    1    2    0    0  0.18277521917E+03  0.51401613109E+02  0.18892372770E+03  0.28306556313E+03  0.91569818009E+02 0.  0.
          5    1    3    3  502    0 -0.74742194466E+02  0.82555390297E+01  0.94559536801E+02  0.12090552327E+03  0.47000000000E+01 0. -1.
         -5    1    3    3    0  502 -0.10803302471E+03 -0.59657152139E+02 -0.46414376861E+01  0.12358698626E+03  0.47000000000E+01 0. -1.
        -11    1    4    4    0    0  0.98321941193E+02 -0.11758111085E+02  0.12602513266E+03  0.16027411319E+03  0.00000000000E+00 0. -1.
         11    1    4    4    0    0  0.84453277980E+02  0.63159724194E+02  0.62898595040E+02  0.12279144995E+03  0.00000000000E+00 0.  1.
<mgrwt>
<rscale>  0 0.22309815E+03</rscale>
<asrwt>0</asrwt>
<pdfrwt beam="1">  1        1 0.62030761E-01 0.22735726E+03</pdfrwt>
<pdfrwt beam="2">  1       -1 0.19132019E-01 0.22735726E+03</pdfrwt>
<totfact> 0.12979039E+03</totfact>
</mgrwt>
</event>
<event>
 8    1  0.1154424E-005  0.1262172E+03  0.7546771E-02  0.1251098E+00
          1   -1    0    0  501    0  0.00000000000E+00  0.00000000000E+00  0.20494098820E+03  0.20494098820E+03  0.00000000000E+00 0. -1.
         -1   -1    0    0    0  501 -0.00000000000E+00 -0.00000000000E+00 -0.57659895672E+02  0.57659895672E+02  0.00000000000E+00 0.  1.
         23    2    1    2    0    0  0.10189578829E+02 -0.14110157582E+02  0.63780909693E+02  0.14141705203E+03  0.12501141588E+03 0.  0.
         23    2    1    2    0    0 -0.10189578829E+02  0.14110157582E+02  0.83500182830E+02  0.12118383183E+03  0.86083195235E+02 0.  0.
          5    1    3    3  502    0 -0.27311552989E+02 -0.52200149609E+02  0.64859335441E+02  0.87747364289E+02  0.47000000000E+01 0.  1.
         -5    1    3    3    0  502  0.37501131818E+02  0.38089992028E+02 -0.10784257477E+01  0.53669687743E+02  0.47000000000E+01 0.  1.
        -11    1    4    4    0    0  0.37496418988E+02  0.12133645051E+02  0.30295725871E+02  0.49709534147E+02  0.00000000000E+00 0.  1.
         11    1    4    4    0    0 -0.47685997817E+02  0.19765125307E+01  0.53204456960E+02  0.71474297687E+02  0.00000000000E+00 0. -1.
<mgrwt>
<rscale>  0 0.11527722E+03</rscale>
<asrwt>0</asrwt>
<pdfrwt beam="1">  1        1 0.31529382E-01 0.12621719E+03</pdfrwt>
<pdfrwt beam="2">  1       -1 0.88707533E-02 0.12621719E+03</pdfrwt>
<totfact> 0.97869569E+03</totfact>
</mgrwt>
</event>
<event>
 8    1  0.1829016E-005  0.2444387E+03  0.7546771E-02  0.1119411E+00
          2   -1    0    0  501    0  0.00000000000E+00  0.00000000000E+00  0.19328507037E+04  0.19328507037E+04  0.00000000000E+00 0. -1.
         -2   -1    0    0    0  501 -0.00000000000E+00 -0.00000000000E+00 -0.29228438082E+02  0.29228438082E+02  0.00000000000E+00 0.  1.
         23    2    1    2    0    0 -0.84531649615E+02  0.19230023318E+03  0.10620163611E+04  0.10897839394E+04  0.12500121568E+03 0.  0.
         23    2    1    2    0    0  0.84531649615E+02 -0.19230023318E+03  0.84160590455E+03  0.87229520239E+03  0.92051301258E+02 0.  0.
          5    1    3    3  502    0 -0.89351258678E+02  0.16731972058E+03  0.10354888326E+04  0.10527291906E+04  0.47000000000E+01 0. -1.
         -5    1    3    3    0  502  0.48196090633E+01  0.24980512607E+02  0.26527528498E+02  0.37054748817E+02  0.47000000000E+01 0. -1.
        -11    1    4    4    0    0 -0.27097514945E+01 -0.63731424096E+02  0.14240714597E+03  0.15604112405E+03  0.00000000000E+00 0. -1.
         11    1    4    4    0    0  0.87241401109E+02 -0.12856880909E+03  0.69919875858E+03  0.71625407834E+03  0.00000000000E+00 0.  1.
<mgrwt>
<rscale>  0 0.24057422E+03</rscale>
<asrwt>0</asrwt>
<pdfrwt beam="1">  1        2 0.29736155E+00 0.24443871E+03</pdfrwt>
<pdfrwt beam="2">  1       -2 0.44966843E-02 0.24443871E+03</pdfrwt>
<totfact> 0.18575452E+03</totfact>
</mgrwt>
</event>
<event>
 8    1  0.1154424E-005  0.1683772E+03  0.7546771E-02  0.1186284E+00
         -2   -1    0    0    0  501 -0.00000000000E+00  0.00000000000E+00  0.93499852567E+02  0.93499852567E+02  0.00000000000E+00 0.  1.
          2   -1    0    0  501    0  0.00000000000E+00 -0.00000000000E+00 -0.26231239922E+03  0.26231239922E+03  0.00000000000E+00 0. -1.
         23    2    1    2    0    0 -0.26344496350E+02 -0.10968497081E+03 -0.90469888633E+02  0.19114312811E+03  0.12500427739E+03 0.  0.
         23    2    1    2    0    0  0.26344496350E+02  0.10968497081E+03 -0.78342658025E+02  0.16466912368E+03  0.90848901578E+02 0.  0.
          5    1    3    3  502    0 -0.88616835090E+01  0.17510450469E+02  0.14816961723E+02  0.25035528054E+02  0.47000000000E+01 0. -1.
         -5    1    3    3    0  502 -0.17482812841E+02 -0.12719542128E+03 -0.10528685036E+03  0.16610760006E+03  0.47000000000E+01 0. -1.
        -11    1    4    4    0    0  0.98156902137E+01 -0.15075028289E+02 -0.37562716574E+01  0.18376991839E+02  0.00000000000E+00 0.  1.
         11    1    4    4    0    0  0.16528806137E+02  0.12475999910E+03 -0.74586386368E+02  0.14629213184E+03  0.00000000000E+00 0. -1.
<mgrwt>
<rscale>  0 0.16215635E+03</rscale>
<asrwt>0</asrwt>
<pdfrwt beam="2">  1        2 0.40355753E-01 0.16837724E+03</pdfrwt>
<pdfrwt beam="1">  1       -2 0.14384593E-01 0.16837724E+03</pdfrwt>
<totfact> 0.45111700E+03</totfact>
</mgrwt>
</event>
<event>
 8    1  0.1154424E-005  0.3367579E+03  0.7546771E-02  0.1069769E+00
          3   -1    0    0  501    0  0.00000000000E+00  0.00000000000E+00  0.20930175607E+03  0.20930175607E+03  0.00000000000E+00 0. -1.
         -3   -1    0    0    0  501 -0.00000000000E+00 -0.00000000000E+00 -0.62220219694E+03  0.62220219694E+03  0.00000000000E+00 0.  1.
         23    2    1    2    0    0  0.28043157182E+03  0.13834618803E+03 -0.37951409624E+03  0.50738231887E+03  0.12499733612E+03 0.  0.
         23    2    1    2    0    0 -0.28043157182E+03 -0.13834618803E+03 -0.33386344623E+02  0.32412163414E+03  0.78477076222E+02 0.  0.
          5    1    3    3  502    0  0.71007534850E+02  0.45852857696E+02 -0.30557787783E+02  0.90002349739E+02  0.47000000000E+01 0. -1.
         -5    1    3    3    0  502  0.20942403697E+03  0.92493330332E+02 -0.34895630846E+03  0.41737996913E+03  0.47000000000E+01 0. -1.
        -11    1    4    4    0    0 -0.10535779511E+03 -0.36489906414E+02  0.23056291659E+02  0.11385679973E+03  0.00000000000E+00 0.  1.
         11    1    4    4    0    0 -0.17507377671E+03 -0.10185628161E+03 -0.56442636283E+02  0.21026483440E+03  0.00000000000E+00 0. -1.
<mgrwt>
<rscale>  0 0.33310892E+03</rscale>
<asrwt>0</asrwt>
<pdfrwt beam="1">  1        3 0.32200271E-01 0.33675788E+03</pdfrwt>
<pdfrwt beam="2">  1       -3 0.95723413E-01 0.33675788E+03</pdfrwt>
<totfact> 0.23572970E+01</totfact>
</mgrwt>
</event>
<event>
 8    1  0.1154424E-005  0.1629923E+03  0.7546771E-02  0.1193951E+00
          2   -1    0    0  501    0  0.00000000000E+00  0.00000000000E+00  0.34480559665E+03  0.34480559665E+03  0.00000000000E+00 0. -1.
         -2   -1    0    0    0  501 -0.00000000000E+00 -0.00000000000E+00 -0.66526421084E+02  0.66526421084E+02  0.00000000000E+00 0.  1.
         23    2    1    2    0    0 -0.50946209178E+02  0.91337147477E+02  0.11437445176E+03  0.19911804034E+03  0.12501395137E+03 0.  0.
         23    2    1    2    0    0  0.50946209178E+02 -0.91337147477E+02  0.16390472380E+03  0.21221397739E+03  0.85041301578E+02 0.  0.
          5    1    3    3  502    0  0.13332052888E+02  0.62807308964E+02  0.11128895882E+03  0.12856836333E+03  0.47000000000E+01 0. -1.
         -5    1    3    3    0  502 -0.64278262066E+02  0.28529838513E+02  0.30854929341E+01  0.70549677011E+02  0.47000000000E+01 0. -1.
        -11    1    4    4    0    0  0.16101956756E+02 -0.47310809505E+02  0.14435518184E+03  0.15276126548E+03  0.00000000000E+00 0. -1.
         11    1    4    4    0    0  0.34844252422E+02 -0.44026337972E+02  0.19549541967E+02  0.59452711908E+02  0.00000000000E+00 0.  1.
<mgrwt>
<rscale>  0 0.15543351E+03</rscale>
<asrwt>0</asrwt>
<pdfrwt beam="1">  1        2 0.53047014E-01 0.16299227E+03</pdfrwt>
<pdfrwt beam="2">  1       -2 0.10234834E-01 0.16299227E+03</pdfrwt>
<totfact> 0.58118350E+03</totfact>
</mgrwt>
</event>
<event>
 8    1  0.1154424E-005  0.2956807E+03  0.7546771E-02  0.1089123E+00
          3   -1    0    0  501    0  0.00000000000E+00  0.00000000000E+00  0.64127921706E+02  0.64127921706E+02  0.00000000000E+00 0.  1.
         -3   -1    0    0    0  501 -0.00000000000E+00 -0.00000000000E+00 -0.14241834480E+04  0.14241834480E+04  0.00000000000E+00 0. -1.
         23    2    1    2    0    0  0.18897027905E+02 -0.26728919796E+03 -0.91038832877E+03  0.95720112307E+03  0.12500587123E+03 0.  0.
         23    2    1    2    0    0 -0.18897027905E+02  0.26728919796E+03 -0.44966719756E+03  0.53111024666E+03  0.89871533573E+02 0.  0.
          5    1    3    3  502    0  0.70963309870E+02 -0.18104532568E+03 -0.62022523247E+03  0.65001125398E+03  0.47000000000E+01 0.  1.
         -5    1    3    3    0  502 -0.52066281965E+02 -0.86243872273E+02 -0.29016309630E+03  0.30718986910E+03  0.47000000000E+01 0.  1.
        -11    1    4    4    0    0 -0.38122215263E+02  0.97533156103E+02 -0.11617543897E+03  0.15640573025E+03  0.00000000000E+00 0.  1.
         11    1    4    4    0    0  0.19225187358E+02  0.16975604185E+03 -0.33349175859E+03  0.37470451641E+03  0.00000000000E+00 0. -1.
<mgrwt>
<rscale>  0 0.29236158E+03</rscale>
<asrwt>0</asrwt>
<pdfrwt beam="1">  1        3 0.98658341E-02 0.29568071E+03</pdfrwt>
<pdfrwt beam="2">  1       -3 0.21910515E+00 0.29568071E+03</pdfrwt>
<totfact> 0.23084505E+01</totfact>
</mgrwt>
</event>
<event>
 8    1  0.1154424E-005  0.1330577E+03  0.7546771E-02  0.1236168E+00
          3   -1    0    0  501    0  0.00000000000E+00  0.00000000000E+00  0.22324650412E+03  0.22324650412E+03  0.00000000000E+00 0. -1.
         -3   -1    0    0    0  501 -0.00000000000E+00 -0.00000000000E+00 -0.61555788439E+02  0.61555788439E+02  0.00000000000E+00 0.  1.
         23    2    1    2    0    0  0.45199110771E+02 -0.60465598769E+01  0.88550705019E+02  0.15982985761E+03  0.12499934209E+03 0.  0.
         23    2    1    2    0    0 -0.45199110771E+02  0.60465598769E+01  0.73140010663E+02  0.12497243495E+03  0.90493799994E+02 0.  0.
          5    1    3    3  502    0 -0.96582236460E+01 -0.48961620511E+02  0.41450348771E+01  0.50297046446E+02  0.47000000000E+01 0.  1.
         -5    1    3    3    0  502  0.54857334417E+02  0.42915060634E+02  0.84405670142E+02  0.10953281116E+03  0.47000000000E+01 0.  1.
        -11    1    4    4    0    0  0.25102616168E+02 -0.10155145579E+02  0.92813436719E+01  0.28625367431E+02  0.00000000000E+00 0. -1.
         11    1    4    4    0    0 -0.70301726938E+02  0.16201705456E+02  0.63858666991E+02  0.96347067522E+02  0.00000000000E+00 0.  1.
<mgrwt>
<rscale>  0 0.12429945E+03</rscale>
<asrwt>0</asrwt>
<pdfrwt beam="1">  1        3 0.34345616E-01 0.13305772E+03</pdfrwt>
<pdfrwt beam="2">  1       -3 0.94701214E-02 0.13305772E+03</pdfrwt>
<totfact> 0.15398156E+03</totfact>
</mgrwt>
</event>
<event>
 7    1  0.1154424E-005  0.1327831E+03  0.7546771E-02  0.1238812E+00
          1   -1    0    0  501    0  0.00000000000E+00  0.00000000000E+00  0.34753460445E+02  0.34753460445E+02  0.00000000000E+00 0. -1.
         -1   -1    0    0    0  501 -0.00000000000E+00 -0.00000000000E+00 -0.45048176064E+03  0.45048176064E+03  0.00000000000E+00 0.  1.
         23    2    1    2    0    0 -0.25710348299E+02  0.12187818823E+01 -0.84382163821E+02  0.12827356385E+03  0.93119547752E+02 0.  0.
          5    1    1    2  502    0  0.25290413125E+02  0.46390459910E+02 -0.54651725310E+02  0.76161544404E+02  0.47000000000E+01 0. -1.
         -5    1    1    2    0  502  0.41993517399E+00 -0.47609241792E+02 -0.27669441106E+03  0.28080011282E+03  0.47000000000E+01 0.  1.
        -11    1    3    3    0    0  0.44679493670E+01  0.29254502076E+02  0.48539983269E+01  0.29989160759E+02  0.00000000000E+00 0. -1.
         11    1    3    3    0    0 -0.30178297666E+02 -0.28035720194E+02 -0.89236162148E+02  0.98284403094E+02  0.00000000000E+00 0.  1.
<mgrwt>
<rscale>  0 0.12263495E+03</rscale>
<asrwt>0</asrwt>
<pdfrwt beam="1">  1        1 0.53466865E-02 0.13278314E+03</pdfrwt>
<pdfrwt beam="2">  1       -1 0.69304882E-01 0.13278314E+03</pdfrwt>
<totfact> 0.31891084E+03</totfact>
</mgrwt>
</event>
<event>
 8    1  0.1154424E-005  0.1521233E+03  0.7546771E-02  0.1206901E+00
         -2   -1    0    0    0  501 -0.00000000000E+00  0.00000000000E+00  0.40151033499E+02  0.40151033499E+02  0.00000000000E+00 0.  1.
          2   -1    0    0  501    0  0.00000000000E+00 -0.00000000000E+00 -0.80052031282E+03  0.80052031282E+03  0.00000000000E+00 0. -1.
         23    2    1    2    0    0  0.85687831548E+02  0.13162297368E+02 -0.13655888687E+03  0.20442558494E+03  0.12500335855E+03 0.  0.
         23    2    1    2    0    0 -0.85687831548E+02 -0.13162297368E+02 -0.62381039245E+03  0.63624576137E+03  0.90297356503E+02 0.  0.
          5    1    3    3  502    0  0.41647713712E+01  0.13068603080E+02 -0.12029196816E+03  0.12116262341E+03  0.47000000000E+01 0. -1.
         -5    1    3    3    0  502  0.81523060177E+02  0.93694288609E-01 -0.16266918707E+02  0.83262961534E+02  0.47000000000E+01 0. -1.
        -11    1    4    4    0    0 -0.23968335499E+02  0.37449193565E+02 -0.26090854423E+03  0.26466996742E+03  0.00000000000E+00 0.  1.
         11    1    4    4    0    0 -0.61719496049E+02 -0.50611490933E+02 -0.36290184822E+03  0.37157579395E+03  0.00000000000E+00 0. -1.
<mgrwt>
<rscale>  0 0.14488647E+03</rscale>
<asrwt>0</asrwt>
<pdfrwt beam="2">  1        2 0.12315697E+00 0.15212327E+03</pdfrwt>
<pdfrwt beam="1">  1       -2 0.61770823E-02 0.15212327E+03</pdfrwt>
<totfact> 0.48989239E+03</totfact>
</mgrwt>
</event>
<event>
 8    1  0.1154424E-005  0.1308642E+03  0.7546771E-02  0.1234639E+00
         -2   -1    0    0    0  501 -0.00000000000E+00  0.00000000000E+00  0.33030620314E+02  0.33030620314E+02  0.00000000000E+00 0.  1.
          2   -1    0    0  501    0  0.00000000000E+00 -0.00000000000E+00 -0.45918680567E+03  0.45918680567E+03  0.00000000000E+00 0. -1.
         23    2    1    2    0    0  0.13968121645E+02 -0.57404386250E+02 -0.17906755217E+03  0.22178962667E+03  0.11676933792E+03 0.  0.
         23    2    1    2    0    0 -0.13968121645E+02  0.57404386250E+02 -0.24708863318E+03  0.27042779931E+03  0.92671624599E+02 0.  0.
          5    1    3    3  502    0  0.48047667322E+02  0.64798337712E+01 -0.11539814113E+03  0.12525728545E+03  0.47000000000E+01 0. -1.
         -5    1    3    3    0  502 -0.34079545677E+02 -0.63884220022E+02 -0.63669411039E+02  0.96532341230E+02  0.47000000000E+01 0.  1.
        -11    1    4    4    0    0  0.25632428939E+02 -0.12726772923E+02 -0.79420389152E+02  0.84419135126E+02  0.00000000000E+00 0.  1.
         11    1    4    4    0    0 -0.39600550583E+02  0.70131159173E+02 -0.16766824403E+03  0.18600866418E+03  0.00000000000E+00 0. -1.
<mgrwt>
<rscale>  0 0.12527573E+03</rscale>
<asrwt>0</asrwt>
<pdfrwt beam="2">  1        2 0.70644123E-01 0.13086424E+03</pdfrwt>
<pdfrwt beam="1">  1       -2 0.50816340E-02 0.13086424E+03</pdfrwt>
<totfact> 0.12364779E+04</totfact>
</mgrwt>
</event>
<event>
 8    1  0.1154424E-005  0.1541367E+03  0.7546771E-02  0.1203721E+00
          2   -1    0    0  501    0  0.00000000000E+00  0.00000000000E+00  0.78315351444E+03  0.78315351444E+03  0.00000000000E+00 0. -1.
         -2   -1    0    0    0  501 -0.00000000000E+00 -0.00000000000E+00 -0.25601295250E+02  0.25601295250E+02  0.00000000000E+00 0.  1.
         23    2    1    2    0    0 -0.77125777453E+02  0.46780808590E+02  0.42760083709E+03  0.45453337283E+03  0.12498512524E+03 0.  0.
         23    2    1    2    0    0  0.77125777453E+02 -0.46780808590E+02  0.32995138209E+03  0.35422143686E+03  0.92022183118E+02 0.  0.
          5    1    3    3  502    0  0.11996677322E+02 -0.28995681830E+02  0.14884859160E+03  0.15219284823E+03  0.47000000000E+01 0.  1.
         -5    1    3    3    0  502 -0.89122454775E+02  0.75776490420E+02  0.27875224550E+03  0.30234052460E+03  0.47000000000E+01 0.  1.
        -11    1    4    4    0    0 -0.18028428108E+02 -0.15815934153E+02  0.32509041276E+02  0.40398091018E+02  0.00000000000E+00 0.  1.
         11    1    4    4    0    0  0.95154205561E+02 -0.30964874437E+02  0.29744234082E+03  0.31382334584E+03  0.00000000000E+00 0. -1.
<mgrwt>
<rscale>  0 0.14738695E+03</rscale>
<asrwt>0</asrwt>
<pdfrwt beam="1">  1        2 0.12048514E+00 0.15413666E+03</pdfrwt>
<pdfrwt beam="2">  1       -2 0.39386614E-02 0.15413666E+03</pdfrwt>
<totfact> 0.99188543E+03</totfact>
</mgrwt>
</event>
<event>
 8    1  0.1154424E-005  0.1734735E+03  0.7546771E-02  0.1180402E+00
         -2   -1    0    0    0  501 -0.00000000000E+00  0.00000000000E+00  0.43482521968E+02  0.43482521968E+02  0.00000000000E+00 0.  1.
          2   -1    0    0  501    0  0.00000000000E+00 -0.00000000000E+00 -0.76281975788E+03  0.76281975788E+03  0.00000000000E+00 0. -1.
         23    2    1    2    0    0  0.11958217719E+03  0.12948857734E+02 -0.19666330996E+03  0.26223945120E+03  0.12500200903E+03 0.  0.
         23    2    1    2    0    0 -0.11958217719E+03 -0.12948857734E+02 -0.52267392595E+03  0.54406282865E+03  0.91371541690E+02 0.  0.
          5    1    3    3  502    0  0.93983701926E+02  0.12532662330E+02 -0.21181878545E+03  0.23211913261E+03  0.47000000000E+01 0. -1.
         -5    1    3    3    0  502  0.25598475267E+02  0.41619540466E+00  0.15155475491E+02  0.30120318590E+02  0.47000000000E+01 0. -1.
        -11    1    4    4    0    0 -0.84783211733E+02 -0.50184742501E+02 -0.37980930494E+03  0.39237967518E+03  0.00000000000E+00 0. -1.
         11    1    4    4    0    0 -0.34798965459E+02  0.37235884767E+02 -0.14286462101E+03  0.15168315348E+03  0.00000000000E+00 0.  1.
<mgrwt>
<rscale>  0 0.16757363E+03</rscale>
<asrwt>0</asrwt>
<pdfrwt beam="2">  1        2 0.11735688E+00 0.17347355E+03</pdfrwt>
<pdfrwt beam="1">  1       -2 0.66896192E-02 0.17347355E+03</pdfrwt>
<totfact> 0.46278917E+03</totfact>
</mgrwt>
</event>
<event>
 8    1  0.1154424E-005  0.2275723E+03  0.7546771E-02  0.1131315E+00
          1   -1    0    0  501    0  0.00000000000E+00  0.00000000000E+00  0.16374772121E+03  0.16374772121E+03  0.00000000000E+00 0. -1.
         -1   -1    0    0    0  501 -0.00000000000E+00 -0.00000000000E+00 -0.29573394185E+03  0.29573394185E+03  0.00000000000E+00 0.  1.
         23    2    1    2    0    0 -0.14119698354E+03 -0.12738735369E+03 -0.53658446637E+02  0.23381267239E+03  0.12500004334E+03 0.  0.
         23    2    1    2    0    0  0.14119698354E+03  0.12738735369E+03 -0.78327774002E+02  0.22566899066E+03  0.92882329449E+02 0.  0.
          5    1    3    3  502    0 -0.23338622555E+02  0.11618405279E+01  0.31639910906E+02  0.39613320213E+02  0.47000000000E+01 0.  1.
         -5    1    3    3    0  502 -0.11785836099E+03 -0.12854919421E+03 -0.85298357544E+02  0.19419935218E+03  0.47000000000E+01 0.  1.
        -11    1    4    4    0    0  0.29200390365E+02  0.87443351579E+02 -0.26220575466E+02  0.95846341143E+02  0.00000000000E+00 0. -1.
         11    1    4    4    0    0  0.11199659318E+03  0.39944002108E+02 -0.52107198536E+02  0.12982264951E+03  0.00000000000E+00 0.  1.
<mgrwt>
<rscale>  0 0.22348000E+03</rscale>
<asrwt>0</asrwt>
<pdfrwt beam="1">  1        1 0.25191957E-01 0.22757227E+03</pdfrwt>
<pdfrwt beam="2">  1       -1 0.45497530E-01 0.22757227E+03</pdfrwt>
<totfact> 0.92564693E+02</totfact>
</mgrwt>
</event>
<event>
 8    1  0.1154424E-005  0.1301200E+03  0.7546771E-02  0.1242583E+00
          2   -1    0    0  501    0  0.00000000000E+00  0.00000000000E+00  0.14320406066E+02  0.14320406066E+02  0.00000000000E+00 0. -1.
         -2   -1    0    0    0  501 -0.00000000000E+00 -0.00000000000E+00 -0.96502933885E+03  0.96502933885E+03  0.00000000000E+00 0.  1.
         23    2    1    2    0    0 -0.35461184814E+02  0.67831837962E+01 -0.68211394991E+03  0.69441390070E+03  0.12501086997E+03 0.  0.
         23    2    1    2    0    0  0.35461184814E+02 -0.67831837962E+01 -0.26859498287E+03  0.28493584421E+03  0.87986722203E+02 0.  0.
          5    1    3    3  502    0  0.39033769035E+02 -0.19209951490E+02 -0.14325246848E+03  0.14978657178E+03  0.47000000000E+01 0.  1.
         -5    1    3    3    0  502 -0.74494953849E+02  0.25993135286E+02 -0.53886148144E+03  0.54462732892E+03  0.47000000000E+01 0.  1.
        -11    1    4    4    0    0 -0.15493298634E+02  0.20455263760E+02 -0.30154153557E+02  0.39594609416E+02  0.00000000000E+00 0. -1.
         11    1    4    4    0    0  0.50954483448E+02 -0.27238447556E+02 -0.23844082931E+03  0.24534123480E+03  0.00000000000E+00 0.  1.
<mgrwt>
<rscale>  0 0.12031236E+03</rscale>
<asrwt>0</asrwt>
<pdfrwt beam="1">  1        2 0.22031385E-02 0.13012004E+03</pdfrwt>
<pdfrwt beam="2">  1       -2 0.14846611E+00 0.13012004E+03</pdfrwt>
<totfact> 0.14954485E+03</totfact>
</mgrwt>
</event>
<event>
 8    1  0.1154424E-005  0.1822967E+03  0.7546771E-02  0.1170506E+00
          2   -1    0    0  501    0  0.00000000000E+00  0.00000000000E+00  0.57967551147E+03  0.57967551147E+03  0.00000000000E+00 0. -1.
         -2   -1    0    0    0  501 -0.00000000000E+00 -0.00000000000E+00 -0.51904626320E+02  0.51904626320E+02  0.00000000000E+00 0.  1.
         23    2    1    2    0    0 -0.13157562788E+03 -0.17254957678E+02  0.31013285828E+03  0.35974222920E+03  0.12498880856E+03 0.  0.
         23    2    1    2    0    0  0.13157562788E+03  0.17254957678E+02  0.21763802686E+03  0.27183790859E+03  0.94443943118E+02 0.  0.
          5    1    3    3  502    0 -0.49996949588E+02 -0.50193630751E+02  0.22978160210E+03  0.24050108150E+03  0.47000000000E+01 0. -1.
         -5    1    3    3    0  502 -0.81578678291E+02  0.32938673072E+02  0.80351256180E+02  0.11924114770E+03  0.47000000000E+01 0. -1.
        -11    1    4    4    0    0  0.83365519844E+02 -0.29147396443E+02  0.81632720811E+02  0.12026338481E+03  0.00000000000E+00 0.  1.
         11    1    4    4    0    0  0.48210108035E+02  0.46402354121E+02  0.13600530605E+03  0.15157452378E+03  0.00000000000E+00 0. -1.
<mgrwt>
<rscale>  0 0.17723533E+03</rscale>
<asrwt>0</asrwt>
<pdfrwt beam="1">  1        2 0.89180843E-01 0.18229669E+03</pdfrwt>
<pdfrwt beam="2">  1       -2 0.79853275E-02 0.18229669E+03</pdfrwt>
<totfact> 0.48821607E+03</totfact>
</mgrwt>
</event>
<event>
 8    1  0.1154424E-005  0.2002751E+03  0.7546771E-02  0.1152802E+00
         -4   -1    0    0    0  501 -0.00000000000E+00  0.00000000000E+00  0.12234968562E+04  0.12234968562E+04  0.00000000000E+00 0.  1.
          4   -1    0    0  501    0  0.00000000000E+00 -0.00000000000E+00 -0.42359715976E+02  0.42359715976E+02  0.00000000000E+00 0. -1.
         23    2    1    2    0    0  0.89125687464E+02 -0.12861340593E+03  0.94357387392E+03  0.96459409024E+03  0.12500122815E+03 0.  0.
         23    2    1    2    0    0 -0.89125687464E+02  0.12861340593E+03  0.23756326631E+03  0.30126248194E+03  0.99186597750E+02 0.  0.
          5    1    3    3  502    0  0.41850799843E+02  0.18080210610E+02  0.23706781610E+03  0.24145729000E+03  0.47000000000E+01 0.  1.
         -5    1    3    3    0  502  0.47274887621E+02 -0.14669361654E+03  0.70650605782E+03  0.72313680024E+03  0.47000000000E+01 0.  1.
        -11    1    4    4    0    0 -0.54143315900E+02  0.12602205276E+03  0.22593002105E+03  0.26430556341E+03  0.00000000000E+00 0.  1.
         11    1    4    4    0    0 -0.34982371564E+02  0.25913531708E+01  0.11633245252E+02  0.36956918521E+02  0.00000000000E+00 0. -1.
<mgrwt>
<rscale>  0 0.19641198E+03</rscale>
<asrwt>0</asrwt>
<pdfrwt beam="2">  1        4 0.65168803E-02 0.20027507E+03</pdfrwt>
<pdfrwt beam="1">  1       -4 0.18823026E+00 0.20027507E+03</pdfrwt>
<totfact> 0.47580418E+01</totfact>
</mgrwt>
</event>
<event>
 8    1  0.1154424E-005  0.2041976E+03  0.7546771E-02  0.1150435E+00
          2   -1    0    0  501    0  0.00000000000E+00  0.00000000000E+00  0.66535684356E+02  0.66535684356E+02  0.00000000000E+00 0. -1.
         -2   -1    0    0    0  501 -0.00000000000E+00 -0.00000000000E+00 -0.56924667716E+03  0.56924667716E+03  0.00000000000E+00 0.  1.
         23    2    1    2    0    0  0.16144514222E+03 -0.26580942895E+01 -0.25397521891E+03  0.32588353451E+03  0.12500026734E+03 0.  0.
         23    2    1    2    0    0 -0.16144514222E+03  0.26580942895E+01 -0.24873577389E+03  0.30989882700E+03  0.89978877258E+02 0.  0.
          5    1    3    3  502    0  0.77499274154E+02 -0.63592860787E+02 -0.12457367296E+03  0.15997149569E+03  0.47000000000E+01 0.  1.
         -5    1    3    3    0  502  0.83945868063E+02  0.60934766498E+02 -0.12940154595E+03  0.16591203882E+03  0.47000000000E+01 0.  1.
        -11    1    4    4    0    0 -0.65704698127E+02  0.40420767835E+02 -0.14215694401E+03  0.16173911882E+03  0.00000000000E+00 0.  1.
         11    1    4    4    0    0 -0.95740444090E+02 -0.37762673545E+02 -0.10657882989E+03  0.14815970818E+03  0.00000000000E+00 0. -1.
<mgrwt>
<rscale>  0 0.19917743E+03</rscale>
<asrwt>0</asrwt>
<pdfrwt beam="1">  1        2 0.10236258E-01 0.20419762E+03</pdfrwt>
<pdfrwt beam="2">  1       -2 0.87576418E-01 0.20419762E+03</pdfrwt>
<totfact> 0.71875756E+02</totfact>
</mgrwt>
</event>
<event>
 7    1  0.1154424E-005  0.1509499E+03  0.7546771E-02  0.1218274E+00
         -3   -1    0    0    0  501 -0.00000000000E+00  0.00000000000E+00  0.89074426304E+02  0.89074426304E+02  0.00000000000E+00 0.  1.
          3   -1    0    0  501    0  0.00000000000E+00 -0.00000000000E+00 -0.19050989897E+03  0.19050989897E+03  0.00000000000E+00 0. -1.
         23    2    1    2    0    0 -0.39263869635E+02 -0.71309775174E+01 -0.76959891216E+02  0.12666303733E+03  0.92348242375E+02 0.  0.
          5    1    1    2  502    0  0.63407852984E+02  0.60532407765E+02  0.33988494045E+01  0.87854256512E+02  0.47000000000E+01 0. -1.
         -5    1    1    2    0  502 -0.24143983349E+02 -0.53401430248E+02 -0.27874430854E+02  0.65067031436E+02  0.47000000000E+01 0.  1.
        -11    1    3    3    0    0 -0.45002893262E+02  0.18140637595E+02 -0.33643448289E+01  0.48638070998E+02  0.00000000000E+00 0.  1.
         11    1    3    3    0    0  0.57390236265E+01 -0.25271615112E+02 -0.73595546387E+02  0.78024966329E+02  0.00000000000E+00 0. -1.
<mgrwt>
<rscale>  0 0.13638792E+03</rscale>
<asrwt>0</asrwt>
<pdfrwt beam="2">  1        3 0.29309215E-01 0.15094988E+03</pdfrwt>
<pdfrwt beam="1">  1       -3 0.13703758E-01 0.15094988E+03</pdfrwt>
<totfact> 0.11386906E+03</totfact>
</mgrwt>
</event>
<event>
 8    1  0.1154424E-005  0.1861430E+03  0.7546771E-02  0.1167290E+00
         -4   -1    0    0    0  501 -0.00000000000E+00  0.00000000000E+00  0.72533075180E+02  0.72533075180E+02  0.00000000000E+00 0.  1.
          4   -1    0    0  501    0  0.00000000000E+00 -0.00000000000E+00 -0.46775746135E+03  0.46775746135E+03  0.00000000000E+00 0. -1.
         23    2    1    2    0    0  0.63584259990E+02 -0.12239459701E+03 -0.29083906332E+03  0.34530647458E+03  0.12500322051E+03 0.  0.
         23    2    1    2    0    0 -0.63584259990E+02  0.12239459701E+03 -0.10438532285E+03  0.19498406195E+03  0.89994962604E+02 0.  0.
          5    1    3    3  502    0  0.37352850728E+02 -0.14585690635E+03 -0.23545193635E+03  0.27951596899E+03  0.47000000000E+01 0.  1.
         -5    1    3    3    0  502  0.26231409262E+02  0.23462309345E+02 -0.55387126968E+02  0.65790505588E+02  0.47000000000E+01 0.  1.
        -11    1    4    4    0    0 -0.18871480929E+02  0.31823908223E+00 -0.51111534428E+02  0.54485071535E+02  0.00000000000E+00 0. -1.
         11    1    4    4    0    0 -0.44712779061E+02  0.12207635792E+03 -0.53273788419E+02  0.14049899042E+03  0.00000000000E+00 0.  1.
<mgrwt>
<rscale>  0 0.18053073E+03</rscale>
<asrwt>0</asrwt>
<pdfrwt beam="2">  1        4 0.71962685E-01 0.18614296E+03</pdfrwt>
<pdfrwt beam="1">  1       -4 0.11158935E-01 0.18614296E+03</pdfrwt>
<totfact> 0.19880052E+02</totfact>
</mgrwt>
</event>
<event>
 8    1  0.1154424E-005  0.1779907E+03  0.7546771E-02  0.1175423E+00
         -1   -1    0    0    0  501 -0.00000000000E+00  0.00000000000E+00  0.51251265127E+02  0.51251265127E+02  0.00000000000E+00 0.  1.
          1   -1    0    0  501    0  0.00000000000E+00 -0.00000000000E+00 -0.55455486245E+03  0.55455486245E+03  0.00000000000E+00 0. -1.
         23    2    1    2    0    0  0.95442170988E+02 -0.83349381078E+02 -0.22927489000E+03  0.29025446554E+03  0.12499740897E+03 0.  0.
         23    2    1    2    0    0 -0.95442170988E+02  0.83349381078E+02 -0.27402870732E+03  0.31555166204E+03  0.91786663803E+02 0.  0.
          5    1    3    3  502    0  0.21326325369E+02 -0.84427411130E+02 -0.61310610403E+02  0.10660150492E+03  0.47000000000E+01 0. -1.
         -5    1    3    3    0  502  0.74115845619E+02  0.10780300524E+01 -0.16796427960E+03  0.18365296061E+03  0.47000000000E+01 0. -1.
        -11    1    4    4    0    0 -0.14510630975E+02  0.24650015666E+01  0.36997662604E+01  0.15176393326E+02  0.00000000000E+00 0.  1.
         11    1    4    4    0    0 -0.80931540014E+02  0.80884379511E+02 -0.27772847358E+03  0.30037526871E+03  0.00000000000E+00 0. -1.
<mgrwt>
<rscale>  0 0.17234625E+03</rscale>
<asrwt>0</asrwt>
<pdfrwt beam="2">  1        1 0.85316134E-01 0.17799067E+03</pdfrwt>
<pdfrwt beam="1">  1       -1 0.78848099E-02 0.17799067E+03</pdfrwt>
<totfact> 0.33958735E+03</totfact>
</mgrwt>
</event>
<event>
 8    1  0.1154424E-005  0.1237986E+03  0.7546771E-02  0.1252284E+00
          1   -1    0    0  501    0  0.00000000000E+00  0.00000000000E+00  0.66967247277E+02  0.66967247277E+02  0.00000000000E+00 0. -1.
         -1   -1    0    0    0  501 -0.00000000000E+00 -0.00000000000E+00 -0.17372134380E+03  0.17372134380E+03  0.00000000000E+00 0.  1.
         23    2    1    2    0    0  0.60259677536E+01  0.42193613006E+01 -0.49926311112E+02  0.13348679936E+03  0.12357982751E+03 0.  0.
         23    2    1    2    0    0 -0.60259677536E+01 -0.42193613006E+01 -0.56827785410E+02  0.10720179171E+03  0.90601940678E+02 0.  0.
          5    1    3    3  502    0  0.29167218679E+02  0.55680535703E+02 -0.43317010995E+02  0.76482038043E+02  0.47000000000E+01 0. -1.
         -5    1    3    3    0  502 -0.23141250926E+02 -0.51461174403E+02 -0.66093001171E+01  0.57004761322E+02  0.47000000000E+01 0.  1.
        -11    1    4    4    0    0  0.17362835576E+02 -0.27184771873E+02 -0.65745035640E+02  0.73231752624E+02  0.00000000000E+00 0.  1.
         11    1    4    4    0    0 -0.23388803330E+02  0.22965410573E+02  0.89172502302E+01  0.33970039088E+02  0.00000000000E+00 0. -1.
<mgrwt>
<rscale>  0 0.11459821E+03</rscale>
<asrwt>0</asrwt>
<pdfrwt beam="1">  1        1 0.10302654E-01 0.12379858E+03</pdfrwt>
<pdfrwt beam="2">  1       -1 0.26726360E-01 0.12379858E+03</pdfrwt>
<totfact> 0.72027922E+03</totfact>
</mgrwt>
</event>
<event>
 8    1  0.1154424E-005  0.1636894E+03  0.7546771E-02  0.1191628E+00
         -1   -1    0    0    0  501 -0.00000000000E+00  0.00000000000E+00  0.16246503528E+03  0.16246503528E+03  0.00000000000E+00 0.  1.
          1   -1    0    0  501    0  0.00000000000E+00 -0.00000000000E+00 -0.19311788153E+03  0.19311788153E+03  0.00000000000E+00 0. -1.
         23    2    1    2    0    0  0.10534258420E+03  0.85816605494E+01  0.75091443679E+02  0.18009152703E+03  0.12499411286E+03 0.  0.
         23    2    1    2    0    0 -0.10534258420E+03 -0.85816605494E+01 -0.10574428993E+03  0.17549138978E+03  0.91894875216E+02 0.  0.
          5    1    3    3  502    0  0.87503007637E+02 -0.17091228498E+01 -0.13799068557E+02  0.88725428934E+02  0.47000000000E+01 0.  1.
         -5    1    3    3    0  502  0.17839576563E+02  0.10290783399E+02  0.88890512236E+02  0.91366098092E+02  0.47000000000E+01 0.  1.
        -11    1    4    4    0    0  0.85223035502E+01 -0.23571329757E+02 -0.15971164374E+02  0.29720621390E+02  0.00000000000E+00 0.  1.
         11    1    4    4    0    0 -0.11386488775E+03  0.14989669208E+02 -0.89773125560E+02  0.14577076839E+03  0.00000000000E+00 0. -1.
<mgrwt>
<rscale>  0 0.15743093E+03</rscale>
<asrwt>0</asrwt>
<pdfrwt beam="2">  1        1 0.29710443E-01 0.16368944E+03</pdfrwt>
<pdfrwt beam="1">  1       -1 0.24994621E-01 0.16368944E+03</pdfrwt>
<totfact> 0.20969760E+03</totfact>
</mgrwt>
</event>
<event>
 8    1  0.1154424E-005  0.1423371E+03  0.7546771E-02  0.1221995E+00
          1   -1    0    0  501    0  0.00000000000E+00  0.00000000000E+00  0.14624398293E+03  0.14624398293E+03  0.00000000000E+00 0. -1.
         -1   -1    0    0    0  501 -0.00000000000E+00 -0.00000000000E+00 -0.12577543842E+03  0.12577543842E+03  0.00000000000E+00 0.  1.
         23    2    1    2    0    0  0.51543772970E+02 -0.44452735881E+02 -0.36971732885E+02  0.14706038937E+03  0.12500817105E+03 0.  0.
         23    2    1    2    0    0 -0.51543772970E+02  0.44452735881E+02  0.57440277396E+02  0.12495903199E+03  0.87650259259E+02 0.  0.
          5    1    3    3  502    0  0.52982166396E+02 -0.74713125516E+02  0.86230702861E+01  0.92117362216E+02  0.47000000000E+01 0. -1.
         -5    1    3    3    0  502 -0.14383934265E+01  0.30260389635E+02 -0.45594803172E+02  0.54943027153E+02  0.47000000000E+01 0. -1.
        -11    1    4    4    0    0  0.14327656228E+02  0.42743045724E+02  0.23529167299E+02  0.50851464133E+02  0.00000000000E+00 0. -1.
         11    1    4    4    0    0 -0.65871429197E+02  0.17096901572E+01  0.33911110097E+02  0.74107567852E+02  0.00000000000E+00 0.  1.
<mgrwt>
<rscale>  0 0.13375023E+03</rscale>
<asrwt>0</asrwt>
<pdfrwt beam="1">  1        1 0.22499074E-01 0.14233710E+03</pdfrwt>
<pdfrwt beam="2">  1       -1 0.19350068E-01 0.14233710E+03</pdfrwt>
<totfact> 0.44801738E+03</totfact>
</mgrwt>
</event>
<event>
 8    1  0.1154424E-005  0.1478496E+03  0.7546771E-02  0.1212424E+00
          1   -1    0    0  501    0  0.00000000000E+00  0.00000000000E+00  0.80765312959E+03  0.80765312959E+03  0.00000000000E+00 0. -1.
         -1   -1    0    0    0  501 -0.00000000000E+00 -0.00000000000E+00 -0.23384993331E+02  0.23384993331E+02  0.00000000000E+00 0.  1.
         23    2    1    2    0    0  0.49395919085E+02 -0.61756801144E+02  0.51417159148E+03  0.53500647200E+03  0.12492253713E+03 0.  0.
         23    2    1    2    0    0 -0.49395919085E+02  0.61756801144E+02  0.27009654478E+03  0.29603165092E+03  0.91808145270E+02 0.  0.
          5    1    3    3  502    0 -0.22486439628E+02 -0.24451050658E+02  0.33052588287E+02  0.47096257154E+02  0.47000000000E+01 0.  1.
         -5    1    3    3    0  502  0.71882358714E+02 -0.37305750486E+02  0.48111900319E+03  0.48791021484E+03  0.47000000000E+01 0.  1.
        -11    1    4    4    0    0 -0.57505276263E+02  0.35940157476E+02  0.25732228897E+03  0.26610770774E+03  0.00000000000E+00 0. -1.
         11    1    4    4    0    0  0.81093571778E+01  0.25816643668E+02  0.12774255803E+02  0.29923943180E+02  0.00000000000E+00 0.  1.
<mgrwt>
<rscale>  0 0.14067452E+03</rscale>
<asrwt>0</asrwt>
<pdfrwt beam="1">  1        1 0.12425431E+00 0.14784958E+03</pdfrwt>
<pdfrwt beam="2">  1       -1 0.35976919E-02 0.14784958E+03</pdfrwt>
<totfact> 0.63571332E+03</totfact>
</mgrwt>
</event>
<event>
 8    1  0.1154424E-005  0.1254186E+03  0.7546771E-02  0.1251330E+00
         -1   -1    0    0    0  501 -0.00000000000E+00  0.00000000000E+00  0.24167084549E+03  0.24167084549E+03  0.00000000000E+00 0.  1.
          1   -1    0    0  501    0  0.00000000000E+00 -0.00000000000E+00 -0.52031379541E+02  0.52031379541E+02  0.00000000000E+00 0. -1.
         23    2    1    2    0    0 -0.10207438739E+02 -0.26245672989E+00  0.15177653166E+03  0.19689066041E+03  0.12500222361E+03 0.  0.
         23    2    1    2    0    0  0.10207438739E+02  0.26245672989E+00  0.37862934294E+02  0.96811564618E+02  0.88513369393E+02 0.  0.
          5    1    3    3  502    0  0.42608106380E+02  0.98660944907E+01  0.98951022724E+01  0.45086512382E+02  0.47000000000E+01 0. -1.
         -5    1    3    3    0  502 -0.52815545118E+02 -0.10128551221E+02  0.14188142938E+03  0.15180414803E+03  0.47000000000E+01 0. -1.
        -11    1    4    4    0    0 -0.34173662513E+02  0.73524561440E+01 -0.42593323566E+01  0.35214197890E+02  0.00000000000E+00 0. -1.
         11    1    4    4    0    0  0.44381101252E+02 -0.70899994141E+01  0.42122266650E+02  0.61597366728E+02  0.00000000000E+00 0.  1.
<mgrwt>
<rscale>  0 0.11514399E+03</rscale>
<asrwt>0</asrwt>
<pdfrwt beam="2">  1        1 0.80048278E-02 0.12541857E+03</pdfrwt>
<pdfrwt beam="1">  1       -1 0.37180129E-01 0.12541857E+03</pdfrwt>
<totfact> 0.57753330E+03</totfact>
</mgrwt>
</event>
<event>
 8    1  0.1154424E-005  0.1730353E+03  0.7546771E-02  0.1179666E+00
          1   -1    0    0  501    0  0.00000000000E+00  0.00000000000E+00  0.15597589004E+03  0.15597589004E+03  0.00000000000E+00 0. -1.
         -1   -1    0    0    0  501 -0.00000000000E+00 -0.00000000000E+00 -0.22080774615E+03  0.22080774615E+03  0.00000000000E+00 0.  1.
         23    2    1    2    0    0  0.73790399751E+02 -0.94168908723E+02 -0.12210845963E+03  0.21178219438E+03  0.12501366117E+03 0.  0.
         23    2    1    2    0    0 -0.73790399751E+02  0.94168908723E+02  0.57276603523E+02  0.16500144181E+03  0.98143058971E+02 0.  0.
          5    1    3    3  502    0 -0.33459850691E+02 -0.64914121498E+01 -0.25625753590E+02  0.42900690985E+02  0.47000000000E+01 0.  1.
         -5    1    3    3    0  502  0.10725025044E+03 -0.87677496573E+02 -0.96482706043E+02  0.16888150340E+03  0.47000000000E+01 0.  1.
        -11    1    4    4    0    0  0.84092240339E+01  0.61805347438E+02  0.55278841239E+01  0.62619274379E+02  0.00000000000E+00 0.  1.
         11    1    4    4    0    0 -0.82199623785E+02  0.32363561284E+02  0.51748719399E+02  0.10238216744E+03  0.00000000000E+00 0. -1.
<mgrwt>
<rscale>  0 0.16826842E+03</rscale>
<asrwt>0</asrwt>
<pdfrwt beam="1">  1        1 0.23996291E-01 0.17303532E+03</pdfrwt>
<pdfrwt beam="2">  1       -1 0.33970422E-01 0.17303532E+03</pdfrwt>
<totfact> 0.16399164E+03</totfact>
</mgrwt>
</event>
<event>
 8    1  0.1154424E-005  0.1620251E+03  0.7546771E-02  0.1193731E+00
         -3   -1    0    0    0  501 -0.00000000000E+00  0.00000000000E+00  0.31085523080E+03  0.31085523080E+03  0.00000000000E+00 0.  1.
          3   -1    0    0  501    0  0.00000000000E+00 -0.00000000000E+00 -0.73864892798E+02  0.73864892798E+02  0.00000000000E+00 0. -1.
         23    2    1    2    0    0  0.46249000766E+02  0.92132782695E+02  0.15539596022E+03  0.22449949978E+03  0.12499880490E+03 0.  0.
         23    2    1    2    0    0 -0.46249000766E+02 -0.92132782695E+02  0.81594377782E+02  0.16022062383E+03  0.91572845834E+02 0.  0.
          5    1    3    3  502    0  0.54325239107E+02 -0.72539338066E+01  0.88941024049E+02  0.10457746850E+03  0.47000000000E+01 0. -1.
         -5    1    3    3    0  502 -0.80762383411E+01  0.99386716502E+02  0.66454936175E+02  0.11992203127E+03  0.47000000000E+01 0. -1.
        -11    1    4    4    0    0 -0.46695081281E+02 -0.44491042642E+02  0.91117278121E+02  0.11163441165E+03  0.00000000000E+00 0.  1.
         11    1    4    4    0    0  0.44608051588E+00 -0.47641740054E+02 -0.95229003382E+01  0.48586212180E+02  0.00000000000E+00 0. -1.
<mgrwt>
<rscale>  0 0.15562093E+03</rscale>
<asrwt>0</asrwt>
<pdfrwt beam="2">  1        3 0.11363830E-01 0.16202506E+03</pdfrwt>
<pdfrwt beam="1">  1       -3 0.47823881E-01 0.16202506E+03</pdfrwt>
<totfact> 0.61787037E+02</totfact>
</mgrwt>
</event>
<event>
 8    1  0.1154424E-005  0.1573057E+03  0.7546771E-02  0.1205336E+00
          2   -1    0    0  501    0  0.00000000000E+00  0.00000000000E+00  0.27049642843E+03  0.27049642843E+03  0.00000000000E+00 0.  1.
         -2   -1    0    0    0  501 -0.00000000000E+00 -0.00000000000E+00 -0.80396951861E+02  0.80396951861E+02  0.00000000000E+00 0. -1.
         23    2    1    2    0    0  0.53130182510E+02 -0.79361467196E+02  0.43366474063E+02  0.16317393104E+03  0.12499608765E+03 0.  0.
         23    2    1    2    0    0 -0.53130182510E+02  0.79361467196E+02  0.14673300251E+03  0.18771944926E+03  0.67727090844E+02 0.  0.
          5    1    3    3  502    0  0.62723644175E+02 -0.57885663950E+02 -0.26346726051E+02  0.89449681962E+02  0.47000000000E+01 0. -1.
         -5    1    3    3    0  502 -0.95934616654E+01 -0.21475803246E+02  0.69713200114E+02  0.73724249077E+02  0.47000000000E+01 0. -1.
        -11    1    4    4    0    0  0.93811072003E-01  0.46905867410E+02  0.30876733680E+02  0.56156405518E+02  0.00000000000E+00 0. -1.
         11    1    4    4    0    0 -0.53223993582E+02  0.32455599786E+02  0.11585626883E+03  0.13156304374E+03  0.00000000000E+00 0.  1.
<mgrwt>
<rscale>  0 0.14611007E+03</rscale>
<asrwt>0</asrwt>
<pdfrwt beam="1">  1        2 0.41614835E-01 0.15730569E+03</pdfrwt>
<pdfrwt beam="2">  1       -2 0.12368762E-01 0.15730569E+03</pdfrwt>
<totfact> 0.55554053E+03</totfact>
</mgrwt>
</event>
<event>
 8    1  0.1154424E-005  0.1797601E+03  0.7546771E-02  0.1172930E+00
          1   -1    0    0  501    0  0.00000000000E+00  0.00000000000E+00  0.52858160449E+03  0.52858160449E+03  0.00000000000E+00 0. -1.
         -1   -1    0    0    0  501 -0.00000000000E+00 -0.00000000000E+00 -0.60491032051E+02  0.60491032051E+02  0.00000000000E+00 0.  1.
         23    2    1    2    0    0  0.28409976569E+02 -0.12602926354E+03  0.15595821005E+03  0.23798455928E+03  0.12499274034E+03 0.  0.
         23    2    1    2    0    0 -0.28409976569E+02  0.12602926354E+03  0.31213236239E+03  0.35108807726E+03  0.95633280330E+02 0.  0.
          5    1    3    3  502    0 -0.22904141918E+02 -0.12254006582E+03  0.88170714081E+02  0.15276397570E+03  0.47000000000E+01 0.  1.
         -5    1    3    3    0  502  0.51314118488E+02 -0.34891977180E+01  0.67787495966E+02  0.85220583583E+02  0.47000000000E+01 0.  1.
        -11    1    4    4    0    0  0.17171283097E+02  0.77157769248E+01  0.60323088805E+01  0.19768027904E+02  0.00000000000E+00 0.  1.
         11    1    4    4    0    0 -0.45581259667E+02  0.11831348662E+03  0.30610005351E+03  0.33132004936E+03  0.00000000000E+00 0. -1.
<mgrwt>
<rscale>  0 0.17480288E+03</rscale>
<asrwt>0</asrwt>
<pdfrwt beam="1">  1        1 0.81320244E-01 0.17976008E+03</pdfrwt>
<pdfrwt beam="2">  1       -1 0.93063130E-02 0.17976008E+03</pdfrwt>
<totfact> 0.28137271E+03</totfact>
</mgrwt>
</event>
<event>
 8    1  0.1154424E-005  0.1575542E+03  0.7546771E-02  0.1199658E+00
          1   -1    0    0  501    0  0.00000000000E+00  0.00000000000E+00  0.51592324622E+03  0.51592324622E+03  0.00000000000E+00 0. -1.
         -1   -1    0    0    0  501 -0.00000000000E+00 -0.00000000000E+00 -0.40958567229E+02  0.40958567229E+02  0.00000000000E+00 0.  1.
         23    2    1    2    0    0  0.20043285247E+02 -0.93793879263E+02  0.28588697655E+03  0.32642713754E+03  0.12499715074E+03 0.  0.
         23    2    1    2    0    0 -0.20043285247E+02  0.93793879263E+02  0.18907770245E+03  0.23045467591E+03  0.90332469336E+02 0.  0.
          5    1    3    3  502    0  0.67916898239E+01 -0.93369761270E+02  0.29508853769E+03  0.30961811066E+03  0.47000000000E+01 0. -1.
         -5    1    3    3    0  502  0.13251595423E+02 -0.42411799244E+00 -0.92015611430E+01  0.16809026884E+02  0.47000000000E+01 0. -1.
        -11    1    4    4    0    0 -0.80637607239E+01  0.63431268519E+02  0.34872747625E+02  0.72833087192E+02  0.00000000000E+00 0.  1.
         11    1    4    4    0    0 -0.11979524523E+02  0.30362610743E+02  0.15420495482E+03  0.15762158872E+03  0.00000000000E+00 0. -1.
<mgrwt>
<rscale>  0 0.15066519E+03</rscale>
<asrwt>0</asrwt>
<pdfrwt beam="1">  1        1 0.79372802E-01 0.15755416E+03</pdfrwt>
<pdfrwt beam="2">  1       -1 0.63013184E-02 0.15755416E+03</pdfrwt>
<totfact> 0.52157963E+03</totfact>
</mgrwt>
</event>
<event>
 8    1  0.1154424E-005  0.2170401E+03  0.7546771E-02  0.1139368E+00
          1   -1    0    0  501    0  0.00000000000E+00  0.00000000000E+00  0.41683242154E+03  0.41683242154E+03  0.00000000000E+00 0. -1.
         -1   -1    0    0    0  501 -0.00000000000E+00 -0.00000000000E+00 -0.10616581383E+03  0.10616581383E+03  0.00000000000E+00 0.  1.
         23    2    1    2    0    0 -0.15914441955E+03  0.78454131916E+02  0.12960644526E+03  0.25279283448E+03  0.12499755766E+03 0.  0.
         23    2    1    2    0    0  0.15914441955E+03 -0.78454131916E+02  0.18106016246E+03  0.27020540089E+03  0.93521009160E+02 0.  0.
          5    1    3    3  502    0 -0.25341952336E+02  0.79042582997E+02  0.51103208550E+02  0.97588792385E+02  0.47000000000E+01 0. -1.
         -5    1    3    3    0  502 -0.13380246721E+03 -0.58845108180E+00  0.78503236711E+02  0.15520404209E+03  0.47000000000E+01 0. -1.
        -11    1    4    4    0    0  0.33088545658E+02 -0.18229404459E+01  0.92233528626E+02  0.98006115974E+02  0.00000000000E+00 0. -1.
         11    1    4    4    0    0  0.12605587389E+03 -0.76631191470E+02  0.88826633830E+02  0.17219928492E+03  0.00000000000E+00 0.  1.
<mgrwt>
<rscale>  0 0.21279980E+03</rscale>
<asrwt>0</asrwt>
<pdfrwt beam="1">  1        1 0.64128064E-01 0.21704006E+03</pdfrwt>
<pdfrwt beam="2">  1       -1 0.16333202E-01 0.21704006E+03</pdfrwt>
<totfact> 0.16023270E+03</totfact>
</mgrwt>
</event>
<event>
 8    1  0.1154424E-005  0.1305166E+03  0.7546771E-02  0.1240334E+00
         -1   -1    0    0    0  501 -0.00000000000E+00  0.00000000000E+00  0.16679686016E+02  0.16679686016E+02  0.00000000000E+00 0.  1.
          1   -1    0    0  501    0  0.00000000000E+00 -0.00000000000E+00 -0.79142991322E+03  0.79142991322E+03  0.00000000000E+00 0. -1.
         23    2    1    2    0    0  0.27627741884E+02 -0.25450110006E+02 -0.41115780565E+03  0.43137609491E+03  0.12499437544E+03 0.  0.
         23    2    1    2    0    0 -0.27627741884E+02  0.25450110006E+02 -0.36359242156E+03  0.37673350433E+03  0.91201337982E+02 0.  0.
          5    1    3    3  502    0 -0.22291784943E+02 -0.50309907062E+02 -0.31753032585E+03  0.32229739102E+03  0.47000000000E+01 0. -1.
         -5    1    3    3    0  502  0.49919526828E+02  0.24859797055E+02 -0.93627479801E+02  0.10907870389E+03  0.47000000000E+01 0. -1.
        -11    1    4    4    0    0 -0.58532565370E+02  0.27615665100E+02 -0.28498000376E+03  0.29223669981E+03  0.00000000000E+00 0. -1.
         11    1    4    4    0    0  0.30904823486E+02 -0.21655550937E+01 -0.78612417797E+02  0.84496804528E+02  0.00000000000E+00 0.  1.
<mgrwt>
<rscale>  0 0.12169036E+03</rscale>
<asrwt>0</asrwt>
<pdfrwt beam="2">  1        1 0.12175844E+00 0.13051664E+03</pdfrwt>
<pdfrwt beam="1">  1       -1 0.25661057E-02 0.13051664E+03</pdfrwt>
<totfact> 0.10651039E+04</totfact>
</mgrwt>
</event>
<event>
 8    1  0.1154424E-005  0.1416521E+03  0.7546771E-02  0.1221837E+00
          2   -1    0    0  501    0  0.00000000000E+00  0.00000000000E+00  0.19634280387E+03  0.19634280387E+03  0.00000000000E+00 0. -1.
         -2   -1    0    0    0  501 -0.00000000000E+00 -0.00000000000E+00 -0.87794657170E+02  0.87794657170E+02  0.00000000000E+00 0.  1.
         23    2    1    2    0    0 -0.18666802851E+02 -0.63966734625E+02  0.25498796676E+02  0.14392880181E+03  0.12500047477E+03 0.  0.
         23    2    1    2    0    0  0.18666802851E+02  0.63966734625E+02  0.83049350026E+02  0.14020865923E+03  0.91219958975E+02 0.  0.
          5    1    3    3  502    0 -0.28679822054E+02 -0.84133410625E+02  0.56423484476E+02  0.10538815198E+03  0.47000000000E+01 0. -1.
         -5    1    3    3    0  502  0.10013019203E+02  0.20166676000E+02 -0.30924687800E+02  0.38540649839E+02  0.47000000000E+01 0. -1.
        -11    1    4    4    0    0  0.35016705620E+02  0.29361035648E+02  0.90346206429E+02  0.10124562757E+03  0.00000000000E+00 0. -1.
         11    1    4    4    0    0 -0.16349902769E+02  0.34605698977E+02 -0.72968564031E+01  0.38963031653E+02  0.00000000000E+00 0.  1.
<mgrwt>
<rscale>  0 0.13386097E+03</rscale>
<asrwt>0</asrwt>
<pdfrwt beam="1">  1        2 0.30206585E-01 0.14165208E+03</pdfrwt>
<pdfrwt beam="2">  1       -2 0.13506870E-01 0.14165208E+03</pdfrwt>
<totfact> 0.67554784E+03</totfact>
</mgrwt>
</event>
<event>
 8    1  0.1154424E-005  0.1647109E+03  0.7546771E-02  0.1189808E+00
         -2   -1    0    0    0  501 -0.00000000000E+00  0.00000000000E+00  0.70498404497E+02  0.70498404497E+02  0.00000000000E+00 0.  1.
          2   -1    0    0  501    0  0.00000000000E+00 -0.00000000000E+00 -0.34510841455E+03  0.34510841455E+03  0.00000000000E+00 0. -1.
         23    2    1    2    0    0 -0.23612807787E-01 -0.10726376863E+03 -0.11299361437E+03  0.19974293573E+03  0.12499666743E+03 0.  0.
         23    2    1    2    0    0  0.23612807787E-01  0.10726376863E+03 -0.16161639568E+03  0.21586388331E+03  0.94719798062E+02 0.  0.
          5    1    3    3  502    0  0.12092483542E+02 -0.25803368140E+02 -0.11363717384E+03  0.11724990083E+03  0.47000000000E+01 0. -1.
         -5    1    3    3    0  502 -0.12116096349E+02 -0.81460400495E+02  0.64355947245E+00  0.82493034908E+02  0.47000000000E+01 0. -1.
        -11    1    4    4    0    0 -0.21639250656E+02  0.33004273301E+02 -0.12345202753E+03  0.12960687607E+03  0.00000000000E+00 0. -1.
         11    1    4    4    0    0  0.21662863464E+02  0.74259495334E+02 -0.38164368158E+02  0.86257007237E+02  0.00000000000E+00 0.  1.
<mgrwt>
<rscale>  0 0.15901973E+03</rscale>
<asrwt>0</asrwt>
<pdfrwt beam="2">  1        2 0.53093603E-01 0.16471091E+03</pdfrwt>
<pdfrwt beam="1">  1       -2 0.10845908E-01 0.16471091E+03</pdfrwt>
<totfact> 0.52993497E+03</totfact>
</mgrwt>
</event>
<event>
 8    1  0.1154424E-005  0.1404790E+03  0.7546771E-02  0.1223549E+00
         -1   -1    0    0    0  501 -0.00000000000E+00  0.00000000000E+00  0.19067055815E+02  0.19067055815E+02  0.00000000000E+00 0.  1.
          1   -1    0    0  501    0  0.00000000000E+00 -0.00000000000E+00 -0.83534687771E+03  0.83534687771E+03  0.00000000000E+00 0. -1.
         23    2    1    2    0    0  0.47722653979E+02  0.42801596328E+02 -0.47068019447E+03  0.49119668701E+03  0.12499964603E+03 0.  0.
         23    2    1    2    0    0 -0.47722653979E+02 -0.42801596328E+02 -0.34559962743E+03  0.36321724652E+03  0.91532711865E+02 0.  0.
          5    1    3    3  502    0 -0.11053760024E+02  0.63040612926E+02 -0.13136764898E+03  0.14620483470E+03  0.47000000000E+01 0. -1.
         -5    1    3    3    0  502  0.58776414003E+02 -0.20239016598E+02 -0.33931254549E+03  0.34499185231E+03  0.47000000000E+01 0. -1.
        -11    1    4    4    0    0  0.18306837204E+02 -0.25700014460E+02 -0.44897853330E+02  0.54876664123E+02  0.00000000000E+00 0.  1.
         11    1    4    4    0    0 -0.66029491183E+02 -0.17101581868E+02 -0.30070177410E+03  0.30834058240E+03  0.00000000000E+00 0. -1.
<mgrwt>
<rscale>  0 0.13266875E+03</rscale>
<asrwt>0</asrwt>
<pdfrwt beam="2">  1        1 0.12851488E+00 0.14047897E+03</pdfrwt>
<pdfrwt beam="1">  1       -1 0.29333938E-02 0.14047897E+03</pdfrwt>
<totfact> 0.81155614E+03</totfact>
</mgrwt>
</event>
<event>
 8    1  0.1154424E-005  0.1596039E+03  0.7546771E-02  0.1197633E+00
         -1   -1    0    0    0  501 -0.00000000000E+00  0.00000000000E+00  0.48235570178E+02  0.48235570178E+02  0.00000000000E+00 0.  1.
          1   -1    0    0  501    0  0.00000000000E+00 -0.00000000000E+00 -0.83156394518E+03  0.83156394518E+03  0.00000000000E+00 0. -1.
         23    2    1    2    0    0 -0.73048405310E+02  0.67180229286E+02 -0.11065922254E+03  0.19421345753E+03  0.12499660326E+03 0.  0.
         23    2    1    2    0    0  0.73048405310E+02 -0.67180229286E+02 -0.67266915247E+03  0.68558605783E+03  0.87722296421E+02 0.  0.
          5    1    3    3  502    0 -0.10035714290E+02  0.67059886963E+02 -0.11200065426E+03  0.13101137567E+03  0.47000000000E+01 0.  1.
         -5    1    3    3    0  502 -0.63012691019E+02  0.12034232286E+00  0.13414317228E+01  0.63202081855E+02  0.47000000000E+01 0.  1.
        -11    1    4    4    0    0 -0.17012728396E+02 -0.28631268349E+02 -0.13366221307E+03  0.13774893705E+03  0.00000000000E+00 0.  1.
         11    1    4    4    0    0  0.90061133705E+02 -0.38548960937E+02 -0.53900693939E+03  0.54783712078E+03  0.00000000000E+00 0. -1.
<mgrwt>
<rscale>  0 0.15233514E+03</rscale>
<asrwt>0</asrwt>
<pdfrwt beam="2">  1        1 0.12793292E+00 0.15960390E+03</pdfrwt>
<pdfrwt beam="1">  1       -1 0.74208568E-02 0.15960390E+03</pdfrwt>
<totfact> 0.20777030E+03</totfact>
</mgrwt>
</event>
<event>
 8    1  0.1154424E-005  0.1615749E+03  0.7546771E-02  0.1194563E+00
         -2   -1    0    0    0  501 -0.00000000000E+00  0.00000000000E+00  0.68614498017E+02  0.68614498017E+02  0.00000000000E+00 0.  1.
          2   -1    0    0  501    0  0.00000000000E+00 -0.00000000000E+00 -0.33485749611E+03  0.33485749611E+03  0.00000000000E+00 0. -1.
         23    2    1    2    0    0 -0.37500147446E+02  0.95272879245E+02 -0.10737918730E+03  0.19400193707E+03  0.12499311638E+03 0.  0.
         23    2    1    2    0    0  0.37500147446E+02 -0.95272879245E+02 -0.15886381079E+03  0.20947005706E+03  0.90315069877E+02 0.  0.
          5    1    3    3  502    0 -0.20803148369E+01  0.11734109806E+03 -0.92299916117E+02  0.14938080706E+03  0.47000000000E+01 0. -1.
         -5    1    3    3    0  502 -0.35419832609E+02 -0.22068218813E+02 -0.15079271184E+02  0.44621130007E+02  0.47000000000E+01 0. -1.
        -11    1    4    4    0    0  0.43591134581E+02 -0.10533658801E+02 -0.88276682280E+02  0.99014734339E+02  0.00000000000E+00 0.  1.
         11    1    4    4    0    0 -0.60909871351E+01 -0.84739220443E+02 -0.70587128513E+02  0.11045532272E+03  0.00000000000E+00 0. -1.
<mgrwt>
<rscale>  0 0.15491242E+03</rscale>
<asrwt>0</asrwt>
<pdfrwt beam="2">  1        2 0.51516539E-01 0.16157494E+03</pdfrwt>
<pdfrwt beam="1">  1       -2 0.10556076E-01 0.16157494E+03</pdfrwt>
<totfact> 0.57073500E+03</totfact>
</mgrwt>
</event>
<event>
 8    1  0.1154424E-005  0.1545941E+03  0.7546771E-02  0.1200187E+00
         -1   -1    0    0    0  501 -0.00000000000E+00  0.00000000000E+00  0.24105782998E+03  0.24105782998E+03  0.00000000000E+00 0. -1.
          1   -1    0    0  501    0  0.00000000000E+00 -0.00000000000E+00 -0.96746988328E+02  0.96746988328E+02  0.00000000000E+00 0.  1.
         23    2    1    2    0    0 -0.87940256075E+02 -0.23252470849E+02  0.12454646336E+03  0.19852244221E+03  0.12500068994E+03 0.  0.
         23    2    1    2    0    0  0.87940256075E+02  0.23252470849E+02  0.19764378290E+02  0.13928237610E+03  0.10360880080E+03 0.  0.
          5    1    3    3  502    0 -0.65864425264E+01 -0.15537922498E+02 -0.23525783117E+02  0.29331906382E+02  0.47000000000E+01 0.  1.
         -5    1    3    3    0  502 -0.81353813549E+02 -0.77145483511E+01  0.14807224648E+03  0.16919053583E+03  0.47000000000E+01 0.  1.
        -11    1    4    4    0    0  0.51852400923E+02  0.34552873184E+01 -0.40789316874E+02  0.66063445740E+02  0.00000000000E+00 0.  1.
         11    1    4    4    0    0  0.36087855152E+02  0.19797183531E+02  0.60553695164E+02  0.73218930361E+02  0.00000000000E+00 0. -1.
<mgrwt>
<rscale>  0 0.15023270E+03</rscale>
<asrwt>0</asrwt>
<pdfrwt beam="2">  1        1 0.14884152E-01 0.15459411E+03</pdfrwt>
<pdfrwt beam="1">  1       -1 0.37085820E-01 0.15459411E+03</pdfrwt>
<totfact> 0.25898512E+03</totfact>
</mgrwt>
</event>
<event>
 8    1  0.1154424E-005  0.1297530E+03  0.7546771E-02  0.1241542E+00
          1   -1    0    0  501    0  0.00000000000E+00  0.00000000000E+00  0.87268588354E+02  0.87268588354E+02  0.00000000000E+00 0. -1.
         -1   -1    0    0    0  501 -0.00000000000E+00 -0.00000000000E+00 -0.19706744263E+03  0.19706744263E+03  0.00000000000E+00 0.  1.
         23    2    1    2    0    0  0.34126366714E+02  0.68078161895E+01 -0.13070471084E+03  0.18417261684E+03  0.12499950436E+03 0.  0.
         23    2    1    2    0    0 -0.34126366714E+02 -0.68078161895E+01  0.20905856572E+02  0.10016341414E+03  0.91568004384E+02 0.  0.
          5    1    3    3  502    0  0.61123060140E+01  0.27197665142E+01 -0.14959301638E+03  0.14981628070E+03  0.47000000000E+01 0.  1.
         -5    1    3    3    0  502  0.28014060700E+02  0.40880496753E+01  0.18888305531E+02  0.34356336139E+02  0.47000000000E+01 0.  1.
        -11    1    4    4    0    0  0.24568866522E+02 -0.21452107237E+02 -0.72894378115E+01  0.33420921751E+02  0.00000000000E+00 0.  1.
         11    1    4    4    0    0 -0.58695233237E+02  0.14644291047E+02  0.28195294384E+02  0.66742492390E+02  0.00000000000E+00 0. -1.
<mgrwt>
<rscale>  0 0.12094761E+03</rscale>
<asrwt>0</asrwt>
<pdfrwt beam="1">  1        1 0.13425937E-01 0.12975296E+03</pdfrwt>
<pdfrwt beam="2">  1       -1 0.30318068E-01 0.12975296E+03</pdfrwt>
<totfact> 0.41395861E+03</totfact>
</mgrwt>
</event>
<event>
 8    1  0.1154424E-005  0.1644800E+03  0.7546771E-02  0.1190518E+00
          1   -1    0    0  501    0  0.00000000000E+00  0.00000000000E+00  0.21078419755E+03  0.21078419755E+03  0.00000000000E+00 0. -1.
         -1   -1    0    0    0  501 -0.00000000000E+00 -0.00000000000E+00 -0.11306429419E+03  0.11306429419E+03  0.00000000000E+00 0.  1.
         23    2    1    2    0    0 -0.10536027268E+03  0.18086890755E+02  0.30749368807E+02  0.16732960821E+03  0.12500300566E+03 0.  0.
         23    2    1    2    0    0  0.10536027268E+03 -0.18086890755E+02  0.66970534560E+02  0.15651888353E+03  0.92656277320E+02 0.  0.
          5    1    3    3  502    0 -0.11689013747E+03  0.42437919120E+02  0.49757769076E+02  0.13402315770E+03  0.47000000000E+01 0.  1.
         -5    1    3    3    0  502  0.11529864789E+02 -0.24351028364E+02 -0.19008400269E+02  0.33306450505E+02  0.47000000000E+01 0.  1.
        -11    1    4    4    0    0  0.56564135040E+02  0.26290043033E+02  0.65637486588E+02  0.90548039079E+02  0.00000000000E+00 0.  1.
         11    1    4    4    0    0  0.48796137641E+02 -0.44376933788E+02  0.13330479718E+01  0.65970844454E+02  0.00000000000E+00 0. -1.
<mgrwt>
<rscale>  0 0.15839781E+03</rscale>
<asrwt>0</asrwt>
<pdfrwt beam="1">  1        1 0.32428338E-01 0.16448001E+03</pdfrwt>
<pdfrwt beam="2">  1       -1 0.17394507E-01 0.16448001E+03</pdfrwt>
<totfact> 0.33828270E+03</totfact>
</mgrwt>
</event>
<event>
 8    1  0.1154424E-005  0.1276882E+03  0.7546771E-02  0.1245215E+00
          1   -1    0    0  501    0  0.00000000000E+00  0.00000000000E+00  0.18301221581E+02  0.18301221581E+02  0.00000000000E+00 0. -1.
         -1   -1    0    0    0  501 -0.00000000000E+00 -0.00000000000E+00 -0.70667483815E+03  0.70667483815E+03  0.00000000000E+00 0.  1.
         23    2    1    2    0    0  0.12604159706E+02 -0.22804552200E+02 -0.46167291360E+03  0.47900539455E+03  0.12500150562E+03 0.  0.
         23    2    1    2    0    0 -0.12604159706E+02  0.22804552200E+02 -0.22670070296E+03  0.24597066518E+03  0.91812019709E+02 0.  0.
          5    1    3    3  502    0 -0.28752528604E+02 -0.58320374786E+02 -0.33066631746E+03  0.33703156754E+03  0.47000000000E+01 0. -1.
         -5    1    3    3    0  502  0.41356688310E+02  0.35515822586E+02 -0.13100659615E+03  0.14197382701E+03  0.47000000000E+01 0. -1.
        -11    1    4    4    0    0  0.60828466923E+01 -0.30343595806E+02 -0.13371547926E+03  0.13725000628E+03  0.00000000000E+00 0.  1.
         11    1    4    4    0    0 -0.18687006398E+02  0.53148148006E+02 -0.92985223696E+02  0.10872065889E+03  0.00000000000E+00 0. -1.
<mgrwt>
<rscale>  0 0.11872528E+03</rscale>
<asrwt>0</asrwt>
<pdfrwt beam="1">  1        1 0.28155728E-02 0.12768825E+03</pdfrwt>
<pdfrwt beam="2">  1       -1 0.10871920E+00 0.12768825E+03</pdfrwt>
<totfact> 0.29822640E+03</totfact>
</mgrwt>
</event>
<event>
 8    1  0.1154424E-005  0.1459359E+03  0.7546771E-02  0.1212893E+00
         -1   -1    0    0    0  501 -0.00000000000E+00  0.00000000000E+00  0.11730458204E+03  0.11730458204E+03  0.00000000000E+00 0.  1.
          1   -1    0    0  501    0  0.00000000000E+00 -0.00000000000E+00 -0.18007915678E+03  0.18007915678E+03  0.00000000000E+00 0. -1.
         23    2    1    2    0    0 -0.60486398317E+02 -0.44876259746E+02  0.20532567459E+02  0.14737322212E+03  0.12499918880E+03 0.  0.
         23    2    1    2    0    0  0.60486398317E+02  0.44876259746E+02 -0.83307142191E+02  0.15001051670E+03  0.99451456051E+02 0.  0.
          5    1    3    3  502    0 -0.26302545608E+02 -0.83216202634E+02  0.34454607274E+02  0.93946635111E+02  0.47000000000E+01 0.  1.
         -5    1    3    3    0  502 -0.34183852709E+02  0.38339942888E+02 -0.13922039815E+02  0.53426587008E+02  0.47000000000E+01 0.  1.
        -11    1    4    4    0    0  0.62597422818E+02 -0.15035828768E+02 -0.36945947121E+02  0.74226117363E+02  0.00000000000E+00 0.  1.
         11    1    4    4    0    0 -0.21110245008E+01  0.59912088514E+02 -0.46361195070E+02  0.75784399337E+02  0.00000000000E+00 0. -1.
<mgrwt>
<rscale>  0 0.14032449E+03</rscale>
<asrwt>0</asrwt>
<pdfrwt beam="2">  1        1 0.27704486E-01 0.14593588E+03</pdfrwt>
<pdfrwt beam="1">  1       -1 0.18046859E-01 0.14593588E+03</pdfrwt>
<totfact> 0.38602954E+03</totfact>
</mgrwt>
</event>
<event>
 8    1  0.1154424E-005  0.1469004E+03  0.7546771E-02  0.1213687E+00
         -2   -1    0    0    0  501 -0.00000000000E+00  0.00000000000E+00  0.53876619508E+02  0.53876619508E+02  0.00000000000E+00 0.  1.
          2   -1    0    0  501    0  0.00000000000E+00 -0.00000000000E+00 -0.45605680505E+03  0.45605680505E+03  0.00000000000E+00 0. -1.
         23    2    1    2    0    0  0.63532616877E+01 -0.76906419031E+02 -0.82729141528E+02  0.16859368318E+03  0.12499903171E+03 0.  0.
         23    2    1    2    0    0 -0.63532616877E+01  0.76906419031E+02 -0.31945104402E+03  0.34133974138E+03  0.92243635549E+02 0.  0.
          5    1    3    3  502    0  0.95072252826E+00 -0.41675724942E+02  0.29147449153E+02  0.51082616563E+02  0.47000000000E+01 0. -1.
         -5    1    3    3    0  502  0.54025391595E+01 -0.35230694089E+02 -0.11187659068E+03  0.11751106662E+03  0.47000000000E+01 0. -1.
        -11    1    4    4    0    0 -0.42097689793E+02  0.72937695332E+02 -0.22970386277E+03  0.24465483330E+03  0.00000000000E+00 0.  1.
         11    1    4    4    0    0  0.35744428105E+02  0.39687236993E+01 -0.89747181248E+02  0.96684908080E+02  0.00000000000E+00 0. -1.
<mgrwt>
<rscale>  0 0.13973418E+03</rscale>
<asrwt>0</asrwt>
<pdfrwt beam="2">  1        2 0.70162584E-01 0.14690037E+03</pdfrwt>
<pdfrwt beam="1">  1       -2 0.82887109E-02 0.14690037E+03</pdfrwt>
<totfact> 0.59523660E+03</totfact>
</mgrwt>
</event>
<event>
 8    1  0.1154424E-005  0.1317066E+03  0.7546771E-02  0.1238052E+00
          1   -1    0    0  501    0  0.00000000000E+00  0.00000000000E+00  0.20853626304E+03  0.20853626304E+03  0.00000000000E+00 0. -1.
         -1   -1    0    0    0  501 -0.00000000000E+00 -0.00000000000E+00 -0.64680235940E+02  0.64680235940E+02  0.00000000000E+00 0.  1.
         23    2    1    2    0    0 -0.28167655144E+02  0.30490076132E+02  0.83635904840E+02  0.15601794580E+03  0.12499429305E+03 0.  0.
         23    2    1    2    0    0  0.28167655144E+02 -0.30490076132E+02  0.60220122265E+02  0.11719855318E+03  0.91574975862E+02 0.  0.
          5    1    3    3  502    0 -0.69002314190E+02 -0.11225882219E+02  0.28690847077E+02  0.75713898995E+02  0.47000000000E+01 0.  1.
         -5    1    3    3    0  502  0.40834659045E+02  0.41715958351E+02  0.54945057763E+02  0.80304046804E+02  0.47000000000E+01 0.  1.
        -11    1    4    4    0    0  0.11720355924E+02 -0.43678352572E+02  0.77640155227E+02  0.89850759207E+02  0.00000000000E+00 0. -1.
         11    1    4    4    0    0  0.16447299220E+02  0.13188276440E+02 -0.17420032962E+02  0.27347793978E+02  0.00000000000E+00 0.  1.
<mgrwt>
<rscale>  0 0.12311031E+03</rscale>
<asrwt>0</asrwt>
<pdfrwt beam="1">  1        1 0.32082502E-01 0.13170662E+03</pdfrwt>
<pdfrwt beam="2">  1       -1 0.99508056E-02 0.13170662E+03</pdfrwt>
<totfact> 0.80709877E+03</totfact>
</mgrwt>
</event>
<event>
 8    1  0.1154424E-005  0.1551703E+03  0.7546771E-02  0.1201865E+00
          2   -1    0    0  501    0  0.00000000000E+00  0.00000000000E+00  0.43567858673E+03  0.43567858673E+03  0.00000000000E+00 0. -1.
         -2   -1    0    0    0  501 -0.00000000000E+00 -0.00000000000E+00 -0.48107969303E+02  0.48107969303E+02  0.00000000000E+00 0.  1.
         23    2    1    2    0    0 -0.80822162510E+02 -0.43833799861E+02  0.24355689269E+03  0.28878672544E+03  0.12499675537E+03 0.  0.
         23    2    1    2    0    0  0.80822162510E+02  0.43833799861E+02  0.14401372474E+03  0.19499983059E+03  0.93975300237E+02 0.  0.
          5    1    3    3  502    0 -0.97491875277E+02 -0.57510454565E+02  0.24134035778E+03  0.26660715749E+03  0.47000000000E+01 0.  1.
         -5    1    3    3    0  502  0.16669712768E+02  0.13676654704E+02  0.22165349073E+01  0.22179567954E+02  0.47000000000E+01 0.  1.
        -11    1    4    4    0    0  0.40987381994E+02  0.71138968171E+02  0.10239986263E+03  0.13124957196E+03  0.00000000000E+00 0.  1.
         11    1    4    4    0    0  0.39834780516E+02 -0.27305168309E+02  0.41613862117E+02  0.63750258630E+02  0.00000000000E+00 0. -1.
<mgrwt>
<rscale>  0 0.14887268E+03</rscale>
<asrwt>0</asrwt>
<pdfrwt beam="1">  1        2 0.67027472E-01 0.15517027E+03</pdfrwt>
<pdfrwt beam="2">  1       -2 0.74012263E-02 0.15517027E+03</pdfrwt>
<totfact> 0.74757116E+03</totfact>
</mgrwt>
</event>
<event>
 8    1  0.1154424E-005  0.1267990E+03  0.7546771E-02  0.1247445E+00
         -1   -1    0    0    0  501 -0.00000000000E+00  0.00000000000E+00  0.70828438375E+02  0.70828438375E+02  0.00000000000E+00 0.  1.
          1   -1    0    0  501    0  0.00000000000E+00 -0.00000000000E+00 -0.29087023746E+03  0.29087023746E+03  0.00000000000E+00 0. -1.
         23    2    1    2    0    0 -0.16879602439E+02  0.12939542356E+02 -0.45048031249E+01  0.12687904559E+03  0.12500258487E+03 0.  0.
         23    2    1    2    0    0  0.16879602439E+02 -0.12939542356E+02 -0.21553699596E+03  0.23481963024E+03  0.90728768231E+02 0.  0.
          5    1    3    3  502    0 -0.66549577910E+02 -0.16666071114E+02 -0.35373171722E+01  0.68856422062E+02  0.47000000000E+01 0.  1.
         -5    1    3    3    0  502  0.49669975471E+02  0.29605613470E+02 -0.96748595276E+00  0.58022623530E+02  0.47000000000E+01 0.  1.
        -11    1    4    4    0    0 -0.62560828915E+01  0.30543299339E+02 -0.31557727115E+02  0.44361265179E+02  0.00000000000E+00 0.  1.
         11    1    4    4    0    0  0.23135685331E+02 -0.43482841695E+02 -0.18397926885E+03  0.19045836507E+03  0.00000000000E+00 0. -1.
<mgrwt>
<rscale>  0 0.11740251E+03</rscale>
<asrwt>0</asrwt>
<pdfrwt beam="2">  1        1 0.44749267E-01 0.12679905E+03</pdfrwt>
<pdfrwt beam="1">  1       -1 0.10896683E-01 0.12679905E+03</pdfrwt>
<totfact> 0.46456690E+03</totfact>
</mgrwt>
</event>
<event>
 8    1  0.1154424E-005  0.1364034E+03  0.7546771E-02  0.1230367E+00
         -3   -1    0    0    0  501 -0.00000000000E+00  0.00000000000E+00  0.25703929069E+03  0.25703929069E+03  0.00000000000E+00 0.  1.
          3   -1    0    0  501    0  0.00000000000E+00 -0.00000000000E+00 -0.61829078648E+02  0.61829078648E+02  0.00000000000E+00 0. -1.
         23    2    1    2    0    0 -0.34733098898E+02  0.42132501142E+02  0.15255853355E+03  0.20464598973E+03  0.12499735655E+03 0.  0.
         23    2    1    2    0    0  0.34733098898E+02 -0.42132501142E+02  0.42651678496E+02  0.11422237961E+03  0.90807766809E+02 0.  0.
          5    1    3    3  502    0 -0.39941707101E+02 -0.11568528107E+02 -0.95560660976E+00  0.41858977445E+02  0.47000000000E+01 0. -1.
         -5    1    3    3    0  502  0.52086082032E+01  0.53701029250E+02  0.15351414016E+03  0.16278701229E+03  0.47000000000E+01 0. -1.
        -11    1    4    4    0    0  0.22753084047E+02 -0.60163320035E+02 -0.22641982351E+01  0.64361902590E+02  0.00000000000E+00 0. -1.
         11    1    4    4    0    0  0.11980014851E+02  0.18030818893E+02  0.44915876731E+02  0.49860477017E+02  0.00000000000E+00 0.  1.
<mgrwt>
<rscale>  0 0.12805737E+03</rscale>
<asrwt>0</asrwt>
<pdfrwt beam="2">  1        3 0.95121661E-02 0.13640335E+03</pdfrwt>
<pdfrwt beam="1">  1       -3 0.39544506E-01 0.13640335E+03</pdfrwt>
<totfact> 0.11734813E+03</totfact>
</mgrwt>
</event>
<event>
 8    1  0.1154424E-005  0.1640521E+03  0.7546771E-02  0.1191636E+00
         -1   -1    0    0    0  501 -0.00000000000E+00  0.00000000000E+00  0.78926373580E+03  0.78926373580E+03  0.00000000000E+00 0.  1.
          1   -1    0    0  501    0  0.00000000000E+00 -0.00000000000E+00 -0.29241218166E+02  0.29241218166E+02  0.00000000000E+00 0. -1.
         23    2    1    2    0    0  0.54436513960E+02  0.91241577603E+02  0.43840737360E+03  0.46809627219E+03  0.12499894112E+03 0.  0.
         23    2    1    2    0    0 -0.54436513960E+02 -0.91241577603E+02  0.32161514404E+03  0.35040868177E+03  0.89786323303E+02 0.  0.
          5    1    3    3  502    0  0.78695862372E+02  0.10150168565E+03  0.28867340096E+03  0.31599059063E+03  0.47000000000E+01 0.  1.
         -5    1    3    3    0  502 -0.24259348412E+02 -0.10260108046E+02  0.14973397264E+03  0.15210568157E+03  0.47000000000E+01 0.  1.
        -11    1    4    4    0    0 -0.20404565345E+02 -0.92402581619E+02  0.28549108506E+03  0.30076526233E+03  0.00000000000E+00 0.  1.
         11    1    4    4    0    0 -0.34031948615E+02  0.11610040165E+01  0.36124058978E+02  0.49643419442E+02  0.00000000000E+00 0. -1.
<mgrwt>
<rscale>  0 0.15742414E+03</rscale>
<asrwt>0</asrwt>
<pdfrwt beam="2">  1        1 0.44986495E-02 0.16405211E+03</pdfrwt>
<pdfrwt beam="1">  1       -1 0.12142517E+00 0.16405211E+03</pdfrwt>
<totfact> 0.12222958E+03</totfact>
</mgrwt>
</event>
<event>
 8    1  0.1154424E-005  0.1321786E+03  0.7546771E-02  0.1239422E+00
         -1   -1    0    0    0  501 -0.00000000000E+00  0.00000000000E+00  0.37400954433E+02  0.37400954433E+02  0.00000000000E+00 0.  1.
          1   -1    0    0  501    0  0.00000000000E+00 -0.00000000000E+00 -0.46958234053E+03  0.46958234053E+03  0.00000000000E+00 0. -1.
         23    2    1    2    0    0 -0.38707343929E+02 -0.18616698895E+02 -0.11441879843E+03  0.17482230991E+03  0.12500535452E+03 0.  0.
         23    2    1    2    0    0  0.38707343929E+02  0.18616698895E+02 -0.31776258767E+03  0.33216098505E+03  0.86677666770E+02 0.  0.
          5    1    3    3  502    0 -0.49933766877E+02 -0.52759936868E+02 -0.22781241853E+02  0.76276254452E+02  0.47000000000E+01 0.  1.
         -5    1    3    3    0  502  0.11226422948E+02  0.34143237973E+02 -0.91637556579E+02  0.98546055463E+02  0.47000000000E+01 0.  1.
        -11    1    4    4    0    0  0.50643187481E+02  0.29982492999E+00 -0.29927401601E+03  0.30352884376E+03  0.00000000000E+00 0. -1.
         11    1    4    4    0    0 -0.11935843552E+02  0.18316873965E+02 -0.18488571658E+02  0.28632141294E+02  0.00000000000E+00 0.  1.
<mgrwt>
<rscale>  0 0.12225535E+03</rscale>
<asrwt>0</asrwt>
<pdfrwt beam="2">  1        1 0.72243434E-01 0.13217859E+03</pdfrwt>
<pdfrwt beam="1">  1       -1 0.57539932E-02 0.13217859E+03</pdfrwt>
<totfact> 0.66875608E+03</totfact>
</mgrwt>
</event>
<event>
 8    1  0.1154424E-005  0.1365525E+03  0.7546771E-02  0.1230137E+00
          3   -1    0    0  501    0  0.00000000000E+00  0.00000000000E+00  0.81848739401E+02  0.81848739401E+02  0.00000000000E+00 0. -1.
         -3   -1    0    0    0  501 -0.00000000000E+00 -0.00000000000E+00 -0.18977850617E+03  0.18977850617E+03  0.00000000000E+00 0.  1.
         23    2    1    2    0    0 -0.48061514203E+02 -0.26671598497E+02 -0.91182061604E+02  0.16419726224E+03  0.12500115702E+03 0.  0.
         23    2    1    2    0    0  0.48061514203E+02  0.26671598497E+02 -0.16747705168E+02  0.10742998333E+03  0.90771319129E+02 0.  0.
          5    1    3    3  502    0 -0.54256927304E+02  0.75927709627E+01  0.11058486207E+02  0.56087827989E+02  0.47000000000E+01 0. -1.
         -5    1    3    3    0  502  0.61954131014E+01 -0.34264369459E+02 -0.10224054781E+03  0.10810943425E+03  0.47000000000E+01 0. -1.
        -11    1    4    4    0    0  0.46516870408E+02  0.78181716546E+01  0.30747779096E+02  0.56306029517E+02  0.00000000000E+00 0. -1.
         11    1    4    4    0    0  0.15446437948E+01  0.18853426842E+02 -0.47495484265E+02  0.51123953815E+02  0.00000000000E+00 0.  1.
<mgrwt>
<rscale>  0 0.12820955E+03</rscale>
<asrwt>0</asrwt>
<pdfrwt beam="1">  1        3 0.12592114E-01 0.13655245E+03</pdfrwt>
<pdfrwt beam="2">  1       -3 0.29196693E-01 0.13655245E+03</pdfrwt>
<totfact> 0.13022899E+03</totfact>
</mgrwt>
</event>
<event>
 8    1  0.1154424E-005  0.1753506E+03  0.7546771E-02  0.1178325E+00
         -1   -1    0    0    0  501 -0.00000000000E+00  0.00000000000E+00  0.45008898303E+02  0.45008898303E+02  0.00000000000E+00 0.  1.
          1   -1    0    0  501    0  0.00000000000E+00 -0.00000000000E+00 -0.66089410887E+03  0.66089410887E+03  0.00000000000E+00 0. -1.
         23    2    1    2    0    0 -0.76939180459E+02 -0.95927256168E+02 -0.21961259100E+03  0.28102939568E+03  0.12500462049E+03 0.  0.
         23    2    1    2    0    0  0.76939180459E+02  0.95927256168E+02 -0.39627261956E+03  0.42487361149E+03  0.91454473698E+02 0.  0.
          5    1    3    3  502    0  0.13894962436E+02  0.21942261228E+02 -0.30214546882E+02  0.40119093362E+02  0.47000000000E+01 0. -1.
         -5    1    3    3    0  502 -0.90834142895E+02 -0.11786951740E+03 -0.18939804412E+03  0.24091030232E+03  0.47000000000E+01 0. -1.
        -11    1    4    4    0    0 -0.43575927359E+01  0.53735266043E+02 -0.87246290219E+02  0.10255916628E+03  0.00000000000E+00 0.  1.
         11    1    4    4    0    0  0.81296773195E+02  0.42191990125E+02 -0.30902632935E+03  0.32231444521E+03  0.00000000000E+00 0. -1.
<mgrwt>
<rscale>  0 0.16954330E+03</rscale>
<asrwt>0</asrwt>
<pdfrwt beam="2">  1        1 0.10167602E+00 0.17535059E+03</pdfrwt>
<pdfrwt beam="1">  1       -1 0.69244459E-02 0.17535059E+03</pdfrwt>
<totfact> 0.32435409E+03</totfact>
</mgrwt>
</event>
<event>
 8    1  0.1154424E-005  0.1319594E+03  0.7546771E-02  0.1238458E+00
          2   -1    0    0  501    0  0.00000000000E+00  0.00000000000E+00  0.19901936604E+03  0.19901936604E+03  0.00000000000E+00 0. -1.
         -2   -1    0    0    0  501 -0.00000000000E+00 -0.00000000000E+00 -0.68242252836E+02  0.68242252836E+02  0.00000000000E+00 0.  1.
         23    2    1    2    0    0  0.80938813661E+00  0.42275994452E+02  0.91702967070E+02  0.16069449694E+03  0.12500148944E+03 0.  0.
         23    2    1    2    0    0 -0.80938813661E+00 -0.42275994452E+02  0.39074146133E+02  0.10656712194E+03  0.89676350090E+02 0.  0.
          5    1    3    3  502    0  0.60535302707E+02  0.10214383775E+02  0.28318552018E+02  0.67770841062E+02  0.47000000000E+01 0. -1.
         -5    1    3    3    0  502 -0.59725914571E+02  0.32061610677E+02  0.63384415052E+02  0.92923655879E+02  0.47000000000E+01 0. -1.
        -11    1    4    4    0    0 -0.17175823854E+02 -0.38408070397E+02  0.63944415178E+02  0.76544608100E+02  0.00000000000E+00 0. -1.
         11    1    4    4    0    0  0.16366435717E+02 -0.38679240548E+01 -0.24870269045E+02  0.30022513835E+02  0.00000000000E+00 0.  1.
<mgrwt>
<rscale>  0 0.12285651E+03</rscale>
<asrwt>0</asrwt>
<pdfrwt beam="1">  1        2 0.30618364E-01 0.13195941E+03</pdfrwt>
<pdfrwt beam="2">  1       -2 0.10498808E-01 0.13195941E+03</pdfrwt>
<totfact> 0.99022823E+03</totfact>
</mgrwt>
</event>
<event>
 8    1  0.1154424E-005  0.1648617E+03  0.7546771E-02  0.1190195E+00
         -2   -1    0    0    0  501 -0.00000000000E+00  0.00000000000E+00  0.27777959595E+02  0.27777959595E+02  0.00000000000E+00 0.  1.
          2   -1    0    0  501    0  0.00000000000E+00 -0.00000000000E+00 -0.84475616223E+03  0.84475616223E+03  0.00000000000E+00 0. -1.
         23    2    1    2    0    0 -0.34042191422E+02 -0.10194123887E+03 -0.43495652240E+03  0.46515218476E+03  0.12501396573E+03 0.  0.
         23    2    1    2    0    0  0.34042191422E+02  0.10194123887E+03 -0.38202168023E+03  0.40738193707E+03  0.92024950432E+02 0.  0.
          5    1    3    3  502    0 -0.62591121049E+01 -0.12626539264E+03 -0.35729799114E+03  0.37903307288E+03  0.47000000000E+01 0. -1.
         -5    1    3    3    0  502 -0.27783079317E+02  0.24324153775E+02 -0.77658531263E+02  0.86119111881E+02  0.47000000000E+01 0. -1.
        -11    1    4    4    0    0  0.50618731410E+01  0.10731966203E+03 -0.33573712315E+03  0.35250893361E+03  0.00000000000E+00 0. -1.
         11    1    4    4    0    0  0.28980318281E+02 -0.53784231641E+01 -0.46284557086E+02  0.54873003454E+02  0.00000000000E+00 0.  1.
<mgrwt>
<rscale>  0 0.15867972E+03</rscale>
<asrwt>0</asrwt>
<pdfrwt beam="2">  1        2 0.12996249E+00 0.16486170E+03</pdfrwt>
<pdfrwt beam="1">  1       -2 0.42735320E-02 0.16486170E+03</pdfrwt>
<totfact> 0.80102000E+03</totfact>
</mgrwt>
</event>
<event>
 8    1  0.1154424E-005  0.1379014E+03  0.7546771E-02  0.1229173E+00
          2   -1    0    0  501    0  0.00000000000E+00  0.00000000000E+00  0.26914050379E+03  0.26914050379E+03  0.00000000000E+00 0. -1.
         -2   -1    0    0    0  501 -0.00000000000E+00 -0.00000000000E+00 -0.75928866747E+02  0.75928866747E+02  0.00000000000E+00 0.  1.
         23    2    1    2    0    0  0.10889884601E+02  0.56669726219E+02  0.15723723330E+02  0.13879487986E+03  0.12524669953E+03 0.  0.
         23    2    1    2    0    0 -0.10889884601E+02 -0.56669726219E+02  0.17748791371E+03  0.20627449068E+03  0.87847359294E+02 0.  0.
          5    1    3    3  502    0 -0.32595869541E+02 -0.26975078102E+02  0.12426122789E+02  0.44346860964E+02  0.47000000000E+01 0.  1.
         -5    1    3    3    0  502  0.43485754141E+02  0.83644804321E+02  0.32976005404E+01  0.94448018891E+02  0.47000000000E+01 0.  1.
        -11    1    4    4    0    0 -0.30126800397E+02 -0.65390947372E+02  0.84945438903E+02  0.11135226846E+03  0.00000000000E+00 0.  1.
         11    1    4    4    0    0  0.19236915796E+02  0.87212211531E+01  0.92542474806E+02  0.94922222219E+02  0.00000000000E+00 0. -1.
<mgrwt>
<rscale>  0 0.12884956E+03</rscale>
<asrwt>0</asrwt>
<pdfrwt beam="1">  1        2 0.41406231E-01 0.13790135E+03</pdfrwt>
<pdfrwt beam="2">  1       -2 0.11681364E-01 0.13790135E+03</pdfrwt>
<totfact> 0.60717557E+03</totfact>
</mgrwt>
</event>
<event>
 8    1  0.1154424E-005  0.1968494E+03  0.7546771E-02  0.1156563E+00
          2   -1    0    0  501    0  0.00000000000E+00  0.00000000000E+00  0.24791003546E+03  0.24791003546E+03  0.00000000000E+00 0. -1.
         -2   -1    0    0    0  501 -0.00000000000E+00 -0.00000000000E+00 -0.14311694263E+03  0.14311694263E+03  0.00000000000E+00 0.  1.
         23    2    1    2    0    0 -0.15117471316E+03 -0.16465431550E+02  0.38894941981E+02  0.20065520147E+03  0.12499915612E+03 0.  0.
         23    2    1    2    0    0  0.15117471316E+03  0.16465431550E+02  0.65898150850E+02  0.19037177662E+03  0.93669326426E+02 0.  0.
          5    1    3    3  502    0 -0.88607340748E+02  0.51798523467E+02  0.32301519108E+02  0.10770248839E+03  0.47000000000E+01 0.  1.
         -5    1    3    3    0  502 -0.62567372411E+02 -0.68263955017E+02  0.65934228726E+01  0.92952713087E+02  0.47000000000E+01 0.  1.
        -11    1    4    4    0    0  0.10296858118E+03 -0.34163112401E+02  0.44529602470E+02  0.11727119192E+03  0.00000000000E+00 0. -1.
         11    1    4    4    0    0  0.48206131981E+02  0.50628543951E+02  0.21368548380E+02  0.73100584697E+02  0.00000000000E+00 0.  1.
<mgrwt>
<rscale>  0 0.19211995E+03</rscale>
<asrwt>0</asrwt>
<pdfrwt beam="1">  1        2 0.38140006E-01 0.19684942E+03</pdfrwt>
<pdfrwt beam="2">  1       -2 0.22017991E-01 0.19684942E+03</pdfrwt>
<totfact> 0.23612765E+03</totfact>
</mgrwt>
</event>
<event>
 8    1  0.1154424E-005  0.2410582E+03  0.7546771E-02  0.1122569E+00
          3   -1    0    0  501    0  0.00000000000E+00  0.00000000000E+00  0.15695979286E+04  0.15695979286E+04  0.00000000000E+00 0. -1.
         -3   -1    0    0    0  501 -0.00000000000E+00 -0.00000000000E+00 -0.34409806030E+02  0.34409806030E+02  0.00000000000E+00 0.  1.
         23    2    1    2    0    0 -0.78937798784E+02  0.19039536104E+03  0.71364591800E+03  0.75325928636E+03  0.12500994614E+03 0.  0.
         23    2    1    2    0    0  0.78937798784E+02 -0.19039536104E+03  0.82154220459E+03  0.85074844828E+03  0.79748095600E+02 0.  0.
          5    1    3    3  502    0 -0.67814228351E+02  0.22407950957E+02  0.24644438228E+03  0.25662776427E+03  0.47000000000E+01 0. -1.
         -5    1    3    3    0  502 -0.11123570433E+02  0.16798741009E+03  0.46720153572E+03  0.49663152210E+03  0.47000000000E+01 0. -1.
        -11    1    4    4    0    0  0.71406839113E+02 -0.15309798498E+03  0.75874031456E+03  0.77731897868E+03  0.00000000000E+00 0. -1.
         11    1    4    4    0    0  0.75309596714E+01 -0.37297376068E+02  0.62801890026E+02  0.73429469602E+02  0.00000000000E+00 0.  1.
<mgrwt>
<rscale>  0 0.23587932E+03</rscale>
<asrwt>0</asrwt>
<pdfrwt beam="1">  1        3 0.24147655E+00 0.24105820E+03</pdfrwt>
<pdfrwt beam="2">  1       -3 0.52938175E-02 0.24105820E+03</pdfrwt>
<totfact> 0.47751676E+01</totfact>
</mgrwt>
</event>
<event>
 8    1  0.1154424E-005  0.1572106E+03  0.7546771E-02  0.1200282E+00
         -2   -1    0    0    0  501 -0.00000000000E+00  0.00000000000E+00  0.35393785571E+02  0.35393785571E+02  0.00000000000E+00 0.  1.
          2   -1    0    0  501    0  0.00000000000E+00 -0.00000000000E+00 -0.58968547136E+03  0.58968547136E+03  0.00000000000E+00 0. -1.
         23    2    1    2    0    0  0.74049704941E+02 -0.60068836415E+02 -0.27790771690E+03  0.31929274932E+03  0.12499414683E+03 0.  0.
         23    2    1    2    0    0 -0.74049704941E+02  0.60068836415E+02 -0.27638396888E+03  0.30578650761E+03  0.89586081905E+02 0.  0.
          5    1    3    3  502    0  0.99539022350E+02 -0.57387831739E+02 -0.15134634445E+03  0.19007679022E+03  0.47000000000E+01 0.  1.
         -5    1    3    3    0  502 -0.25489317410E+02 -0.26810046769E+01 -0.12656137245E+03  0.12921595910E+03  0.47000000000E+01 0.  1.
        -11    1    4    4    0    0 -0.32695680668E+02 -0.20713681952E+02 -0.63504629139E+02  0.74370034802E+02  0.00000000000E+00 0.  1.
         11    1    4    4    0    0 -0.41354024273E+02  0.80782518368E+02 -0.21287933974E+03  0.23141647281E+03  0.00000000000E+00 0. -1.
<mgrwt>
<rscale>  0 0.15015530E+03</rscale>
<asrwt>0</asrwt>
<pdfrwt beam="2">  1        2 0.90720840E-01 0.15721056E+03</pdfrwt>
<pdfrwt beam="1">  1       -2 0.54451979E-02 0.15721056E+03</pdfrwt>
<totfact> 0.85481526E+03</totfact>
</mgrwt>
</event>
<event>
 8    1  0.1154424E-005  0.1390273E+03  0.7546771E-02  0.1225525E+00
          1   -1    0    0  501    0  0.00000000000E+00  0.00000000000E+00  0.13769463651E+03  0.13769463651E+03  0.00000000000E+00 0. -1.
         -1   -1    0    0    0  501 -0.00000000000E+00 -0.00000000000E+00 -0.12517388340E+03  0.12517388340E+03  0.00000000000E+00 0.  1.
         23    2    1    2    0    0  0.12430398538E+02 -0.59553419740E+02 -0.33560386502E+02  0.14302060427E+03  0.12500987598E+03 0.  0.
         23    2    1    2    0    0 -0.12430398538E+02  0.59553419740E+02  0.46081139608E+02  0.11984791565E+03  0.92406313889E+02 0.  0.
          5    1    3    3  502    0  0.52260467816E+02 -0.74942201833E+02 -0.39511204823E+02  0.99652974960E+02  0.47000000000E+01 0.  1.
         -5    1    3    3    0  502 -0.39830069278E+02  0.15388782092E+02  0.59508183208E+01  0.43367629306E+02  0.47000000000E+01 0.  1.
        -11    1    4    4    0    0  0.16409188555E+02 -0.16796600996E+02 -0.43887542213E+01  0.23888248945E+02  0.00000000000E+00 0. -1.
         11    1    4    4    0    0 -0.28839587093E+02  0.76350020737E+02  0.50469893830E+02  0.95959666701E+02  0.00000000000E+00 0.  1.
<mgrwt>
<rscale>  0 0.13131006E+03</rscale>
<asrwt>0</asrwt>
<pdfrwt beam="1">  1        1 0.21183790E-01 0.13902731E+03</pdfrwt>
<pdfrwt beam="2">  1       -1 0.19257521E-01 0.13902731E+03</pdfrwt>
<totfact> 0.48656826E+03</totfact>
</mgrwt>
</event>
<event>
 8    1  0.1154424E-005  0.2246162E+03  0.7546771E-02  0.1133584E+00
          1   -1    0    0  501    0  0.00000000000E+00  0.00000000000E+00  0.63414031997E+02  0.63414031997E+02  0.00000000000E+00 0. -1.
         -1   -1    0    0    0  501 -0.00000000000E+00 -0.00000000000E+00 -0.73909944738E+03  0.73909944738E+03  0.00000000000E+00 0.  1.
         23    2    1    2    0    0 -0.49874003652E+02 -0.17983297766E+03 -0.36090987909E+03  0.42509805724E+03  0.12500040541E+03 0.  0.
         23    2    1    2    0    0  0.49874003652E+02  0.17983297766E+03 -0.31477553630E+03  0.37741542214E+03  0.92365829856E+02 0.  0.
          5    1    3    3  502    0 -0.88967429648E+02 -0.10704853782E+03 -0.25649803115E+03  0.29186970204E+03  0.47000000000E+01 0. -1.
         -5    1    3    3    0  502  0.39093425995E+02 -0.72784439837E+02 -0.10441184794E+03  0.13322835520E+03  0.47000000000E+01 0. -1.
        -11    1    4    4    0    0  0.16731891535E+02  0.14261495750E+03 -0.16083018516E+03  0.21560457035E+03  0.00000000000E+00 0. -1.
         11    1    4    4    0    0  0.33142112117E+02  0.37218020154E+02 -0.15394535114E+03  0.16181085179E+03  0.00000000000E+00 0.  1.
<mgrwt>
<rscale>  0 0.22040191E+03</rscale>
<asrwt>0</asrwt>
<pdfrwt beam="1">  1        1 0.97560053E-02 0.22461616E+03</pdfrwt>
<pdfrwt beam="2">  1       -1 0.11370760E+00 0.22461616E+03</pdfrwt>
<totfact> 0.49855826E+02</totfact>
</mgrwt>
</event>
<event>
 8    1  0.1154424E-005  0.1289613E+03  0.7546771E-02  0.1246426E+00
         -2   -1    0    0    0  501 -0.00000000000E+00  0.00000000000E+00  0.34922962013E+03  0.34922962013E+03  0.00000000000E+00 0.  1.
          2   -1    0    0  501    0  0.00000000000E+00 -0.00000000000E+00 -0.35291489843E+02  0.35291489843E+02  0.00000000000E+00 0. -1.
         23    2    1    2    0    0 -0.20170670255E+02 -0.24478927409E+02  0.21314051603E+03  0.24911822626E+03  0.12499974903E+03 0.  0.
         23    2    1    2    0    0  0.20170670255E+02  0.24478927409E+02  0.10079761426E+03  0.13540288371E+03  0.84662317779E+02 0.  0.
          5    1    3    3  502    0  0.38373077495E+02  0.19007130093E+02  0.31617406929E+02  0.53437014248E+02  0.47000000000E+01 0. -1.
         -5    1    3    3    0  502 -0.58543747751E+02 -0.43486057502E+02  0.18152310910E+03  0.19568121201E+03  0.47000000000E+01 0. -1.
        -11    1    4    4    0    0  0.37636475448E+01  0.53419304737E+02  0.79663364980E+02  0.95989785297E+02  0.00000000000E+00 0.  1.
         11    1    4    4    0    0  0.16407022711E+02 -0.28940377328E+02  0.21134249277E+02  0.39413098414E+02  0.00000000000E+00 0. -1.
<mgrwt>
<rscale>  0 0.11800418E+03</rscale>
<asrwt>0</asrwt>
<pdfrwt beam="2">  1        2 0.54294602E-02 0.12896128E+03</pdfrwt>
<pdfrwt beam="1">  1       -2 0.53727631E-01 0.12896128E+03</pdfrwt>
<totfact> 0.44301949E+03</totfact>
</mgrwt>
</event>
<event>
 7    1  0.1154424E-005  0.1759566E+03  0.7546771E-02  0.1192193E+00
         -2   -1    0    0    0  501 -0.00000000000E+00  0.00000000000E+00  0.17289407076E+02  0.17289407076E+02  0.00000000000E+00 0.  1.
          2   -1    0    0  501    0  0.00000000000E+00 -0.00000000000E+00 -0.12090401702E+04  0.12090401702E+04  0.00000000000E+00 0. -1.
         23    2    1    2    0    0 -0.64889726066E+02  0.41107247263E+01 -0.39628208451E+03  0.41163262281E+03  0.90412117836E+02 0.  0.
          5    1    1    2  502    0  0.75249843333E+02  0.20577650025E+02 -0.77900707835E+03  0.78291768196E+03  0.47000000000E+01 0. -1.
         -5    1    1    2    0  502 -0.10360117267E+02 -0.24688374752E+02 -0.16461600259E+02  0.31779272502E+02  0.47000000000E+01 0.  1.
        -11    1    3    3    0    0 -0.71657028162E+01 -0.37191201158E+02 -0.99080573447E+02  0.10607305395E+03  0.00000000000E+00 0.  1.
         11    1    3    3    0    0 -0.57724023250E+02  0.41301925885E+02 -0.29720151106E+03  0.30555956886E+03  0.00000000000E+00 0. -1.
<mgrwt>
<rscale>  0 0.15694238E+03</rscale>
<asrwt>0</asrwt>
<pdfrwt beam="2">  1        2 0.18600624E+00 0.17595655E+03</pdfrwt>
<pdfrwt beam="1">  1       -2 0.26599080E-02 0.17595655E+03</pdfrwt>
<totfact> 0.98194184E+03</totfact>
</mgrwt>
</event>
<event>
 8    1  0.1154424E-005  0.1384784E+03  0.7546771E-02  0.1225230E+00
         -1   -1    0    0    0  501 -0.00000000000E+00  0.00000000000E+00  0.31581040229E+02  0.31581040229E+02  0.00000000000E+00 0.  1.
          1   -1    0    0  501    0  0.00000000000E+00 -0.00000000000E+00 -0.62586611276E+03  0.62586611276E+03  0.00000000000E+00 0. -1.
         23    2    1    2    0    0  0.59502599638E+02 -0.17767456496E+01 -0.17427486263E+03  0.22259380232E+03  0.12503022394E+03 0.  0.
         23    2    1    2    0    0 -0.59502599638E+02  0.17767456496E+01 -0.42001020990E+03  0.43485335067E+03  0.95630246144E+02 0.  0.
          5    1    3    3  502    0  0.38009336557E+02  0.55530280643E+02 -0.49939225290E+02  0.83930554367E+02  0.47000000000E+01 0. -1.
         -5    1    3    3    0  502  0.21493263081E+02 -0.57307026293E+02 -0.12433563734E+03  0.13866324796E+03  0.47000000000E+01 0. -1.
        -11    1    4    4    0    0 -0.66668084722E+02 -0.27919486147E+02 -0.36348421408E+03  0.37060073545E+03  0.00000000000E+00 0. -1.
         11    1    4    4    0    0  0.71654850843E+01  0.29696231796E+02 -0.56525995817E+02  0.64252615219E+02  0.00000000000E+00 0.  1.
<mgrwt>
<rscale>  0 0.13151170E+03</rscale>
<asrwt>0</asrwt>
<pdfrwt beam="2">  1        1 0.96287082E-01 0.13847842E+03</pdfrwt>
<pdfrwt beam="1">  1       -1 0.48586222E-02 0.13847842E+03</pdfrwt>
<totfact> 0.58813948E+03</totfact>
</mgrwt>
</event>
<event>
 8    1  0.1154424E-005  0.1298706E+03  0.7546771E-02  0.1241605E+00
         -2   -1    0    0    0  501 -0.00000000000E+00  0.00000000000E+00  0.62352560866E+02  0.62352560866E+02  0.00000000000E+00 0. -1.
          2   -1    0    0  501    0  0.00000000000E+00 -0.00000000000E+00 -0.22909213346E+03  0.22909213346E+03  0.00000000000E+00 0.  1.
         23    2    1    2    0    0 -0.33270270593E+02  0.11649092425E+02 -0.49661767168E+02  0.13904190494E+03  0.12499499170E+03 0.  0.
         23    2    1    2    0    0  0.33270270593E+02 -0.11649092425E+02 -0.11707780543E+03  0.15240278939E+03  0.90976840075E+02 0.  0.
          5    1    3    3  502    0  0.30303984724E+02 -0.20676284224E+02 -0.56189169812E+02  0.67269257642E+02  0.47000000000E+01 0.  1.
         -5    1    3    3    0  502 -0.63574255318E+02  0.32325376649E+02  0.65274026442E+01  0.71772647297E+02  0.47000000000E+01 0.  1.
        -11    1    4    4    0    0 -0.30024494038E+02  0.76532499058E+01 -0.31004319340E+02  0.43832753668E+02  0.00000000000E+00 0. -1.
         11    1    4    4    0    0  0.63294764631E+02 -0.19302342331E+02 -0.86073486088E+02  0.10857003572E+03  0.00000000000E+00 0.  1.
<mgrwt>
<rscale>  0 0.12090916E+03</rscale>
<asrwt>0</asrwt>
<pdfrwt beam="2">  1        2 0.35244943E-01 0.12987055E+03</pdfrwt>
<pdfrwt beam="1">  1       -2 0.95927018E-02 0.12987055E+03</pdfrwt>
<totfact> 0.97965758E+03</totfact>
</mgrwt>
</event>
<event>
 8    1  0.1154424E-005  0.1276559E+03  0.7546771E-02  0.1246076E+00
          1   -1    0    0  501    0  0.00000000000E+00  0.00000000000E+00  0.41278849746E+02  0.41278849746E+02  0.00000000000E+00 0. -1.
         -1   -1    0    0    0  501 -0.00000000000E+00 -0.00000000000E+00 -0.30606805860E+03  0.30606805860E+03  0.00000000000E+00 0.  1.
         23    2    1    2    0    0  0.24735348286E+02  0.77157653802E+01 -0.18121617523E+03  0.22166491122E+03  0.12499864083E+03 0.  0.
         23    2    1    2    0    0 -0.24735348286E+02 -0.77157653802E+01 -0.83573033620E+02  0.12568199712E+03  0.90222735285E+02 0.  0.
          5    1    3    3  502    0 -0.25406394293E+02 -0.16099903956E+02  0.16634269751E+01  0.30488502220E+02  0.47000000000E+01 0.  1.
         -5    1    3    3    0  502  0.50141742579E+02  0.23815669336E+02 -0.18287960221E+03  0.19117640900E+03  0.47000000000E+01 0.  1.
        -11    1    4    4    0    0  0.31150116048E+02 -0.46631512105E+01 -0.53659741748E+02  0.62220917652E+02  0.00000000000E+00 0.  1.
         11    1    4    4    0    0 -0.55885464334E+02 -0.30526141697E+01 -0.29913291872E+02  0.63461079471E+02  0.00000000000E+00 0. -1.
<mgrwt>
<rscale>  0 0.11821212E+03</rscale>
<asrwt>0</asrwt>
<pdfrwt beam="1">  1        1 0.63505922E-02 0.12765591E+03</pdfrwt>
<pdfrwt beam="2">  1       -1 0.47087394E-01 0.12765591E+03</pdfrwt>
<totfact> 0.52052356E+03</totfact>
</mgrwt>
</event>
<event>
 8    1  0.1154424E-005  0.1370496E+03  0.7546771E-02  0.1229558E+00
          2   -1    0    0  501    0  0.00000000000E+00  0.00000000000E+00  0.21443216986E+02  0.21443216986E+02  0.00000000000E+00 0. -1.
         -2   -1    0    0    0  501 -0.00000000000E+00 -0.00000000000E+00 -0.69931115982E+03  0.69931115982E+03  0.00000000000E+00 0.  1.
         23    2    1    2    0    0 -0.11011360637E+02 -0.55098343619E+02 -0.42254401188E+03  0.44421394917E+03  0.12500205248E+03 0.  0.
         23    2    1    2    0    0  0.11011360637E+02  0.55098343619E+02 -0.25532393095E+03  0.27654042764E+03  0.90151100214E+02 0.  0.
          5    1    3    3  502    0 -0.60082485956E+02 -0.31461232848E+02 -0.32826532827E+03  0.33523115911E+03  0.47000000000E+01 0.  1.
         -5    1    3    3    0  502  0.49071125319E+02 -0.23637110771E+02 -0.94278683610E+02  0.10898279006E+03  0.47000000000E+01 0.  1.
        -11    1    4    4    0    0 -0.20298182813E+02 -0.11573011025E+02 -0.22868211195E+02  0.32694126276E+02  0.00000000000E+00 0. -1.
         11    1    4    4    0    0  0.31309543450E+02  0.66671354644E+02 -0.23245571976E+03  0.24384630136E+03  0.00000000000E+00 0.  1.
<mgrwt>
<rscale>  0 0.12859309E+03</rscale>
<asrwt>0</asrwt>
<pdfrwt beam="1">  1        2 0.32989562E-02 0.13704959E+03</pdfrwt>
<pdfrwt beam="2">  1       -2 0.10758634E+00 0.13704959E+03</pdfrwt>
<totfact> 0.19075067E+03</totfact>
</mgrwt>
</event>
<event>
 8    1  0.1154424E-005  0.1379091E+03  0.7546771E-02  0.1227688E+00
         -3   -1    0    0    0  501 -0.00000000000E+00  0.00000000000E+00  0.16398934709E+03  0.16398934709E+03  0.00000000000E+00 0.  1.
          3   -1    0    0  501    0  0.00000000000E+00 -0.00000000000E+00 -0.10342333740E+03  0.10342333740E+03  0.00000000000E+00 0. -1.
         23    2    1    2    0    0 -0.40090712667E+02  0.42281297035E+02  0.76772222057E+02  0.15783822801E+03  0.12499583521E+03 0.  0.
         23    2    1    2    0    0  0.40090712667E+02 -0.42281297035E+02 -0.16206212367E+02  0.10957445648E+03  0.91372571779E+02 0.  0.
          5    1    3    3  502    0  0.22195396264E+02  0.38780174300E+02 -0.14475482209E+02  0.47203465119E+02  0.47000000000E+01 0.  1.
         -5    1    3    3    0  502 -0.62286108931E+02  0.35011227346E+01  0.91247704266E+02  0.11063476289E+03  0.47000000000E+01 0.  1.
        -11    1    4    4    0    0 -0.78124079672E+01  0.19417313090E+02  0.14693940538E+02  0.25572986811E+02  0.00000000000E+00 0.  1.
         11    1    4    4    0    0  0.47903120634E+02 -0.61698610125E+02 -0.30900152905E+02  0.84001469674E+02  0.00000000000E+00 0. -1.
<mgrwt>
<rscale>  0 0.12984387E+03</rscale>
<asrwt>0</asrwt>
<pdfrwt beam="2">  1        3 0.15911283E-01 0.13790914E+03</pdfrwt>
<pdfrwt beam="1">  1       -3 0.25229130E-01 0.13790914E+03</pdfrwt>
<totfact> 0.11436710E+03</totfact>
</mgrwt>
</event>
<event>
 8    1  0.1154424E-005  0.1313569E+03  0.7546771E-02  0.1237991E+00
         -4   -1    0    0    0  501 -0.00000000000E+00  0.00000000000E+00  0.54989651224E+03  0.54989651224E+03  0.00000000000E+00 0. -1.
          4   -1    0    0  501    0  0.00000000000E+00 -0.00000000000E+00 -0.28241626284E+02  0.28241626284E+02  0.00000000000E+00 0.  1.
         23    2    1    2    0    0  0.11311443288E+01 -0.40347605957E+02  0.39243605914E+03  0.41383654224E+03  0.12500165752E+03 0.  0.
         23    2    1    2    0    0 -0.11311443288E+01  0.40347605957E+02  0.12921882681E+03  0.16430159628E+03  0.93103708542E+02 0.  0.
          5    1    3    3  502    0 -0.48298780494E+02  0.49523967250E+01  0.26805503547E+03  0.27245713511E+03  0.47000000000E+01 0.  1.
         -5    1    3    3    0  502  0.49429924823E+02 -0.45300002682E+02  0.12438102367E+03  0.14137940713E+03  0.47000000000E+01 0.  1.
        -11    1    4    4    0    0  0.14071991622E+02  0.65197342578E+01 -0.11159612902E+02  0.19106670121E+02  0.00000000000E+00 0.  1.
         11    1    4    4    0    0 -0.15203135951E+02  0.33827871699E+02  0.14037843971E+03  0.14519492616E+03  0.00000000000E+00 0. -1.
<mgrwt>
<rscale>  0 0.12314905E+03</rscale>
<asrwt>0</asrwt>
<pdfrwt beam="2">  1        4 0.43448660E-02 0.13135685E+03</pdfrwt>
<pdfrwt beam="1">  1       -4 0.84599456E-01 0.13135685E+03</pdfrwt>
<totfact> 0.61906752E+02</totfact>
</mgrwt>
</event>
<event>
 8    1  0.1154424E-005  0.1801734E+03  0.7546771E-02  0.1173131E+00
          3   -1    0    0  501    0  0.00000000000E+00  0.00000000000E+00  0.64842942226E+03  0.64842942226E+03  0.00000000000E+00 0. -1.
         -3   -1    0    0    0  501 -0.00000000000E+00 -0.00000000000E+00 -0.53709813967E+02  0.53709813967E+02  0.00000000000E+00 0.  1.
         23    2    1    2    0    0 -0.10562058061E+03 -0.75383022163E+02  0.16626129702E+03  0.24516374130E+03  0.12499653628E+03 0.  0.
         23    2    1    2    0    0  0.10562058061E+03  0.75383022163E+02  0.42845831128E+03  0.45697549493E+03  0.91715709594E+02 0.  0.
          5    1    3    3  502    0  0.16015261007E+02 -0.32311328774E+02  0.22679994200E+01  0.36438226818E+02  0.47000000000E+01 0. -1.
         -5    1    3    3    0  502 -0.12163584162E+03 -0.43071693389E+02  0.16399329760E+03  0.20872551448E+03  0.47000000000E+01 0. -1.
        -11    1    4    4    0    0  0.31401913876E+02  0.78519366535E+02  0.23392040635E+03  0.24873706523E+03  0.00000000000E+00 0. -1.
         11    1    4    4    0    0  0.74218666735E+02 -0.31363443714E+01  0.19453790493E+03  0.20823842970E+03  0.00000000000E+00 0.  1.
<mgrwt>
<rscale>  0 0.17460263E+03</rscale>
<asrwt>0</asrwt>
<pdfrwt beam="1">  1        3 0.99758367E-01 0.18017336E+03</pdfrwt>
<pdfrwt beam="2">  1       -3 0.82630488E-02 0.18017336E+03</pdfrwt>
<totfact> 0.22277979E+02</totfact>
</mgrwt>
</event>
<event>
 8    1  0.1154424E-005  0.1308422E+03  0.7546771E-02  0.1239881E+00
          1   -1    0    0  501    0  0.00000000000E+00  0.00000000000E+00  0.57869160595E+02  0.57869160595E+02  0.00000000000E+00 0. -1.
         -1   -1    0    0    0  501 -0.00000000000E+00 -0.00000000000E+00 -0.25407992133E+03  0.25407992133E+03  0.00000000000E+00 0.  1.
         23    2    1    2    0    0  0.38623562885E+02 -0.26456325988E+01 -0.16007133991E+03  0.20674263651E+03  0.12498361856E+03 0.  0.
         23    2    1    2    0    0 -0.38623562885E+02  0.26456325988E+01 -0.36139420824E+02  0.10520644542E+03  0.90904122226E+02 0.  0.
          5    1    3    3  502    0  0.30727606387E+01 -0.85742383462E+01 -0.16900372719E+03  0.16931423220E+03  0.47000000000E+01 0. -1.
         -5    1    3    3    0  502  0.35550802246E+02  0.59286057475E+01  0.89323872811E+01  0.37428404307E+02  0.47000000000E+01 0. -1.
        -11    1    4    4    0    0 -0.44301944851E+02 -0.19467831902E+02  0.13779458310E+02  0.50314334616E+02  0.00000000000E+00 0. -1.
         11    1    4    4    0    0  0.56783819665E+01  0.22113464501E+02 -0.49918879134E+02  0.54892110799E+02  0.00000000000E+00 0.  1.
<mgrwt>
<rscale>  0 0.12197059E+03</rscale>
<asrwt>0</asrwt>
<pdfrwt beam="1">  1        1 0.89029477E-02 0.13084221E+03</pdfrwt>
<pdfrwt beam="2">  1       -1 0.39089219E-01 0.13084221E+03</pdfrwt>
<totfact> 0.46073705E+03</totfact>
</mgrwt>
</event>
<event>
 8    1  0.1154424E-005  0.1495603E+03  0.7546771E-02  0.1210140E+00
         -2   -1    0    0    0  501 -0.00000000000E+00  0.00000000000E+00  0.84058921989E+02  0.84058921989E+02  0.00000000000E+00 0.  1.
          2   -1    0    0  501    0  0.00000000000E+00 -0.00000000000E+00 -0.22350055636E+03  0.22350055636E+03  0.00000000000E+00 0. -1.
         23    2    1    2    0    0  0.59366718858E+02  0.56720817475E+02 -0.59580756942E+02  0.16099116659E+03  0.12500652255E+03 0.  0.
         23    2    1    2    0    0 -0.59366718858E+02 -0.56720817475E+02 -0.79860877430E+02  0.14656831176E+03  0.91448629426E+02 0.  0.
          5    1    3    3  502    0  0.29742717403E+02  0.77728393890E+02  0.83953038933E+01  0.83778897001E+02  0.47000000000E+01 0.  1.
         -5    1    3    3    0  502  0.29624001455E+02 -0.21007576415E+02 -0.67976060835E+02  0.77212269593E+02  0.47000000000E+01 0.  1.
        -11    1    4    4    0    0  0.17024649234E+02 -0.39562040167E+02 -0.39694411402E+02  0.58571665507E+02  0.00000000000E+00 0.  1.
         11    1    4    4    0    0 -0.76391368092E+02 -0.17158777309E+02 -0.40166466028E+02  0.87996646248E+02  0.00000000000E+00 0. -1.
<mgrwt>
<rscale>  0 0.14239693E+03</rscale>
<asrwt>0</asrwt>
<pdfrwt beam="2">  1        2 0.34384701E-01 0.14956032E+03</pdfrwt>
<pdfrwt beam="1">  1       -2 0.12932142E-01 0.14956032E+03</pdfrwt>
<totfact> 0.63235839E+03</totfact>
</mgrwt>
</event>
<event>
 8    1  0.1154424E-005  0.1276899E+03  0.7546771E-02  0.1245834E+00
         -2   -1    0    0    0  501 -0.00000000000E+00  0.00000000000E+00  0.18485238635E+02  0.18485238635E+02  0.00000000000E+00 0.  1.
          2   -1    0    0  501    0  0.00000000000E+00 -0.00000000000E+00 -0.67179736761E+03  0.67179736761E+03  0.00000000000E+00 0. -1.
         23    2    1    2    0    0 -0.23160124222E+02  0.11953617805E+02 -0.34425999124E+03  0.36717797237E+03  0.12500176595E+03 0.  0.
         23    2    1    2    0    0  0.23160124222E+02 -0.11953617805E+02 -0.30905213773E+03  0.32310463388E+03  0.90576488467E+02 0.  0.
          5    1    3    3  502    0 -0.68205825656E+02  0.10595543468E+02 -0.12114035385E+03  0.13950403408E+03  0.47000000000E+01 0.  1.
         -5    1    3    3    0  502  0.45045701435E+02  0.13580743369E+01 -0.22311963739E+03  0.22767393829E+03  0.47000000000E+01 0.  1.
        -11    1    4    4    0    0  0.10685587821E+02  0.38939833201E+02 -0.10691457529E+03  0.11428568942E+03  0.00000000000E+00 0.  1.
         11    1    4    4    0    0  0.12474536400E+02 -0.50893451006E+02 -0.20213756245E+03  0.20881894446E+03  0.00000000000E+00 0. -1.
<mgrwt>
<rscale>  0 0.11835587E+03</rscale>
<asrwt>0</asrwt>
<pdfrwt beam="2">  1        2 0.10335345E+00 0.12768994E+03</pdfrwt>
<pdfrwt beam="1">  1       -2 0.28438826E-02 0.12768994E+03</pdfrwt>
<totfact> 0.19045391E+04</totfact>
</mgrwt>
</event>
<event>
 7    1  0.1154424E-005  0.2708908E+03  0.7546771E-02  0.1100771E+00
          2   -1    0    0  501    0  0.00000000000E+00  0.00000000000E+00  0.74637460101E+03  0.74637460101E+03  0.00000000000E+00 0. -1.
         -2   -1    0    0    0  501 -0.00000000000E+00 -0.00000000000E+00 -0.24579427906E+02  0.24579427906E+02  0.00000000000E+00 0.  1.
         23    2    1    2    0    0  0.41229531852E+02 -0.42051251111E+02  0.24304312042E+03  0.26604839855E+03  0.90794327855E+02 0.  0.
          5    1    1    2  502    0  0.56152010597E+02  0.83066725001E+01  0.15658158465E+03  0.16661912181E+03  0.47000000000E+01 0. -1.
         -5    1    1    2    0  502 -0.97381542450E+02  0.33744578611E+02  0.32217046803E+03  0.33828650855E+03  0.47000000000E+01 0.  1.
        -11    1    3    3    0    0 -0.21189722344E+02  0.12788158777E+02  0.46816016778E+02  0.52955460199E+02  0.00000000000E+00 0.  1.
         11    1    3    3    0    0  0.62419254196E+02 -0.54839409888E+02  0.19622710364E+03  0.21309293835E+03  0.00000000000E+00 0. -1.
<mgrwt>
<rscale>  0 0.27089083E+03</rscale>
<asrwt>0</asrwt>
<pdfrwt beam="1">  1        2 0.11482684E+00 0.27089083E+03</pdfrwt>
<pdfrwt beam="2">  1       -2 0.37814510E-02 0.27089083E+03</pdfrwt>
<totfact> 0.11537427E+04</totfact>
</mgrwt>
</event>
<event>
 8    1  0.1154424E-005  0.1422689E+03  0.7546771E-02  0.1221067E+00
          2   -1    0    0  501    0  0.00000000000E+00  0.00000000000E+00  0.39839430809E+02  0.39839430809E+02  0.00000000000E+00 0. -1.
         -2   -1    0    0    0  501 -0.00000000000E+00 -0.00000000000E+00 -0.58782751870E+03  0.58782751870E+03  0.00000000000E+00 0.  1.
         23    2    1    2    0    0 -0.62094563367E+02  0.27548697065E+02 -0.46751805528E+03  0.48868554676E+03  0.12500306434E+03 0.  0.
         23    2    1    2    0    0  0.62094563367E+02 -0.27548697065E+02 -0.80470032612E+02  0.13898140275E+03  0.90695857958E+02 0.  0.
          5    1    3    3  502    0 -0.29238450319E+01 -0.50879864896E+01 -0.36928669697E+03  0.36936322372E+03  0.47000000000E+01 0. -1.
         -5    1    3    3    0  502 -0.59170718335E+02  0.32636683555E+02 -0.98231358305E+02  0.11932232304E+03  0.47000000000E+01 0. -1.
        -11    1    4    4    0    0 -0.87549974755E+00  0.28780163194E+02 -0.21955473415E+02  0.36209213001E+02  0.00000000000E+00 0. -1.
         11    1    4    4    0    0  0.62970063114E+02 -0.56328860259E+02 -0.58514559197E+02  0.10277218974E+03  0.00000000000E+00 0.  1.
<mgrwt>
<rscale>  0 0.13440170E+03</rscale>
<asrwt>0</asrwt>
<pdfrwt beam="1">  1        2 0.61291435E-02 0.14226887E+03</pdfrwt>
<pdfrwt beam="2">  1       -2 0.90434998E-01 0.14226887E+03</pdfrwt>
<totfact> 0.12615268E+03</totfact>
</mgrwt>
</event>
<event>
 8    1  0.1154424E-005  0.1743044E+03  0.7546771E-02  0.1179458E+00
         -1   -1    0    0    0  501 -0.00000000000E+00  0.00000000000E+00  0.29044723558E+03  0.29044723558E+03  0.00000000000E+00 0.  1.
          1   -1    0    0  501    0  0.00000000000E+00 -0.00000000000E+00 -0.97405271678E+02  0.97405271678E+02  0.00000000000E+00 0. -1.
         23    2    1    2    0    0 -0.96228575821E+02  0.74146784957E+02  0.14953107998E+03  0.22965531477E+03  0.12499734076E+03 0.  0.
         23    2    1    2    0    0  0.96228575821E+02 -0.74146784957E+02  0.43510883923E+02  0.15819719249E+03  0.91517594857E+02 0.  0.
          5    1    3    3  502    0 -0.54678662162E+02  0.10586187637E+03  0.12116327226E+03  0.16999741619E+03  0.47000000000E+01 0.  1.
         -5    1    3    3    0  502 -0.41549913659E+02 -0.31715091414E+02  0.28367807715E+02  0.59657898580E+02  0.47000000000E+01 0.  1.
        -11    1    4    4    0    0 -0.49704893157E+01 -0.36678262795E+02 -0.91399822039E+01  0.38125319676E+02  0.00000000000E+00 0. -1.
         11    1    4    4    0    0  0.10119906514E+03 -0.37468522162E+02  0.52650866127E+02  0.12007187282E+03  0.00000000000E+00 0.  1.
<mgrwt>
<rscale>  0 0.16846535E+03</rscale>
<asrwt>0</asrwt>
<pdfrwt beam="2">  1        1 0.14985427E-01 0.17430439E+03</pdfrwt>
<pdfrwt beam="1">  1       -1 0.44684190E-01 0.17430439E+03</pdfrwt>
<totfact> 0.18555396E+03</totfact>
</mgrwt>
</event>
<event>
 8    1  0.1154424E-005  0.1574269E+03  0.7546771E-02  0.1199837E+00
          3   -1    0    0  501    0  0.00000000000E+00  0.00000000000E+00  0.24735264727E+02  0.24735264727E+02  0.00000000000E+00 0. -1.
         -3   -1    0    0    0  501 -0.00000000000E+00 -0.00000000000E+00 -0.91263878438E+03  0.91263878438E+03  0.00000000000E+00 0.  1.
         23    2    1    2    0    0 -0.90608820177E+02  0.30798422641E+02 -0.60868486039E+03  0.62871335972E+03  0.12499891314E+03 0.  0.
         23    2    1    2    0    0  0.90608820177E+02 -0.30798422641E+02 -0.27921865926E+03  0.30866068938E+03  0.90276577048E+02 0.  0.
          5    1    3    3  502    0 -0.98218620015E+02 -0.64223866260E+01 -0.54923655400E+03  0.55800629622E+03  0.47000000000E+01 0.  1.
         -5    1    3    3    0  502  0.76097998377E+01  0.37220809267E+02 -0.59448306390E+02  0.70707063499E+02  0.47000000000E+01 0.  1.
        -11    1    4    4    0    0  0.83930759838E+02  0.67501676276E+01 -0.23823410151E+03  0.25267652114E+03  0.00000000000E+00 0.  1.
         11    1    4    4    0    0  0.66780603388E+01 -0.37548590268E+02 -0.40984557745E+02  0.55984168249E+02  0.00000000000E+00 0. -1.
<mgrwt>
<rscale>  0 0.15051896E+03</rscale>
<asrwt>0</asrwt>
<pdfrwt beam="1">  1        3 0.38054251E-02 0.15742690E+03</pdfrwt>
<pdfrwt beam="2">  1       -3 0.14040597E+00 0.15742690E+03</pdfrwt>
<totfact> 0.33715600E+02</totfact>
</mgrwt>
</event>
<event>
 8    1  0.1154424E-005  0.1331991E+03  0.7546771E-02  0.1235276E+00
          2   -1    0    0  501    0  0.00000000000E+00  0.00000000000E+00  0.16466218948E+03  0.16466218948E+03  0.00000000000E+00 0. -1.
         -2   -1    0    0    0  501 -0.00000000000E+00 -0.00000000000E+00 -0.87049278318E+02  0.87049278318E+02  0.00000000000E+00 0.  1.
         23    2    1    2    0    0 -0.19342421041E+02 -0.41758720814E+02  0.22760605173E+02  0.13512973359E+03  0.12499631889E+03 0.  0.
         23    2    1    2    0    0  0.19342421041E+02  0.41758720814E+02  0.54852305991E+02  0.11658173421E+03  0.92003289417E+02 0.  0.
          5    1    3    3  502    0 -0.28075584183E+02 -0.83933506742E+02  0.65495748713E+01  0.88871024030E+02  0.47000000000E+01 0. -1.
         -5    1    3    3    0  502  0.87331631413E+01  0.42174785928E+02  0.16211030302E+02  0.46258709558E+02  0.47000000000E+01 0. -1.
        -11    1    4    4    0    0  0.43765366758E+02  0.56526720902E+02  0.26196544751E+02  0.76137615278E+02  0.00000000000E+00 0.  1.
         11    1    4    4    0    0 -0.24422945717E+02 -0.14768000087E+02  0.28655761240E+02  0.40444118933E+02  0.00000000000E+00 0. -1.
<mgrwt>
<rscale>  0 0.12486756E+03</rscale>
<asrwt>0</asrwt>
<pdfrwt beam="1">  1        2 0.25332644E-01 0.13319910E+03</pdfrwt>
<pdfrwt beam="2">  1       -2 0.13392197E-01 0.13319910E+03</pdfrwt>
<totfact> 0.82645963E+03</totfact>
</mgrwt>
</event>
<event>
 8    1  0.1154424E-005  0.1252969E+03  0.7546771E-02  0.1266158E+00
         -2   -1    0    0    0  501 -0.00000000000E+00  0.00000000000E+00  0.24490742900E+02  0.24490742900E+02  0.00000000000E+00 0.  1.
          2   -1    0    0  501    0  0.00000000000E+00 -0.00000000000E+00 -0.37649946768E+03  0.37649946768E+03  0.00000000000E+00 0. -1.
         23    2    1    2    0    0  0.85098037245E+01 -0.73951851087E+00 -0.23272730867E+03  0.26431289502E+03  0.12500537038E+03 0.  0.
         23    2    1    2    0    0 -0.85098037245E+01  0.73951851087E+00 -0.11928141611E+03  0.13667731556E+03  0.66179065519E+02 0.  0.
          5    1    3    3  502    0 -0.20740973523E+01 -0.10967096219E+02  0.13192389824E+02  0.17908328470E+02  0.47000000000E+01 0.  1.
         -5    1    3    3    0  502  0.10583901077E+02  0.10227577708E+02 -0.24591969850E+03  0.24640456655E+03  0.47000000000E+01 0.  1.
        -11    1    4    4    0    0 -0.77840372379E+00 -0.24589189613E+02 -0.14404021324E+02  0.28508068831E+02  0.00000000000E+00 0.  1.
         11    1    4    4    0    0 -0.77314000007E+01  0.25328708124E+02 -0.10487739478E+03  0.10816924673E+03  0.00000000000E+00 0. -1.
<mgrwt>
<rscale>  0 0.10703659E+03</rscale>
<asrwt>0</asrwt>
<pdfrwt beam="2">  1        2 0.57922989E-01 0.12529687E+03</pdfrwt>
<pdfrwt beam="1">  1       -2 0.37678070E-02 0.12529687E+03</pdfrwt>
<totfact> 0.23791543E+04</totfact>
</mgrwt>
</event>
<event>
 8    1  0.1154424E-005  0.1863748E+03  0.7546771E-02  0.1166820E+00
          2   -1    0    0  501    0  0.00000000000E+00  0.00000000000E+00  0.88963239753E+03  0.88963239753E+03  0.00000000000E+00 0. -1.
         -2   -1    0    0    0  501 -0.00000000000E+00 -0.00000000000E+00 -0.34987393488E+02  0.34987393488E+02  0.00000000000E+00 0.  1.
         23    2    1    2    0    0  0.11138365775E+03  0.81873870233E+02  0.42487022101E+03  0.46395070193E+03  0.12500359707E+03 0.  0.
         23    2    1    2    0    0 -0.11138365775E+03 -0.81873870233E+02  0.42977478304E+03  0.46066908909E+03  0.91651490277E+02 0.  0.
          5    1    3    3  502    0  0.10463600338E+03  0.30395313236E+02  0.37943627855E+03  0.39479937658E+03  0.47000000000E+01 0.  1.
         -5    1    3    3    0  502  0.67476543739E+01  0.51478556996E+02  0.45433942458E+02  0.69151325347E+02  0.47000000000E+01 0.  1.
        -11    1    4    4    0    0 -0.12296329580E+02 -0.56038463255E+02  0.21820388192E+03  0.22562013024E+03  0.00000000000E+00 0.  1.
         11    1    4    4    0    0 -0.99087328170E+02 -0.25835406978E+02  0.21157090112E+03  0.23504895885E+03  0.00000000000E+00 0. -1.
<mgrwt>
<rscale>  0 0.18101974E+03</rscale>
<asrwt>0</asrwt>
<pdfrwt beam="1">  1        2 0.13686651E+00 0.18637475E+03</pdfrwt>
<pdfrwt beam="2">  1       -2 0.53826766E-02 0.18637475E+03</pdfrwt>
<totfact> 0.53159042E+03</totfact>
</mgrwt>
</event>
<event>
 8    1  0.1154424E-005  0.1332275E+03  0.7546771E-02  0.1234831E+00
          1   -1    0    0  501    0  0.00000000000E+00  0.00000000000E+00  0.33419438392E+03  0.33419438392E+03  0.00000000000E+00 0.  1.
         -1   -1    0    0    0  501 -0.00000000000E+00 -0.00000000000E+00 -0.42009519460E+02  0.42009519460E+02  0.00000000000E+00 0. -1.
         23    2    1    2    0    0  0.73122995753E+01 -0.45494421593E+02  0.16429733302E+03  0.21152582983E+03  0.12500540359E+03 0.  0.
         23    2    1    2    0    0 -0.73122995753E+01  0.45494421593E+02  0.12788753143E+03  0.16467807355E+03  0.92953940691E+02 0.  0.
          5    1    3    3  502    0 -0.17185609016E+02 -0.14131592626E+02 -0.15367449898E+02  0.27446230775E+02  0.47000000000E+01 0. -1.
         -5    1    3    3    0  502  0.24497908591E+02 -0.31362828966E+02  0.17966478292E+03  0.18407959905E+03  0.47000000000E+01 0. -1.
        -11    1    4    4    0    0  0.38461548907E+02  0.91606297972E+00  0.35500899638E+02  0.52349248235E+02  0.00000000000E+00 0. -1.
         11    1    4    4    0    0 -0.45773848482E+02  0.44578358613E+02  0.92386631796E+02  0.11232882531E+03  0.00000000000E+00 0.  1.
<mgrwt>
<rscale>  0 0.12515272E+03</rscale>
<asrwt>0</asrwt>
<pdfrwt beam="1">  1        1 0.51414519E-01 0.13322749E+03</pdfrwt>
<pdfrwt beam="2">  1       -1 0.64630032E-02 0.13322749E+03</pdfrwt>
<totfact> 0.86414440E+03</totfact>
</mgrwt>
</event>
<event>
 8    1  0.1154424E-005  0.2304953E+03  0.7546771E-02  0.1129260E+00
         -3   -1    0    0    0  501 -0.00000000000E+00  0.00000000000E+00  0.30993117038E+03  0.30993117038E+03  0.00000000000E+00 0.  1.
          3   -1    0    0  501    0  0.00000000000E+00 -0.00000000000E+00 -0.19776481883E+03  0.19776481883E+03  0.00000000000E+00 0. -1.
         23    2    1    2    0    0 -0.19094003559E+03  0.32338150801E+02  0.16928655622E+03  0.28598257350E+03  0.12499696414E+03 0.  0.
         23    2    1    2    0    0  0.19094003559E+03 -0.32338150801E+02 -0.57120204672E+02  0.22171341571E+03  0.91598404657E+02 0.  0.
          5    1    3    3  502    0 -0.74501841300E+02  0.94368811503E+01 -0.46283350263E+01  0.75386275727E+02  0.47000000000E+01 0.  1.
         -5    1    3    3    0  502 -0.11643819429E+03  0.22901269651E+02  0.17391489124E+03  0.21059629778E+03  0.47000000000E+01 0.  1.
        -11    1    4    4    0    0  0.16711912297E+03  0.16888303275E+01 -0.65205622541E+02  0.17939739859E+03  0.00000000000E+00 0. -1.
         11    1    4    4    0    0  0.23820912621E+02 -0.34026981129E+02  0.80854178685E+01  0.42316017121E+02  0.00000000000E+00 0.  1.
<mgrwt>
<rscale>  0 0.22631650E+03</rscale>
<asrwt>0</asrwt>
<pdfrwt beam="2">  1        3 0.30425357E-01 0.23049532E+03</pdfrwt>
<pdfrwt beam="1">  1       -3 0.47681718E-01 0.23049532E+03</pdfrwt>
<totfact> 0.11366369E+02</totfact>
</mgrwt>
</event>
<event>
 8    1  0.1154424E-005  0.2130984E+03  0.7546771E-02  0.1142829E+00
          1   -1    0    0  501    0  0.00000000000E+00  0.00000000000E+00  0.38838804646E+03  0.38838804646E+03  0.00000000000E+00 0. -1.
         -1   -1    0    0    0  501 -0.00000000000E+00 -0.00000000000E+00 -0.14883636687E+03  0.14883636687E+03  0.00000000000E+00 0.  1.
         23    2    1    2    0    0 -0.11195170032E+03 -0.13134706205E+03 -0.18388246610E+02  0.21389030020E+03  0.12500279593E+03 0.  0.
         23    2    1    2    0    0  0.11195170032E+03  0.13134706205E+03  0.25793992620E+03  0.32333411313E+03  0.90701208764E+02 0.  0.
          5    1    3    3  502    0  0.11210872166E+02 -0.23260502023E+02 -0.40718578333E+02  0.48444062903E+02  0.47000000000E+01 0. -1.
         -5    1    3    3    0  502 -0.12316257249E+03 -0.10808656003E+03  0.22330331724E+02  0.16544623730E+03  0.47000000000E+01 0. -1.
        -11    1    4    4    0    0  0.93841503108E+02  0.13552542832E+03  0.18376567654E+03  0.24686675212E+03  0.00000000000E+00 0.  1.
         11    1    4    4    0    0  0.18110197211E+02 -0.41783662647E+01  0.74174249664E+02  0.76467361017E+02  0.00000000000E+00 0. -1.
<mgrwt>
<rscale>  0 0.20841317E+03</rscale>
<asrwt>0</asrwt>
<pdfrwt beam="1">  1        1 0.59752007E-01 0.21309841E+03</pdfrwt>
<pdfrwt beam="2">  1       -1 0.22897903E-01 0.21309841E+03</pdfrwt>
<totfact> 0.10148167E+03</totfact>
</mgrwt>
</event>
<event>
 8    1  0.1154424E-005  0.1364961E+03  0.7546771E-02  0.1229980E+00
          2   -1    0    0  501    0  0.00000000000E+00  0.00000000000E+00  0.24575095995E+03  0.24575095995E+03  0.00000000000E+00 0. -1.
         -2   -1    0    0    0  501 -0.00000000000E+00 -0.00000000000E+00 -0.62077501779E+02  0.62077501779E+02  0.00000000000E+00 0.  1.
         23    2    1    2    0    0  0.54794574617E+02  0.42865889148E+00  0.75603608560E+02  0.15603553680E+03  0.12501421503E+03 0.  0.
         23    2    1    2    0    0 -0.54794574617E+02 -0.42865889148E+00  0.10806984961E+03  0.15179292494E+03  0.91429593178E+02 0.  0.
          5    1    3    3  502    0  0.24511099855E+01 -0.33211159970E+02 -0.22001896879E+02  0.40189084998E+02  0.47000000000E+01 0.  1.
         -5    1    3    3    0  502  0.52343464632E+02  0.33639818862E+02  0.97605505439E+02  0.11584645180E+03  0.47000000000E+01 0.  1.
        -11    1    4    4    0    0 -0.14412456552E+02 -0.26105666412E+02  0.98600168189E+02  0.10301076589E+03  0.00000000000E+00 0. -1.
         11    1    4    4    0    0 -0.40382118065E+02  0.25677007521E+02  0.94696814253E+01  0.48782159043E+02  0.00000000000E+00 0.  1.
<mgrwt>
<rscale>  0 0.12831340E+03</rscale>
<asrwt>0</asrwt>
<pdfrwt beam="1">  1        2 0.37807839E-01 0.13649609E+03</pdfrwt>
<pdfrwt beam="2">  1       -2 0.95503850E-02 0.13649609E+03</pdfrwt>
<totfact> 0.91865516E+03</totfact>
</mgrwt>
</event>
<event>
 8    1  0.1154424E-005  0.1420609E+03  0.7546771E-02  0.1221489E+00
         -1   -1    0    0    0  501 -0.00000000000E+00  0.00000000000E+00  0.56141175860E+03  0.56141175860E+03  0.00000000000E+00 0.  1.
          1   -1    0    0  501    0  0.00000000000E+00 -0.00000000000E+00 -0.30984063327E+02  0.30984063327E+02  0.00000000000E+00 0. -1.
         23    2    1    2    0    0  0.55846388305E+02 -0.37912406470E+02  0.36947142360E+03  0.39584141374E+03  0.12500048930E+03 0.  0.
         23    2    1    2    0    0 -0.55846388305E+02  0.37912406470E+02  0.16095627167E+03  0.19655440818E+03  0.90391063357E+02 0.  0.
          5    1    3    3  502    0  0.83836889405E+02 -0.55977397447E+02  0.21170485449E+03  0.23452745780E+03  0.47000000000E+01 0. -1.
         -5    1    3    3    0  502 -0.27990501100E+02  0.18064990977E+02  0.15776656912E+03  0.16131395594E+03  0.47000000000E+01 0. -1.
        -11    1    4    4    0    0 -0.22436033231E+02  0.52559910458E+02  0.14661051329E+03  0.15735489310E+03  0.00000000000E+00 0.  1.
         11    1    4    4    0    0 -0.33410355074E+02 -0.14647503989E+02  0.14345758377E+02  0.39199515083E+02  0.00000000000E+00 0. -1.
<mgrwt>
<rscale>  0 0.13410513E+03</rscale>
<asrwt>0</asrwt>
<pdfrwt beam="2">  1        1 0.47667794E-02 0.14206087E+03</pdfrwt>
<pdfrwt beam="1">  1       -1 0.86371032E-01 0.14206087E+03</pdfrwt>
<totfact> 0.23955139E+03</totfact>
</mgrwt>
</event>
<event>
 8    1  0.1154424E-005  0.1530166E+03  0.7546771E-02  0.1204439E+00
          2   -1    0    0  501    0  0.00000000000E+00  0.00000000000E+00  0.30841891073E+03  0.30841891073E+03  0.00000000000E+00 0. -1.
         -2   -1    0    0    0  501 -0.00000000000E+00 -0.00000000000E+00 -0.70936905295E+02  0.70936905295E+02  0.00000000000E+00 0.  1.
         23    2    1    2    0    0  0.42374120685E+02  0.77409185305E+02  0.71997227330E+02  0.16910850738E+03  0.12500535370E+03 0.  0.
         23    2    1    2    0    0 -0.42374120685E+02 -0.77409185305E+02  0.16548477811E+03  0.21024730864E+03  0.95031420766E+02 0.  0.
          5    1    3    3  502    0  0.26543857905E+02 -0.11841412760E+02  0.72597843228E+02  0.78341127704E+02  0.47000000000E+01 0. -1.
         -5    1    3    3    0  502  0.15830262779E+02  0.89250598065E+02 -0.60061589798E+00  0.90767379680E+02  0.47000000000E+01 0. -1.
        -11    1    4    4    0    0 -0.11441200343E+02 -0.93607835448E+02  0.12840240472E+03  0.15931260296E+03  0.00000000000E+00 0.  1.
         11    1    4    4    0    0 -0.30932920342E+02  0.16198650143E+02  0.37082373385E+02  0.50934705685E+02  0.00000000000E+00 0. -1.
<mgrwt>
<rscale>  0 0.14681758E+03</rscale>
<asrwt>0</asrwt>
<pdfrwt beam="1">  1        2 0.47449062E-01 0.15301662E+03</pdfrwt>
<pdfrwt beam="2">  1       -2 0.10913370E-01 0.15301662E+03</pdfrwt>
<totfact> 0.58909142E+03</totfact>
</mgrwt>
</event>
<event>
 7    1  0.1154424E-005  0.1983090E+03  0.7546771E-02  0.1171275E+00
         -1   -1    0    0    0  501 -0.00000000000E+00  0.00000000000E+00  0.70723585699E+02  0.70723585699E+02  0.00000000000E+00 0.  1.
          1   -1    0    0  501    0  0.00000000000E+00 -0.00000000000E+00 -0.42641530775E+03  0.42641530775E+03  0.00000000000E+00 0. -1.
         23    2    1    2    0    0  0.38347250371E+02  0.77044152541E+02 -0.23258404283E+03  0.26372521970E+03  0.89718122320E+02 0.  0.
          5    1    1    2  502    0 -0.63372744742E+02 -0.22058860101E+02 -0.15204758045E+03  0.16626260796E+03  0.47000000000E+01 0. -1.
         -5    1    1    2    0  502  0.25025494371E+02 -0.54985292440E+02  0.28939901233E+02  0.67151065789E+02  0.47000000000E+01 0.  1.
        -11    1    3    3    0    0  0.11662390473E+02  0.46334663771E+02 -0.28518325952E+02  0.55643574053E+02  0.00000000000E+00 0.  1.
         11    1    3    3    0    0  0.26684859898E+02  0.30709488771E+02 -0.20406571688E+03  0.20808164565E+03  0.00000000000E+00 0. -1.
<mgrwt>
<rscale>  0 0.17645854E+03</rscale>
<asrwt>0</asrwt>
<pdfrwt beam="2">  1        1 0.65602355E-01 0.19830896E+03</pdfrwt>
<pdfrwt beam="1">  1       -1 0.10880552E-01 0.19830896E+03</pdfrwt>
<totfact> 0.29386669E+03</totfact>
</mgrwt>
</event>
<event>
 8    1  0.1154424E-005  0.1363962E+03  0.7546771E-02  0.1230769E+00
          2   -1    0    0  501    0  0.00000000000E+00  0.00000000000E+00  0.26147033804E+03  0.26147033804E+03  0.00000000000E+00 0.  1.
         -2   -1    0    0    0  501 -0.00000000000E+00 -0.00000000000E+00 -0.55785833752E+02  0.55785833752E+02  0.00000000000E+00 0. -1.
         23    2    1    2    0    0 -0.50380666122E+02  0.20952281462E+02  0.11934229813E+03  0.18123605127E+03  0.12500684997E+03 0.  0.
         23    2    1    2    0    0  0.50380666122E+02 -0.20952281462E+02  0.86342206155E+02  0.13602012052E+03  0.89829210207E+02 0.  0.
          5    1    3    3  502    0  0.29354420398E+02  0.23606520792E+02  0.87185961438E+02  0.95091701493E+02  0.47000000000E+01 0. -1.
         -5    1    3    3    0  502 -0.79735086520E+02 -0.26542393299E+01  0.32156336697E+02  0.86144349777E+02  0.47000000000E+01 0. -1.
        -11    1    4    4    0    0  0.35389208413E+02  0.31249227211E+02  0.22796295061E+02  0.52426914289E+02  0.00000000000E+00 0. -1.
         11    1    4    4    0    0  0.14991457709E+02 -0.52201508673E+02  0.63545911093E+02  0.83593206235E+02  0.00000000000E+00 0.  1.
<mgrwt>
<rscale>  0 0.12779232E+03</rscale>
<asrwt>0</asrwt>
<pdfrwt beam="1">  1        2 0.40226205E-01 0.13639620E+03</pdfrwt>
<pdfrwt beam="2">  1       -2 0.85824361E-02 0.13639620E+03</pdfrwt>
<totfact> 0.10157953E+04</totfact>
</mgrwt>
</event>
<event>
 8    1  0.1154424E-005  0.1662759E+03  0.7546771E-02  0.1188135E+00
         -1   -1    0    0    0  501 -0.00000000000E+00  0.00000000000E+00  0.48130084424E+02  0.48130084424E+02  0.00000000000E+00 0.  1.
          1   -1    0    0  501    0  0.00000000000E+00 -0.00000000000E+00 -0.51553655989E+03  0.51553655989E+03  0.00000000000E+00 0. -1.
         23    2    1    2    0    0 -0.81683871223E+02 -0.73147044848E+02 -0.29668654380E+03  0.34010379676E+03  0.12499976923E+03 0.  0.
         23    2    1    2    0    0  0.81683871223E+02  0.73147044848E+02 -0.17071993167E+03  0.22356284756E+03  0.93873887488E+02 0.  0.
          5    1    3    3  502    0  0.21656487411E+02 -0.54708390140E+02 -0.81470469516E+02  0.10060585869E+03  0.47000000000E+01 0.  1.
         -5    1    3    3    0  502 -0.10334035863E+03 -0.18438654708E+02 -0.21521607428E+03  0.23949793807E+03  0.47000000000E+01 0.  1.
        -11    1    4    4    0    0 -0.17062465476E+02  0.49561728432E+01 -0.41139350162E+01  0.18237758599E+02  0.00000000000E+00 0.  1.
         11    1    4    4    0    0  0.98746336700E+02  0.68190872005E+02 -0.16660599665E+03  0.20532508896E+03  0.00000000000E+00 0. -1.
<mgrwt>
<rscale>  0 0.16049865E+03</rscale>
<asrwt>0</asrwt>
<pdfrwt beam="2">  1        1 0.79313312E-01 0.16627594E+03</pdfrwt>
<pdfrwt beam="1">  1       -1 0.74046288E-02 0.16627594E+03</pdfrwt>
<totfact> 0.41057732E+03</totfact>
</mgrwt>
</event>
<event>
 8    1  0.1154424E-005  0.1685195E+03  0.7546771E-02  0.1186680E+00
         -2   -1    0    0    0  501 -0.00000000000E+00  0.00000000000E+00  0.20694126614E+02  0.20694126614E+02  0.00000000000E+00 0.  1.
          2   -1    0    0  501    0  0.00000000000E+00 -0.00000000000E+00 -0.11758044085E+04  0.11758044085E+04  0.00000000000E+00 0. -1.
         23    2    1    2    0    0 -0.97668128576E+02 -0.56877049102E+02 -0.64825869491E+03  0.66980456555E+03  0.12499903380E+03 0.  0.
         23    2    1    2    0    0  0.97668128576E+02  0.56877049102E+02 -0.50685158695E+03  0.52669396954E+03  0.87942846784E+02 0.  0.
          5    1    3    3  502    0 -0.73819526770E+01 -0.64954448788E+02 -0.15537860361E+03  0.16863621824E+03  0.47000000000E+01 0.  1.
         -5    1    3    3    0  502 -0.90286175899E+02  0.80773996860E+01 -0.49288009131E+03  0.50116834732E+03  0.47000000000E+01 0.  1.
        -11    1    4    4    0    0  0.36598077990E+02  0.14354502711E+01 -0.47423675979E+02  0.59920654814E+02  0.00000000000E+00 0. -1.
         11    1    4    4    0    0  0.61070050586E+02  0.55441598831E+02 -0.45942791097E+03  0.46677331472E+03  0.00000000000E+00 0.  1.
<mgrwt>
<rscale>  0 0.16179982E+03</rscale>
<asrwt>0</asrwt>
<pdfrwt beam="2">  1        2 0.18089302E+00 0.16851950E+03</pdfrwt>
<pdfrwt beam="1">  1       -2 0.31837112E-02 0.16851950E+03</pdfrwt>
<totfact> 0.78457725E+03</totfact>
</mgrwt>
</event>
<event>
 8    1  0.1154424E-005  0.1253914E+03  0.7546771E-02  0.1250479E+00
         -4   -1    0    0    0  501 -0.00000000000E+00  0.00000000000E+00  0.56764406864E+02  0.56764406864E+02  0.00000000000E+00 0.  1.
          4   -1    0    0  501    0  0.00000000000E+00 -0.00000000000E+00 -0.24438192538E+03  0.24438192538E+03  0.00000000000E+00 0. -1.
         23    2    1    2    0    0  0.43332528147E+01  0.88727975120E+01 -0.47177811003E+02  0.13397290161E+03  0.12500195558E+03 0.  0.
         23    2    1    2    0    0 -0.43332528147E+01 -0.88727975120E+01 -0.14043970751E+03  0.16717343063E+03  0.90145109949E+02 0.  0.
          5    1    3    3  502    0  0.21456453746E+02 -0.12358630936E+02 -0.84118821720E+02  0.87813332322E+02  0.47000000000E+01 0.  1.
         -5    1    3    3    0  502 -0.17123200932E+02  0.21231428448E+02  0.36941010717E+02  0.46159569288E+02  0.47000000000E+01 0.  1.
        -11    1    4    4    0    0  0.42309067960E+02  0.33117066901E+01 -0.68178003760E+02  0.80307314919E+02  0.00000000000E+00 0.  1.
         11    1    4    4    0    0 -0.46642320775E+02 -0.12184504202E+02 -0.72261703750E+02  0.86866115711E+02  0.00000000000E+00 0. -1.
<mgrwt>
<rscale>  0 0.11563352E+03</rscale>
<asrwt>0</asrwt>
<pdfrwt beam="2">  1        4 0.37597220E-01 0.12539136E+03</pdfrwt>
<pdfrwt beam="1">  1       -4 0.87329856E-02 0.12539136E+03</pdfrwt>
<totfact> 0.10635448E+03</totfact>
</mgrwt>
</event>
<event>
 8    1  0.1154424E-005  0.1259557E+03  0.7546771E-02  0.1248413E+00
          1   -1    0    0  501    0  0.00000000000E+00  0.00000000000E+00  0.42462373352E+03  0.42462373352E+03  0.00000000000E+00 0. -1.
         -1   -1    0    0    0  501 -0.00000000000E+00 -0.00000000000E+00 -0.29250232222E+02  0.29250232222E+02  0.00000000000E+00 0.  1.
         23    2    1    2    0    0 -0.15552928597E+02  0.42791969519E+00  0.18552978442E+03  0.22424573219E+03  0.12499108286E+03 0.  0.
         23    2    1    2    0    0  0.15552928597E+02 -0.42791969519E+00  0.20984371687E+03  0.22962823355E+03  0.91938367557E+02 0.  0.
          5    1    3    3  502    0  0.17230835586E+02 -0.34008075233E+02  0.65105770205E+01  0.38960601756E+02  0.47000000000E+01 0.  1.
         -5    1    3    3    0  502 -0.32783764183E+02  0.34435994928E+02  0.17901920740E+03  0.18528513043E+03  0.47000000000E+01 0.  1.
        -11    1    4    4    0    0 -0.16624325261E+01 -0.37525462720E+02  0.39762260323E+02  0.54698824304E+02  0.00000000000E+00 0.  1.
         11    1    4    4    0    0  0.17215361123E+02  0.37097543025E+02  0.17008145655E+03  0.17492940925E+03  0.00000000000E+00 0. -1.
<mgrwt>
<rscale>  0 0.11683435E+03</rscale>
<asrwt>0</asrwt>
<pdfrwt beam="1">  1        1 0.65326724E-01 0.12595574E+03</pdfrwt>
<pdfrwt beam="2">  1       -1 0.45000360E-02 0.12595574E+03</pdfrwt>
<totfact> 0.10900211E+04</totfact>
</mgrwt>
</event>
<event>
 8    1  0.1154424E-005  0.1484258E+03  0.7546771E-02  0.1211698E+00
          2   -1    0    0  501    0  0.00000000000E+00  0.00000000000E+00  0.11639688867E+03  0.11639688867E+03  0.00000000000E+00 0. -1.
         -2   -1    0    0    0  501 -0.00000000000E+00 -0.00000000000E+00 -0.15664441087E+03  0.15664441087E+03  0.00000000000E+00 0.  1.
         23    2    1    2    0    0  0.77560869905E+02 -0.19798823468E+02 -0.21558625221E+02  0.14998331526E+03  0.12499015395E+03 0.  0.
         23    2    1    2    0    0 -0.77560869905E+02  0.19798823468E+02 -0.18688896986E+02  0.12305798428E+03  0.91576802046E+02 0.  0.
          5    1    3    3  502    0  0.13340200637E+02  0.50789881826E+02 -0.43738528234E+01  0.52903625939E+02  0.47000000000E+01 0.  1.
         -5    1    3    3    0  502  0.64220669268E+02 -0.70588705294E+02 -0.17184772398E+02  0.97079689321E+02  0.47000000000E+01 0.  1.
        -11    1    4    4    0    0 -0.43531204336E+02  0.11328228995E+02 -0.56016828668E+02  0.71841350329E+02  0.00000000000E+00 0.  1.
         11    1    4    4    0    0 -0.34029665569E+02  0.84705944733E+01  0.37327931682E+02  0.51216633949E+02  0.00000000000E+00 0. -1.
<mgrwt>
<rscale>  0 0.14121887E+03</rscale>
<asrwt>0</asrwt>
<pdfrwt beam="1">  1        2 0.17907214E-01 0.14842581E+03</pdfrwt>
<pdfrwt beam="2">  1       -2 0.24099140E-01 0.14842581E+03</pdfrwt>
<totfact> 0.46025990E+03</totfact>
</mgrwt>
</event>
<event>
 8    1  0.1154424E-005  0.2394296E+03  0.7546771E-02  0.1122926E+00
         -2   -1    0    0    0  501 -0.00000000000E+00  0.00000000000E+00  0.14356402241E+04  0.14356402241E+04  0.00000000000E+00 0. -1.
          2   -1    0    0  501    0  0.00000000000E+00 -0.00000000000E+00 -0.38043245053E+02  0.38043245053E+02  0.00000000000E+00 0.  1.
         23    2    1    2    0    0  0.32354160243E+02 -0.20163259182E+03  0.82346128353E+03  0.85756342550E+03  0.12499619799E+03 0.  0.
         23    2    1    2    0    0 -0.32354160243E+02  0.20163259182E+03  0.57413569555E+03  0.61612004369E+03  0.90937437633E+02 0.  0.
          5    1    3    3  502    0  0.48445466365E+02 -0.18632164975E+03  0.80663669509E+03  0.82930547342E+03  0.47000000000E+01 0.  1.
         -5    1    3    3    0  502 -0.16091306122E+02 -0.15310942061E+02  0.16824588441E+02  0.28257952079E+02  0.47000000000E+01 0.  1.
        -11    1    4    4    0    0 -0.11806755754E+02  0.13529314684E+03  0.24877676802E+03  0.28343167672E+03  0.00000000000E+00 0.  1.
         11    1    4    4    0    0 -0.20547404489E+02  0.66339444975E+02  0.32535892754E+03  0.33268836697E+03  0.00000000000E+00 0. -1.
<mgrwt>
<rscale>  0 0.23535551E+03</rscale>
<asrwt>0</asrwt>
<pdfrwt beam="2">  1        2 0.58528080E-02 0.23942962E+03</pdfrwt>
<pdfrwt beam="1">  1       -2 0.22086769E+00 0.23942962E+03</pdfrwt>
<totfact> 0.13657298E+02</totfact>
</mgrwt>
</event>
<event>
 8    1  0.1154424E-005  0.2044932E+03  0.7546771E-02  0.1152082E+00
         -2   -1    0    0    0  501 -0.00000000000E+00  0.00000000000E+00  0.68471118963E+02  0.68471118963E+02  0.00000000000E+00 0.  1.
          2   -1    0    0  501    0  0.00000000000E+00 -0.00000000000E+00 -0.55527170824E+03  0.55527170824E+03  0.00000000000E+00 0. -1.
         23    2    1    2    0    0 -0.11895776412E+03  0.10973001775E+03 -0.19571521032E+03  0.28305812851E+03  0.12500333646E+03 0.  0.
         23    2    1    2    0    0  0.11895776412E+03 -0.10973001775E+03 -0.29108537896E+03  0.34068469869E+03  0.71719869220E+02 0.  0.
          5    1    3    3  502    0 -0.32795085546E+02  0.83588574933E+02 -0.30689847537E+02  0.95008021962E+02  0.47000000000E+01 0. -1.
         -5    1    3    3    0  502 -0.86162678571E+02  0.26141442820E+02 -0.16502536278E+03  0.18805010655E+03  0.47000000000E+01 0. -1.
        -11    1    4    4    0    0  0.53570012700E+02 -0.72502769065E+02 -0.21749830994E+03  0.23543982800E+03  0.00000000000E+00 0. -1.
         11    1    4    4    0    0  0.65387751418E+02 -0.37227248688E+02 -0.73587069020E+02  0.10524487069E+03  0.00000000000E+00 0.  1.
<mgrwt>
<rscale>  0 0.19724839E+03</rscale>
<asrwt>0</asrwt>
<pdfrwt beam="2">  1        2 0.85426413E-01 0.20449318E+03</pdfrwt>
<pdfrwt beam="1">  1       -2 0.10534019E-01 0.20449318E+03</pdfrwt>
<totfact> 0.33299703E+03</totfact>
</mgrwt>
</event>
<event>
 8    1  0.1154424E-005  0.1448497E+03  0.7546771E-02  0.1214428E+00
          1   -1    0    0  501    0  0.00000000000E+00  0.00000000000E+00  0.52224857875E+03  0.52224857875E+03  0.00000000000E+00 0. -1.
         -1   -1    0    0    0  501 -0.00000000000E+00 -0.00000000000E+00 -0.35061146889E+02  0.35061146889E+02  0.00000000000E+00 0.  1.
         23    2    1    2    0    0 -0.13958561573E+02 -0.71834635087E+02  0.22656140065E+03  0.26890796489E+03  0.12500547618E+03 0.  0.
         23    2    1    2    0    0  0.13958561573E+02  0.71834635087E+02  0.26062603121E+03  0.28840176076E+03  0.99471559869E+02 0.  0.
          5    1    3    3  502    0 -0.69425540817E+02 -0.36431334398E+02  0.13219566179E+03  0.15376908285E+03  0.47000000000E+01 0. -1.
         -5    1    3    3    0  502  0.55466979244E+02 -0.35403300689E+02  0.94365738859E+02  0.11513888204E+03  0.47000000000E+01 0. -1.
        -11    1    4    4    0    0  0.49940665966E+02  0.29491130837E+02  0.18930000605E+03  0.19798557828E+03  0.00000000000E+00 0. -1.
         11    1    4    4    0    0 -0.35982104393E+02  0.42343504250E+02  0.71326025162E+02  0.90416182479E+02  0.00000000000E+00 0.  1.
<mgrwt>
<rscale>  0 0.13918601E+03</rscale>
<asrwt>0</asrwt>
<pdfrwt beam="1">  1        1 0.80345929E-01 0.14484966E+03</pdfrwt>
<pdfrwt beam="2">  1       -1 0.53940230E-02 0.14484966E+03</pdfrwt>
<totfact> 0.64434975E+03</totfact>
</mgrwt>
</event>
<event>
 8    1  0.1154424E-005  0.1322320E+03  0.7546771E-02  0.1238065E+00
          2   -1    0    0  501    0  0.00000000000E+00  0.00000000000E+00  0.41920084065E+03  0.41920084065E+03  0.00000000000E+00 0. -1.
         -2   -1    0    0    0  501 -0.00000000000E+00 -0.00000000000E+00 -0.31982203616E+02  0.31982203616E+02  0.00000000000E+00 0.  1.
         23    2    1    2    0    0 -0.39826438754E+02 -0.16195287901E+02  0.21817360235E+03  0.25511764507E+03  0.12504742896E+03 0.  0.
         23    2    1    2    0    0  0.39826438754E+02  0.16195287901E+02  0.16904503469E+03  0.19606539920E+03  0.89537614651E+02 0.  0.
          5    1    3    3  502    0 -0.81217383893E+02 -0.32332433500E+02  0.14258128331E+03  0.16731157178E+03  0.47000000000E+01 0. -1.
         -5    1    3    3    0  502  0.41390945140E+02  0.16137145599E+02  0.75592319043E+02  0.87806073286E+02  0.47000000000E+01 0. -1.
        -11    1    4    4    0    0  0.35863870391E+02 -0.25025314734E+02  0.13668506186E+03  0.14351059095E+03  0.00000000000E+00 0. -1.
         11    1    4    4    0    0  0.39625683631E+01  0.41220602635E+02  0.32359972824E+02  0.52554808256E+02  0.00000000000E+00 0.  1.
<mgrwt>
<rscale>  0 0.12310247E+03</rscale>
<asrwt>0</asrwt>
<pdfrwt beam="1">  1        2 0.64492433E-01 0.13223196E+03</pdfrwt>
<pdfrwt beam="2">  1       -2 0.49203393E-02 0.13223196E+03</pdfrwt>
<totfact> 0.14328280E+04</totfact>
</mgrwt>
</event>
<event>
 8    1  0.1154424E-005  0.2122441E+03  0.7546771E-02  0.1143807E+00
          1   -1    0    0  501    0  0.00000000000E+00  0.00000000000E+00  0.42384256514E+02  0.42384256514E+02  0.00000000000E+00 0. -1.
         -1   -1    0    0    0  501 -0.00000000000E+00 -0.00000000000E+00 -0.14960901998E+04  0.14960901998E+04  0.00000000000E+00 0.  1.
         23    2    1    2    0    0 -0.85766618899E+02 -0.14854745738E+03 -0.12063757790E+04  0.12249041115E+04  0.12500120897E+03 0.  0.
         23    2    1    2    0    0  0.85766618899E+02  0.14854745738E+03 -0.24733016426E+03  0.31357034477E+03  0.87931171685E+02 0.  0.
          5    1    3    3  502    0 -0.73335427131E+02 -0.29439036773E+02 -0.70370165711E+03  0.70814041967E+03  0.47000000000E+01 0. -1.
         -5    1    3    3    0  502 -0.12431191768E+02 -0.11910842061E+03 -0.50267412187E+03  0.51676369183E+03  0.47000000000E+01 0. -1.
        -11    1    4    4    0    0  0.47897889585E+02  0.12396356127E+03 -0.22915167973E+03  0.26489934819E+03  0.00000000000E+00 0.  1.
         11    1    4    4    0    0  0.37868729313E+02  0.24583896112E+02 -0.18178484527E+02  0.48670996574E+02  0.00000000000E+00 0. -1.
<mgrwt>
<rscale>  0 0.20719423E+03</rscale>
<asrwt>0</asrwt>
<pdfrwt beam="1">  1        1 0.65206550E-02 0.21224411E+03</pdfrwt>
<pdfrwt beam="2">  1       -1 0.23016772E+00 0.21224411E+03</pdfrwt>
<totfact> 0.12307351E+02</totfact>
</mgrwt>
</event>
<event>
 8    1  0.1154424E-005  0.1707842E+03  0.7546771E-02  0.1183380E+00
          2   -1    0    0  501    0  0.00000000000E+00  0.00000000000E+00  0.32154585701E+03  0.32154585701E+03  0.00000000000E+00 0. -1.
         -2   -1    0    0    0  501 -0.00000000000E+00 -0.00000000000E+00 -0.79454556270E+02  0.79454556270E+02  0.00000000000E+00 0.  1.
         23    2    1    2    0    0 -0.90693106817E+02 -0.72904738197E+02  0.11538854651E+03  0.20611103460E+03  0.12500760553E+03 0.  0.
         23    2    1    2    0    0  0.90693106817E+02  0.72904738197E+02  0.12670275422E+03  0.19488937868E+03  0.91585705865E+02 0.  0.
          5    1    3    3  502    0 -0.56407326508E+02 -0.40953748588E+02  0.13738372473E+03  0.15412778409E+03  0.47000000000E+01 0. -1.
         -5    1    3    3    0  502 -0.34285780309E+02 -0.31950989610E+02 -0.21995178218E+02  0.51983250507E+02  0.47000000000E+01 0. -1.
        -11    1    4    4    0    0  0.20551451155E+01 -0.17094474451E+02  0.19101202646E+01  0.17323199405E+02  0.00000000000E+00 0.  1.
         11    1    4    4    0    0  0.88637961702E+02  0.89999212648E+02  0.12479263396E+03  0.17756617927E+03  0.00000000000E+00 0. -1.
<mgrwt>
<rscale>  0 0.16480157E+03</rscale>
<asrwt>0</asrwt>
<pdfrwt beam="1">  1        2 0.49468593E-01 0.17078420E+03</pdfrwt>
<pdfrwt beam="2">  1       -2 0.12223778E-01 0.17078420E+03</pdfrwt>
<totfact> 0.47293913E+03</totfact>
</mgrwt>
</event>
<event>
 8    1  0.1154424E-005  0.1446842E+03  0.7546771E-02  0.1217115E+00
         -1   -1    0    0    0  501 -0.00000000000E+00  0.00000000000E+00  0.93347410768E+02  0.93347410768E+02  0.00000000000E+00 0.  1.
          1   -1    0    0  501    0  0.00000000000E+00 -0.00000000000E+00 -0.18472698568E+03  0.18472698568E+03  0.00000000000E+00 0. -1.
         23    2    1    2    0    0  0.37749367295E+02 -0.62328066615E+02 -0.39182894938E+02  0.14989600115E+03  0.12499483703E+03 0.  0.
         23    2    1    2    0    0 -0.37749367295E+02  0.62328066615E+02 -0.52196679971E+02  0.12817839530E+03  0.91626442699E+02 0.  0.
          5    1    3    3  502    0  0.13985398893E+02 -0.99222174309E+02 -0.23250923878E+02  0.10297245611E+03  0.47000000000E+01 0.  1.
         -5    1    3    3    0  502  0.23763968402E+02  0.36894107694E+02 -0.15931971061E+02  0.46923545035E+02  0.47000000000E+01 0.  1.
        -11    1    4    4    0    0 -0.51192950519E+01  0.71290695159E+02 -0.71401767038E+01  0.71830025208E+02  0.00000000000E+00 0.  1.
         11    1    4    4    0    0 -0.32630072243E+02 -0.89626285433E+01 -0.45056503268E+02  0.56348370089E+02  0.00000000000E+00 0. -1.
<mgrwt>
<rscale>  0 0.13722287E+03</rscale>
<asrwt>0</asrwt>
<pdfrwt beam="2">  1        1 0.28419536E-01 0.14468418E+03</pdfrwt>
<pdfrwt beam="1">  1       -1 0.14361140E-01 0.14468418E+03</pdfrwt>
<totfact> 0.53602672E+03</totfact>
</mgrwt>
</event>
<event>
 8    1  0.1154424E-005  0.1296659E+03  0.7546771E-02  0.1240770E+00
         -1   -1    0    0    0  501 -0.00000000000E+00  0.00000000000E+00  0.24903561155E+03  0.24903561155E+03  0.00000000000E+00 0.  1.
          1   -1    0    0  501    0  0.00000000000E+00 -0.00000000000E+00 -0.56527199860E+02  0.56527199860E+02  0.00000000000E+00 0. -1.
         23    2    1    2    0    0  0.71095491948E+00 -0.34462975337E+02  0.14684547094E+03  0.19590006844E+03  0.12500016941E+03 0.  0.
         23    2    1    2    0    0 -0.71095491948E+00  0.34462975337E+02  0.45662940752E+02  0.10966274298E+03  0.93555389546E+02 0.  0.
          5    1    3    3  502    0 -0.54896754667E+02 -0.28415749507E+02  0.11679905512E+03  0.13223168218E+03  0.47000000000E+01 0.  1.
         -5    1    3    3    0  502  0.55607709586E+02 -0.60472258303E+01  0.30046415815E+02  0.63668386260E+02  0.47000000000E+01 0.  1.
        -11    1    4    4    0    0  0.16777879762E+02 -0.27990841685E+01 -0.23600424179E+02  0.29091444497E+02  0.00000000000E+00 0. -1.
         11    1    4    4    0    0 -0.17488834682E+02  0.37262059506E+02  0.69263364931E+02  0.80571298480E+02  0.00000000000E+00 0.  1.
<mgrwt>
<rscale>  0 0.12142191E+03</rscale>
<asrwt>0</asrwt>
<pdfrwt beam="2">  1        1 0.86964924E-02 0.12966590E+03</pdfrwt>
<pdfrwt beam="1">  1       -1 0.38313170E-01 0.12966590E+03</pdfrwt>
<totfact> 0.49196259E+03</totfact>
</mgrwt>
</event>
<event>
 7    1  0.1154424E-005  0.1653134E+03  0.7546771E-02  0.1199366E+00
         -1   -1    0    0    0  501 -0.00000000000E+00  0.00000000000E+00  0.32591902016E+03  0.32591902016E+03  0.00000000000E+00 0.  1.
          1   -1    0    0  501    0  0.00000000000E+00 -0.00000000000E+00 -0.60973521145E+02  0.60973521145E+02  0.00000000000E+00 0. -1.
         23    2    1    2    0    0 -0.62984698340E+02 -0.31921264991E+02  0.87167883138E+02  0.14413051519E+03  0.90494895843E+02 0.  0.
          5    1    1    2  502    0  0.10789561533E+02 -0.55349863347E+02  0.99046119730E+02  0.11407123145E+03  0.47000000000E+01 0. -1.
         -5    1    1    2    0  502  0.52195136807E+02  0.87271128338E+02  0.78731496150E+02  0.12869079467E+03  0.47000000000E+01 0.  1.
        -11    1    3    3    0    0 -0.49151227027E+02  0.20820930756E+02  0.67745353391E+02  0.86248403938E+02  0.00000000000E+00 0.  1.
         11    1    3    3    0    0 -0.13833471313E+02 -0.52742195748E+02  0.19422529747E+02  0.57882111249E+02  0.00000000000E+00 0. -1.
<mgrwt>
<rscale>  0 0.15090422E+03</rscale>
<asrwt>0</asrwt>
<pdfrwt beam="2">  1        1 0.93805419E-02 0.16531340E+03</pdfrwt>
<pdfrwt beam="1">  1       -1 0.50141387E-01 0.16531340E+03</pdfrwt>
<totfact> 0.27888938E+03</totfact>
</mgrwt>
</event>
<event>
 8    1  0.1154424E-005  0.1449311E+03  0.7546771E-02  0.1217033E+00
          3   -1    0    0  501    0  0.00000000000E+00  0.00000000000E+00  0.22808946366E+03  0.22808946366E+03  0.00000000000E+00 0. -1.
         -3   -1    0    0    0  501 -0.00000000000E+00 -0.00000000000E+00 -0.76542164339E+02  0.76542164339E+02  0.00000000000E+00 0.  1.
         23    2    1    2    0    0  0.23046405674E+02 -0.69497147470E+02  0.62377629015E+02  0.15778465316E+03  0.12507612822E+03 0.  0.
         23    2    1    2    0    0 -0.23046405674E+02  0.69497147470E+02  0.89169670302E+02  0.14684697483E+03  0.90839493584E+02 0.  0.
          5    1    3    3  502    0  0.70827694268E+02 -0.65777015158E+02  0.41927694837E+02  0.10546658045E+03  0.47000000000E+01 0.  1.
         -5    1    3    3    0  502 -0.47781288594E+02 -0.37201323115E+01  0.20449934178E+02  0.52318072709E+02  0.47000000000E+01 0.  1.
        -11    1    4    4    0    0  0.34221503795E+02  0.14875844531E+02  0.32832529616E+02  0.49702887979E+02  0.00000000000E+00 0. -1.
         11    1    4    4    0    0 -0.57267909469E+02  0.54621302938E+02  0.56337140687E+02  0.97144086853E+02  0.00000000000E+00 0.  1.
<mgrwt>
<rscale>  0 0.13728234E+03</rscale>
<asrwt>0</asrwt>
<pdfrwt beam="1">  1        3 0.35090686E-01 0.14493112E+03</pdfrwt>
<pdfrwt beam="2">  1       -3 0.11775718E-01 0.14493112E+03</pdfrwt>
<totfact> 0.10439338E+03</totfact>
</mgrwt>
</event>
<event>
 8    1  0.1154424E-005  0.1281552E+03  0.7546771E-02  0.1243990E+00
         -1   -1    0    0    0  501 -0.00000000000E+00  0.00000000000E+00  0.82203374969E+02  0.82203374969E+02  0.00000000000E+00 0. -1.
          1   -1    0    0  501    0  0.00000000000E+00 -0.00000000000E+00 -0.16559056533E+03  0.16559056533E+03  0.00000000000E+00 0.  1.
         23    2    1    2    0    0  0.27634696148E+02  0.60448462581E+01 -0.14400564364E+02  0.12896179279E+03  0.12499420446E+03 0.  0.
         23    2    1    2    0    0 -0.27634696148E+02 -0.60448462581E+01 -0.68986625999E+02  0.11883214751E+03  0.92529498632E+02 0.  0.
          5    1    3    3  502    0 -0.32502618445E+02 -0.40265217101E+02 -0.88939525860E+01  0.52715275837E+02  0.47000000000E+01 0.  1.
         -5    1    3    3    0  502  0.60137314593E+02  0.46310063359E+02 -0.55066117775E+01  0.76246516956E+02  0.47000000000E+01 0.  1.
        -11    1    4    4    0    0 -0.22452061094E+02 -0.44244460146E+02 -0.62404852212E+02  0.79724731926E+02  0.00000000000E+00 0.  1.
         11    1    4    4    0    0 -0.51826350532E+01  0.38199613888E+02 -0.65817737864E+01  0.39107415581E+02  0.00000000000E+00 0. -1.
<mgrwt>
<rscale>  0 0.11946012E+03</rscale>
<asrwt>0</asrwt>
<pdfrwt beam="2">  1        1 0.25475471E-01 0.12815525E+03</pdfrwt>
<pdfrwt beam="1">  1       -1 0.12646673E-01 0.12815525E+03</pdfrwt>
<totfact> 0.74288975E+03</totfact>
</mgrwt>
</event>
<event>
 8    1  0.1154424E-005  0.1391586E+03  0.7546771E-02  0.1226567E+00
          1   -1    0    0  501    0  0.00000000000E+00  0.00000000000E+00  0.14145234399E+03  0.14145234399E+03  0.00000000000E+00 0. -1.
         -1   -1    0    0    0  501 -0.00000000000E+00 -0.00000000000E+00 -0.10900289720E+03  0.10900289720E+03  0.00000000000E+00 0.  1.
         23    2    1    2    0    0  0.18836945295E+01  0.61136941977E+02  0.30593581104E+02  0.14248182712E+03  0.12499531941E+03 0.  0.
         23    2    1    2    0    0 -0.18836945295E+01 -0.61136941977E+02  0.18558656882E+01  0.10797341408E+03  0.88958079624E+02 0.  0.
          5    1    3    3  502    0 -0.25777692261E+02  0.66200157688E+02 -0.28641596832E+02  0.76742304926E+02  0.47000000000E+01 0.  1.
         -5    1    3    3    0  502  0.27661386791E+02 -0.50632157111E+01  0.59235177936E+02  0.65739522189E+02  0.47000000000E+01 0.  1.
        -11    1    4    4    0    0  0.41855014598E+02 -0.42374766608E+02  0.75654816454E+01  0.60039150599E+02  0.00000000000E+00 0.  1.
         11    1    4    4    0    0 -0.43738709128E+02 -0.18762175369E+02 -0.57096159572E+01  0.47934263477E+02  0.00000000000E+00 0. -1.
<mgrwt>
<rscale>  0 0.13060073E+03</rscale>
<asrwt>0</asrwt>
<pdfrwt beam="1">  1        1 0.21761899E-01 0.13915856E+03</pdfrwt>
<pdfrwt beam="2">  1       -1 0.16769676E-01 0.13915856E+03</pdfrwt>
<totfact> 0.58606001E+03</totfact>
</mgrwt>
</event>
<event>
 8    1  0.1154424E-005  0.1640127E+03  0.7546771E-02  0.1191361E+00
          3   -1    0    0  501    0  0.00000000000E+00  0.00000000000E+00  0.21997166167E+03  0.21997166167E+03  0.00000000000E+00 0. -1.
         -3   -1    0    0    0  501 -0.00000000000E+00 -0.00000000000E+00 -0.12880641026E+03  0.12880641026E+03  0.00000000000E+00 0.  1.
         23    2    1    2    0    0  0.65379767213E+02  0.83667301081E+02 -0.26151096521E+02  0.16608448162E+03  0.12500177581E+03 0.  0.
         23    2    1    2    0    0 -0.65379767213E+02 -0.83667301081E+02  0.11731634794E+03  0.18269359031E+03  0.91318624704E+02 0.  0.
          5    1    3    3  502    0  0.22434570552E+02 -0.17903514881E+02 -0.45522649003E+02  0.54020805004E+02  0.47000000000E+01 0. -1.
         -5    1    3    3    0  502  0.42945196661E+02  0.10157081596E+03  0.19371552482E+02  0.11206367662E+03  0.47000000000E+01 0. -1.
        -11    1    4    4    0    0  0.11013054457E+02 -0.25844921719E+02 -0.37069848194E+01  0.28337062014E+02  0.00000000000E+00 0.  1.
         11    1    4    4    0    0 -0.76392821670E+02 -0.57822379363E+02  0.12102333275E+03  0.15435652830E+03  0.00000000000E+00 0. -1.
<mgrwt>
<rscale>  0 0.15766251E+03</rscale>
<asrwt>0</asrwt>
<pdfrwt beam="1">  1        3 0.33841794E-01 0.16401273E+03</pdfrwt>
<pdfrwt beam="2">  1       -3 0.19816371E-01 0.16401273E+03</pdfrwt>
<totfact> 0.46509439E+02</totfact>
</mgrwt>
</event>
<event>
 8    1  0.1154424E-005  0.1473696E+03  0.7546771E-02  0.1212616E+00
          3   -1    0    0  501    0  0.00000000000E+00  0.00000000000E+00  0.23634491370E+02  0.23634491370E+02  0.00000000000E+00 0. -1.
         -3   -1    0    0    0  501 -0.00000000000E+00 -0.00000000000E+00 -0.78725917811E+03  0.78725917811E+03  0.00000000000E+00 0.  1.
         23    2    1    2    0    0  0.26064139513E+02 -0.73560688356E+02 -0.48221449564E+03  0.50423071308E+03  0.12500911155E+03 0.  0.
         23    2    1    2    0    0 -0.26064139513E+02  0.73560688356E+02 -0.28141019110E+03  0.30666295640E+03  0.93594652257E+02 0.  0.
          5    1    3    3  502    0  0.47979795531E+02 -0.91298501257E+02 -0.25322016299E+03  0.27345935357E+03  0.47000000000E+01 0. -1.
         -5    1    3    3    0  502 -0.21915656018E+02  0.17737812901E+02 -0.22899433265E+03  0.23077135951E+03  0.47000000000E+01 0. -1.
        -11    1    4    4    0    0  0.25880610109E+02  0.37631337509E+02 -0.54399861441E+02  0.71030053267E+02  0.00000000000E+00 0. -1.
         11    1    4    4    0    0 -0.51944749622E+02  0.35929350847E+02 -0.22701032966E+03  0.23563290313E+03  0.00000000000E+00 0.  1.
<mgrwt>
<rscale>  0 0.14053141E+03</rscale>
<asrwt>0</asrwt>
<pdfrwt beam="1">  1        3 0.36360763E-02 0.14736958E+03</pdfrwt>
<pdfrwt beam="2">  1       -3 0.12111677E+00 0.14736958E+03</pdfrwt>
<totfact> 0.51253055E+02</totfact>
</mgrwt>
</event>
<event>
 8    1  0.1154424E-005  0.1418557E+03  0.7546771E-02  0.1221179E+00
          1   -1    0    0  501    0  0.00000000000E+00  0.00000000000E+00  0.81213715304E+02  0.81213715304E+02  0.00000000000E+00 0. -1.
         -1   -1    0    0    0  501 -0.00000000000E+00 -0.00000000000E+00 -0.29909129086E+03  0.29909129086E+03  0.00000000000E+00 0.  1.
         23    2    1    2    0    0 -0.46778832787E+02 -0.48064773721E+02 -0.22506457479E+03  0.26603966759E+03  0.12499824093E+03 0.  0.
         23    2    1    2    0    0  0.46778832787E+02  0.48064773721E+02  0.71869992316E+01  0.11426533858E+03  0.92230325669E+02 0.  0.
          5    1    3    3  502    0  0.14282585580E+02 -0.73848845108E+02 -0.12287809583E+03  0.14414839788E+03  0.47000000000E+01 0. -1.
         -5    1    3    3    0  502 -0.61061418367E+02  0.25784071386E+02 -0.10218647896E+03  0.12189126971E+03  0.47000000000E+01 0. -1.
        -11    1    4    4    0    0 -0.23505299846E+02  0.11643139587E+02 -0.17278487459E+02  0.31410315967E+02  0.00000000000E+00 0. -1.
         11    1    4    4    0    0  0.70284132633E+02  0.36421634135E+02  0.24465486691E+02  0.82855022612E+02  0.00000000000E+00 0.  1.
<mgrwt>
<rscale>  0 0.13432243E+03</rscale>
<asrwt>0</asrwt>
<pdfrwt beam="1">  1        1 0.12494418E-01 0.14185571E+03</pdfrwt>
<pdfrwt beam="2">  1       -1 0.46014045E-01 0.14185571E+03</pdfrwt>
<totfact> 0.22147389E+03</totfact>
</mgrwt>
</event>
<event>
 8    1  0.1154424E-005  0.1785912E+03  0.7546771E-02  0.1174934E+00
         -1   -1    0    0    0  501 -0.00000000000E+00  0.00000000000E+00  0.66080142447E+03  0.66080142447E+03  0.00000000000E+00 0.  1.
          1   -1    0    0  501    0  0.00000000000E+00 -0.00000000000E+00 -0.72835014834E+02  0.72835014834E+02  0.00000000000E+00 0. -1.
         23    2    1    2    0    0  0.11716999293E+02  0.12701104767E+03  0.54162064008E+03  0.57030493417E+03  0.12500282349E+03 0.  0.
         23    2    1    2    0    0 -0.11716999293E+02 -0.12701104767E+03  0.46345769556E+02  0.16333150513E+03  0.90885399877E+02 0.  0.
          5    1    3    3  502    0  0.52093538084E+02  0.10010244206E+03  0.47192832386E+03  0.48525526115E+03  0.47000000000E+01 0.  1.
         -5    1    3    3    0  502 -0.40376538791E+02  0.26908605608E+02  0.69692316217E+02  0.85049673016E+02  0.47000000000E+01 0.  1.
        -11    1    4    4    0    0 -0.77137017730E+01  0.88899441729E+01 -0.10683206496E+02  0.15895383087E+02  0.00000000000E+00 0. -1.
         11    1    4    4    0    0 -0.40032975205E+01 -0.13590099184E+03  0.57028976052E+02  0.14743612204E+03  0.00000000000E+00 0.  1.
<mgrwt>
<rscale>  0 0.17282457E+03</rscale>
<asrwt>0</asrwt>
<pdfrwt beam="2">  1        1 0.11205387E-01 0.17859115E+03</pdfrwt>
<pdfrwt beam="1">  1       -1 0.10166175E+00 0.17859115E+03</pdfrwt>
<totfact> 0.53410555E+02</totfact>
</mgrwt>
</event>
<event>
 8    1  0.1154424E-005  0.1580943E+03  0.7546771E-02  0.1199406E+00
          1   -1    0    0  501    0  0.00000000000E+00  0.00000000000E+00  0.86546452859E+02  0.86546452859E+02  0.00000000000E+00 0. -1.
         -1   -1    0    0    0  501 -0.00000000000E+00 -0.00000000000E+00 -0.28683024890E+03  0.28683024890E+03  0.00000000000E+00 0.  1.
         23    2    1    2    0    0 -0.95030436381E+02 -0.18379837890E+02 -0.18184816688E+03  0.24096175126E+03  0.12500082998E+03 0.  0.
         23    2    1    2    0    0  0.95030436381E+02  0.18379837890E+02 -0.18435629166E+02  0.13241495050E+03  0.88460411557E+02 0.  0.
          5    1    3    3  502    0  0.69167606469E-01  0.37337753091E+02 -0.14097479248E+02  0.40186334881E+02  0.47000000000E+01 0.  1.
         -5    1    3    3    0  502 -0.95099603988E+02 -0.55717590981E+02 -0.16775068763E+03  0.20077541638E+03  0.47000000000E+01 0.  1.
        -11    1    4    4    0    0 -0.14344636147E+02  0.16109861323E+02 -0.54480808110E+01  0.22248096605E+02  0.00000000000E+00 0. -1.
         11    1    4    4    0    0  0.10937507253E+03  0.22699765671E+01 -0.12987548355E+02  0.11016685389E+03  0.00000000000E+00 0.  1.
<mgrwt>
<rscale>  0 0.15087205E+03</rscale>
<asrwt>0</asrwt>
<pdfrwt beam="1">  1        1 0.13314839E-01 0.15809431E+03</pdfrwt>
<pdfrwt beam="2">  1       -1 0.44127730E-01 0.15809431E+03</pdfrwt>
<totfact> 0.22067115E+03</totfact>
</mgrwt>
</event>
<event>
 8    1  0.1154424E-005  0.1325615E+03  0.7546771E-02  0.1238160E+00
         -2   -1    0    0    0  501 -0.00000000000E+00  0.00000000000E+00  0.11661976757E+03  0.11661976757E+03  0.00000000000E+00 0.  1.
          2   -1    0    0  501    0  0.00000000000E+00 -0.00000000000E+00 -0.12381707162E+03  0.12381707162E+03  0.00000000000E+00 0. -1.
         23    2    1    2    0    0 -0.64576811128E+01 -0.43665034365E+02  0.28818873915E+02  0.13565789898E+03  0.12499680472E+03 0.  0.
         23    2    1    2    0    0  0.64576811128E+01  0.43665034365E+02 -0.36016177964E+02  0.10477894021E+03  0.87938184902E+02 0.  0.
          5    1    3    3  502    0 -0.34979073017E+02 -0.15580482299E+02  0.68806191750E+02  0.78883895701E+02  0.47000000000E+01 0. -1.
         -5    1    3    3    0  502  0.28521391904E+02 -0.28084552067E+02 -0.39987317835E+02  0.56774003281E+02  0.47000000000E+01 0. -1.
        -11    1    4    4    0    0  0.13537198939E+01  0.16584023920E+02  0.29407310862E+02  0.33788346202E+02  0.00000000000E+00 0.  1.
         11    1    4    4    0    0  0.51039612190E+01  0.27081010445E+02 -0.65423488826E+02  0.70990594004E+02  0.00000000000E+00 0. -1.
<mgrwt>
<rscale>  0 0.12304261E+03</rscale>
<asrwt>0</asrwt>
<pdfrwt beam="2">  1        2 0.19048780E-01 0.13256145E+03</pdfrwt>
<pdfrwt beam="1">  1       -2 0.17941503E-01 0.13256145E+03</pdfrwt>
<totfact> 0.70352263E+03</totfact>
</mgrwt>
</event>
<event>
 8    1  0.1154424E-005  0.2067483E+03  0.7546771E-02  0.1148350E+00
         -4   -1    0    0    0  501 -0.00000000000E+00  0.00000000000E+00  0.14069074198E+03  0.14069074198E+03  0.00000000000E+00 0.  1.
          4   -1    0    0  501    0  0.00000000000E+00 -0.00000000000E+00 -0.27854385215E+03  0.27854385215E+03  0.00000000000E+00 0. -1.
         23    2    1    2    0    0  0.14188942479E+03  0.83572732284E+02 -0.93646472873E+02  0.22696806458E+03  0.12501131953E+03 0.  0.
         23    2    1    2    0    0 -0.14188942479E+03 -0.83572732284E+02 -0.44206637296E+02  0.19226652955E+03  0.88854831910E+02 0.  0.
          5    1    3    3  502    0  0.83138276677E+02  0.73246870759E+02  0.56398020325E+01  0.11104492105E+03  0.47000000000E+01 0. -1.
         -5    1    3    3    0  502  0.58751148117E+02  0.10325861525E+02 -0.99286274906E+02  0.11592314353E+03  0.47000000000E+01 0. -1.
        -11    1    4    4    0    0 -0.10524861021E+03 -0.95358208859E+02 -0.12816678225E+02  0.14259987794E+03  0.00000000000E+00 0.  1.
         11    1    4    4    0    0 -0.36640814581E+02  0.11785476575E+02 -0.31389959071E+02  0.49666651606E+02  0.00000000000E+00 0. -1.
<mgrwt>
<rscale>  0 0.20165491E+03</rscale>
<asrwt>0</asrwt>
<pdfrwt beam="2">  1        4 0.42852900E-01 0.20674825E+03</pdfrwt>
<pdfrwt beam="1">  1       -4 0.21644730E-01 0.20674825E+03</pdfrwt>
<totfact> 0.18507320E+02</totfact>
</mgrwt>
</event>
<event>
 7    1  0.1154424E-005  0.9702892E+03  0.7546771E-02  0.9341745E-01
          2   -1    0    0  501    0  0.00000000000E+00  0.00000000000E+00  0.59658167616E+03  0.59658167616E+03  0.00000000000E+00 0. -1.
         -2   -1    0    0    0  501 -0.00000000000E+00 -0.00000000000E+00 -0.39452313325E+03  0.39452313325E+03  0.00000000000E+00 0.  1.
         23    2    1    2    0    0 -0.27875452911E+03  0.42832424848E+02  0.14715952941E+03  0.33075582803E+03  0.90580276927E+02 0.  0.
          5    1    1    2  502    0 -0.30499293492E+02 -0.12951864675E+03  0.25091727205E+03  0.28405431554E+03  0.47000000000E+01 0. -1.
         -5    1    1    2    0  502  0.30925382260E+03  0.86686221903E+02 -0.19601825855E+03  0.37629466585E+03  0.47000000000E+01 0.  1.
        -11    1    3    3    0    0 -0.49592548215E+02  0.11905358752E+02 -0.89135977322E+01  0.51774613760E+02  0.00000000000E+00 0.  1.
         11    1    3    3    0    0 -0.22916198089E+03  0.30927066095E+02  0.15607312714E+03  0.27898121427E+03  0.00000000000E+00 0. -1.
<mgrwt>
<rscale>  0 0.97028918E+03</rscale>
<asrwt>0</asrwt>
<pdfrwt beam="1">  1        2 0.91781796E-01 0.97028918E+03</pdfrwt>
<pdfrwt beam="2">  1       -2 0.60695867E-01 0.97028918E+03</pdfrwt>
<totfact> 0.12628934E+02</totfact>
</mgrwt>
</event>
<event>
 8    1  0.1154424E-005  0.1716574E+03  0.7546771E-02  0.1183560E+00
         -1   -1    0    0    0  501 -0.00000000000E+00  0.00000000000E+00  0.76225737559E+02  0.76225737559E+02  0.00000000000E+00 0.  1.
          1   -1    0    0  501    0  0.00000000000E+00 -0.00000000000E+00 -0.35903252857E+03  0.35903252857E+03  0.00000000000E+00 0. -1.
         23    2    1    2    0    0  0.97032246394E+02 -0.66512489316E+02 -0.89873801939E+02  0.19376162520E+03  0.12500839592E+03 0.  0.
         23    2    1    2    0    0 -0.97032246394E+02  0.66512489316E+02 -0.19293298907E+03  0.24149664093E+03  0.85195781768E+02 0.  0.
          5    1    3    3  502    0 -0.73869210074E+00  0.15338904591E+02 -0.60812498469E+02  0.62897357894E+02  0.47000000000E+01 0. -1.
         -5    1    3    3    0  502  0.97770938494E+02 -0.81851393908E+02 -0.29061303470E+02  0.13086426731E+03  0.47000000000E+01 0. -1.
        -11    1    4    4    0    0 -0.55677485990E+02  0.26544869713E+02 -0.16771663194E+03  0.17869941574E+03  0.00000000000E+00 0. -1.
         11    1    4    4    0    0 -0.41354760404E+02  0.39967619603E+02 -0.25216357132E+02  0.62797225192E+02  0.00000000000E+00 0.  1.
<mgrwt>
<rscale>  0 0.16463636E+03</rscale>
<asrwt>0</asrwt>
<pdfrwt beam="2">  1        1 0.55235773E-01 0.17165741E+03</pdfrwt>
<pdfrwt beam="1">  1       -1 0.11727037E-01 0.17165741E+03</pdfrwt>
<totfact> 0.32390876E+03</totfact>
</mgrwt>
</event>
<event>
 8    1  0.1154424E-005  0.1589515E+03  0.7546771E-02  0.1197735E+00
         -1   -1    0    0    0  501 -0.00000000000E+00  0.00000000000E+00  0.26379390936E+03  0.26379390936E+03  0.00000000000E+00 0.  1.
          1   -1    0    0  501    0  0.00000000000E+00 -0.00000000000E+00 -0.92013524996E+02  0.92013524996E+02  0.00000000000E+00 0. -1.
         23    2    1    2    0    0  0.90922247868E+02 -0.37054958605E+02  0.15313881768E+03  0.22071943922E+03  0.12500259299E+03 0.  0.
         23    2    1    2    0    0 -0.90922247868E+02  0.37054958605E+02  0.18641566686E+02  0.13508799514E+03  0.90891877015E+02 0.  0.
          5    1    3    3  502    0  0.10369735889E+03 -0.61826557563E+02  0.87272326056E+02  0.14904433688E+03  0.47000000000E+01 0. -1.
         -5    1    3    3    0  502 -0.12775111022E+02  0.24771598957E+02  0.65866491627E+02  0.71675102342E+02  0.47000000000E+01 0. -1.
        -11    1    4    4    0    0 -0.89815313641E+02  0.18693742159E+02 -0.18549475367E+02  0.93596632401E+02  0.00000000000E+00 0. -1.
         11    1    4    4    0    0 -0.11069342263E+01  0.18361216446E+02  0.37191042053E+02  0.41491362737E+02  0.00000000000E+00 0.  1.
<mgrwt>
<rscale>  0 0.15225055E+03</rscale>
<asrwt>0</asrwt>
<pdfrwt beam="2">  1        1 0.14155927E-01 0.15895148E+03</pdfrwt>
<pdfrwt beam="1">  1       -1 0.40583678E-01 0.15895148E+03</pdfrwt>
<totfact> 0.23641781E+03</totfact>
</mgrwt>
</event>
<event>
 8    1  0.1154424E-005  0.1799124E+03  0.7546771E-02  0.1173593E+00
          1   -1    0    0  501    0  0.00000000000E+00  0.00000000000E+00  0.43535045712E+02  0.43535045712E+02  0.00000000000E+00 0. -1.
         -1   -1    0    0    0  501 -0.00000000000E+00 -0.00000000000E+00 -0.74831062279E+03  0.74831062279E+03  0.00000000000E+00 0.  1.
         23    2    1    2    0    0  0.12772339001E+03  0.20756584227E+02 -0.51169576522E+03  0.54240299740E+03  0.12499742116E+03 0.  0.
         23    2    1    2    0    0 -0.12772339001E+03 -0.20756584227E+02 -0.19307981186E+03  0.24944267111E+03  0.90541329111E+02 0.  0.
          5    1    3    3  502    0  0.95049381589E+02  0.32767974015E+02 -0.49187954394E+03  0.50207141006E+03  0.47000000000E+01 0. -1.
         -5    1    3    3    0  502  0.32674008419E+02 -0.12011389788E+02 -0.19816221285E+02  0.40331587333E+02  0.47000000000E+01 0. -1.
        -11    1    4    4    0    0 -0.39489462211E+00 -0.30016270430E+02 -0.42415215709E+02  0.51963284691E+02  0.00000000000E+00 0.  1.
         11    1    4    4    0    0 -0.12732849539E+03  0.92596862028E+01 -0.15066459615E+03  0.19747938641E+03  0.00000000000E+00 0. -1.
<mgrwt>
<rscale>  0 0.17414531E+03</rscale>
<asrwt>0</asrwt>
<pdfrwt beam="1">  1        1 0.66976988E-02 0.17991235E+03</pdfrwt>
<pdfrwt beam="2">  1       -1 0.11512472E+00 0.17991235E+03</pdfrwt>
<totfact> 0.80451371E+02</totfact>
</mgrwt>
</event>
<event>
 8    1  0.1154424E-005  0.2437375E+03  0.7546771E-02  0.1119295E+00
         -2   -1    0    0    0  501 -0.00000000000E+00  0.00000000000E+00  0.23069299421E+03  0.23069299421E+03  0.00000000000E+00 0.  1.
          2   -1    0    0  501    0  0.00000000000E+00 -0.00000000000E+00 -0.24655057920E+03  0.24655057920E+03  0.00000000000E+00 0. -1.
         23    2    1    2    0    0 -0.54062696820E+02  0.20213999856E+03  0.90993186560E+01  0.24390734049E+03  0.12499855575E+03 0.  0.
         23    2    1    2    0    0  0.54062696820E+02 -0.20213999856E+03 -0.24956903642E+02  0.23333623292E+03  0.10019778615E+03 0.  0.
          5    1    3    3  502    0 -0.43821490206E+02  0.29870725427E+01  0.42366777864E+01  0.44376627237E+02  0.47000000000E+01 0.  1.
         -5    1    3    3    0  502 -0.10241206614E+02  0.19915292602E+03  0.48626408696E+01  0.19953071325E+03  0.47000000000E+01 0.  1.
        -11    1    4    4    0    0  0.68096117405E+02 -0.87679378731E+02 -0.37868839319E+02  0.11729792689E+03  0.00000000000E+00 0. -1.
         11    1    4    4    0    0 -0.14033420585E+02 -0.11446061983E+03  0.12911935677E+02  0.11603830604E+03  0.00000000000E+00 0.  1.
<mgrwt>
<rscale>  0 0.24074804E+03</rscale>
<asrwt>0</asrwt>
<pdfrwt beam="2">  1        2 0.37930858E-01 0.24373755E+03</pdfrwt>
<pdfrwt beam="1">  1       -2 0.35491230E-01 0.24373755E+03</pdfrwt>
<totfact> 0.10126784E+03</totfact>
</mgrwt>
</event>
<event>
 7    1  0.1154424E-005  0.1422160E+03  0.7546771E-02  0.1228788E+00
          2   -1    0    0  501    0  0.00000000000E+00  0.00000000000E+00  0.26358745274E+03  0.26358745274E+03  0.00000000000E+00 0. -1.
         -2   -1    0    0    0  501 -0.00000000000E+00 -0.00000000000E+00 -0.57858647248E+02  0.57858647248E+02  0.00000000000E+00 0.  1.
         23    2    1    2    0    0  0.31051415784E+02 -0.62977343831E+01  0.12480790674E+03  0.15781971275E+03  0.91247993208E+02 0.  0.
          5    1    1    2  502    0 -0.53170513570E+02  0.37931797104E+02  0.10060794478E+03  0.12004154821E+03  0.47000000000E+01 0. -1.
         -5    1    1    2    0  502  0.22119097786E+02 -0.31634062721E+02 -0.19687046037E+02  0.43584839024E+02  0.47000000000E+01 0.  1.
        -11    1    3    3    0    0  0.27851592946E+02  0.40561097754E+02  0.71202690614E+02  0.86549044081E+02  0.00000000000E+00 0. -1.
         11    1    3    3    0    0  0.31998228384E+01 -0.46858832137E+02  0.53605216131E+02  0.71270668665E+02  0.00000000000E+00 0.  1.
<mgrwt>
<rscale>  0 0.12910615E+03</rscale>
<asrwt>0</asrwt>
<pdfrwt beam="1">  1        2 0.40551915E-01 0.14221604E+03</pdfrwt>
<pdfrwt beam="2">  1       -2 0.89013305E-02 0.14221604E+03</pdfrwt>
<totfact> 0.95451182E+03</totfact>
</mgrwt>
</event>
<event>
 8    1  0.1327653E-005  0.2090585E+03  0.7546771E-02  0.1146445E+00
          1   -1    0    0  501    0  0.00000000000E+00  0.00000000000E+00  0.87416807475E+02  0.87416807475E+02  0.00000000000E+00 0. -1.
         -1   -1    0    0    0  501 -0.00000000000E+00 -0.00000000000E+00 -0.52560432606E+03  0.52560432606E+03  0.00000000000E+00 0.  1.
         23    2    1    2    0    0 -0.54750643715E+02 -0.15837425644E+03 -0.34144833892E+03  0.40036537616E+03  0.12500171273E+03 0.  0.
         23    2    1    2    0    0  0.54750643715E+02  0.15837425644E+03 -0.96739179671E+02  0.21265575738E+03  0.88226776969E+02 0.  0.
          5    1    3    3  502    0  0.47014443370E+01  0.56931611349E+00 -0.12550162050E+03  0.12567885442E+03  0.47000000000E+01 0. -1.
         -5    1    3    3    0  502 -0.59452088052E+02 -0.15894357255E+03 -0.21594671841E+03  0.27468652173E+03  0.47000000000E+01 0. -1.
        -11    1    4    4    0    0  0.53604301988E+02  0.60868959676E+02 -0.92231591007E+01  0.81630374907E+02  0.00000000000E+00 0.  1.
         11    1    4    4    0    0  0.11463417268E+01  0.97505296763E+02 -0.87516020571E+02  0.13102538247E+03  0.00000000000E+00 0. -1.
<mgrwt>
<rscale>  0 0.20395448E+03</rscale>
<asrwt>0</asrwt>
<pdfrwt beam="1">  1        1 0.13448739E-01 0.20905852E+03</pdfrwt>
<pdfrwt beam="2">  1       -1 0.80862205E-01 0.20905852E+03</pdfrwt>
<totfact> 0.68643850E+02</totfact>
</mgrwt>
</event>
<event>
 7    1  0.1154424E-005  0.1386393E+03  0.7546771E-02  0.1228813E+00
          2   -1    0    0  501    0  0.00000000000E+00  0.00000000000E+00  0.45058194993E+03  0.45058194993E+03  0.00000000000E+00 0. -1.
         -2   -1    0    0    0  501 -0.00000000000E+00 -0.00000000000E+00 -0.49088474214E+02  0.49088474214E+02  0.00000000000E+00 0.  1.
         23    2    1    2    0    0  0.49967001092E+02  0.50828430084E+01  0.32506538646E+03  0.34136024456E+03  0.91305939572E+02 0.  0.
          5    1    1    2  502    0 -0.13015378571E+02 -0.43167479153E+02  0.92209159957E+02  0.10274945506E+03  0.47000000000E+01 0. -1.
         -5    1    1    2    0  502 -0.36951622521E+02  0.38084636144E+02 -0.15781070698E+02  0.55560724523E+02  0.47000000000E+01 0.  1.
        -11    1    3    3    0    0  0.51374487656E+02 -0.35009091881E+02  0.16439851057E+03  0.17576076005E+03  0.00000000000E+00 0. -1.
         11    1    3    3    0    0 -0.14074865645E+01  0.40091934889E+02  0.16066687589E+03  0.16559948451E+03  0.00000000000E+00 0.  1.
<mgrwt>
<rscale>  0 0.12908925E+03</rscale>
<asrwt>0</asrwt>
<pdfrwt beam="1">  1        2 0.69320297E-01 0.13863932E+03</pdfrwt>
<pdfrwt beam="2">  1       -2 0.75520733E-02 0.13863932E+03</pdfrwt>
<totfact> 0.69403627E+03</totfact>
</mgrwt>
</event>
<event>
 8    1  0.1154424E-005  0.1330447E+03  0.7546771E-02  0.1235458E+00
          1   -1    0    0  501    0  0.00000000000E+00  0.00000000000E+00  0.33755377510E+02  0.33755377510E+02  0.00000000000E+00 0. -1.
         -1   -1    0    0    0  501 -0.00000000000E+00 -0.00000000000E+00 -0.50120732702E+03  0.50120732702E+03  0.00000000000E+00 0.  1.
         23    2    1    2    0    0 -0.40276376896E+02  0.21311365699E+02 -0.37033931539E+03  0.39351252947E+03  0.12499816592E+03 0.  0.
         23    2    1    2    0    0  0.40276376896E+02 -0.21311365699E+02 -0.97112634121E+02  0.14145017506E+03  0.92200474371E+02 0.  0.
          5    1    3    3  502    0 -0.57046086939E+02  0.29449691086E+02 -0.80665350299E+02  0.10320140057E+03  0.47000000000E+01 0. -1.
         -5    1    3    3    0  502  0.16769710043E+02 -0.81383253873E+01 -0.28967396509E+03  0.29031112890E+03  0.47000000000E+01 0. -1.
        -11    1    4    4    0    0  0.48271260637E+02  0.51694374077E+01 -0.10236592011E+03  0.11329439212E+03  0.00000000000E+00 0.  1.
         11    1    4    4    0    0 -0.79948837405E+01 -0.26480803107E+02  0.52532859860E+01  0.28155782938E+02  0.00000000000E+00 0. -1.
<mgrwt>
<rscale>  0 0.12475130E+03</rscale>
<asrwt>0</asrwt>
<pdfrwt beam="1">  1        1 0.51931352E-02 0.13304474E+03</pdfrwt>
<pdfrwt beam="2">  1       -1 0.77108817E-01 0.13304474E+03</pdfrwt>
<totfact> 0.26824219E+03</totfact>
</mgrwt>
</event>
<event>
 7    1  0.1154424E-005  0.1337255E+03  0.7546771E-02  0.1237101E+00
         -1   -1    0    0    0  501 -0.00000000000E+00  0.00000000000E+00  0.65152856106E+02  0.65152856106E+02  0.00000000000E+00 0.  1.
          1   -1    0    0  501    0  0.00000000000E+00 -0.00000000000E+00 -0.24007479099E+03  0.24007479099E+03  0.00000000000E+00 0. -1.
         23    2    1    2    0    0  0.22061061444E+02  0.27767374461E+02 -0.13283091061E+03  0.16503437712E+03  0.91293906150E+02 0.  0.
          5    1    1    2  502    0  0.51024221532E+02  0.48687216514E+01 -0.45824820821E+01  0.51674604745E+02  0.47000000000E+01 0. -1.
         -5    1    1    2    0  502 -0.73085282976E+02 -0.32636096112E+02 -0.37508542187E+02  0.88518665230E+02  0.47000000000E+01 0.  1.
        -11    1    3    3    0    0  0.43649855584E+02  0.34689657597E+02 -0.37859811712E+02  0.67394714775E+02  0.00000000000E+00 0. -1.
         11    1    3    3    0    0 -0.21588794140E+02 -0.69222831367E+01 -0.94971098899E+02  0.97639662342E+02  0.00000000000E+00 0.  1.
<mgrwt>
<rscale>  0 0.12370888E+03</rscale>
<asrwt>0</asrwt>
<pdfrwt beam="2">  1        1 0.36934584E-01 0.13372546E+03</pdfrwt>
<pdfrwt beam="1">  1       -1 0.10023516E-01 0.13372546E+03</pdfrwt>
<totfact> 0.67118340E+03</totfact>
</mgrwt>
</event>
<event>
 8    1  0.1154424E-005  0.1497651E+03  0.7546771E-02  0.1209707E+00
          2   -1    0    0  501    0  0.00000000000E+00  0.00000000000E+00  0.20010377677E+03  0.20010377677E+03  0.00000000000E+00 0. -1.
         -2   -1    0    0    0  501 -0.00000000000E+00 -0.00000000000E+00 -0.14889820912E+03  0.14889820912E+03  0.00000000000E+00 0.  1.
         23    2    1    2    0    0 -0.45059890015E+02  0.69113939375E+02 -0.79164534635E+02  0.16940071331E+03  0.12498979088E+03 0.  0.
         23    2    1    2    0    0  0.45059890015E+02 -0.69113939375E+02  0.13037010228E+03  0.17960127259E+03  0.91940868174E+02 0.  0.
          5    1    3    3  502    0 -0.71891599197E+02  0.31242514427E+00 -0.57842155150E+02  0.92392123891E+02  0.47000000000E+01 0. -1.
         -5    1    3    3    0  502  0.26831709182E+02  0.68801514230E+02 -0.21322379484E+02  0.77008589423E+02  0.47000000000E+01 0. -1.
        -11    1    4    4    0    0  0.66656227471E+01  0.18162636627E+02  0.54244030549E+02  0.57591030083E+02  0.00000000000E+00 0. -1.
         11    1    4    4    0    0  0.38394267268E+02 -0.87276576001E+02  0.76126071736E+02  0.12201024250E+03  0.00000000000E+00 0.  1.
<mgrwt>
<rscale>  0 0.14272601E+03</rscale>
<asrwt>0</asrwt>
<pdfrwt beam="1">  1        2 0.30785197E-01 0.14976508E+03</pdfrwt>
<pdfrwt beam="2">  1       -2 0.22907417E-01 0.14976508E+03</pdfrwt>
<totfact> 0.27490562E+03</totfact>
</mgrwt>
</event>
<event>
 8    1  0.1154424E-005  0.1510494E+03  0.7546771E-02  0.1208518E+00
          1   -1    0    0  501    0  0.00000000000E+00  0.00000000000E+00  0.64352200874E+02  0.64352200874E+02  0.00000000000E+00 0. -1.
         -1   -1    0    0    0  501 -0.00000000000E+00 -0.00000000000E+00 -0.31524385710E+03  0.31524385710E+03  0.00000000000E+00 0.  1.
         23    2    1    2    0    0 -0.47337109950E+02  0.70355891100E+02 -0.18748364605E+03  0.24076134599E+03  0.12500061919E+03 0.  0.
         23    2    1    2    0    0  0.47337109950E+02 -0.70355891100E+02 -0.63408010173E+02  0.13883471198E+03  0.89798374734E+02 0.  0.
          5    1    3    3  502    0 -0.48125158495E+02  0.53634896045E+02 -0.23620886846E+02  0.75978742088E+02  0.47000000000E+01 0. -1.
         -5    1    3    3    0  502  0.78804854456E+00  0.16720995055E+02 -0.16386275920E+03  0.16478260391E+03  0.47000000000E+01 0. -1.
        -11    1    4    4    0    0  0.41984854163E+02 -0.91199270285E+02 -0.43147410997E+02  0.10927824100E+03  0.00000000000E+00 0.  1.
         11    1    4    4    0    0  0.53522557867E+01  0.20843379185E+02 -0.20260599176E+02  0.29556470980E+02  0.00000000000E+00 0. -1.
<mgrwt>
<rscale>  0 0.14363620E+03</rscale>
<asrwt>0</asrwt>
<pdfrwt beam="1">  1        1 0.99003386E-02 0.15104936E+03</pdfrwt>
<pdfrwt beam="2">  1       -1 0.48499055E-01 0.15104936E+03</pdfrwt>
<totfact> 0.27462060E+03</totfact>
</mgrwt>
</event>
<event>
 8    1  0.1154424E-005  0.1303824E+03  0.7546771E-02  0.1240331E+00
          2   -1    0    0  501    0  0.00000000000E+00  0.00000000000E+00  0.12172690542E+03  0.12172690542E+03  0.00000000000E+00 0. -1.
         -2   -1    0    0    0  501 -0.00000000000E+00 -0.00000000000E+00 -0.12148079120E+03  0.12148079120E+03  0.00000000000E+00 0.  1.
         23    2    1    2    0    0  0.12589390523E+02 -0.34873714485E+02 -0.40014874140E+02  0.13638464841E+03  0.12499965382E+03 0.  0.
         23    2    1    2    0    0 -0.12589390523E+02  0.34873714485E+02  0.40260988357E+02  0.10682304821E+03  0.91736294510E+02 0.  0.
          5    1    3    3  502    0  0.16276867578E+02 -0.73281799867E+02 -0.56592408779E+02  0.94127303910E+02  0.47000000000E+01 0.  1.
         -5    1    3    3    0  502 -0.36874770550E+01  0.38408085382E+02  0.16577534639E+02  0.42257344503E+02  0.47000000000E+01 0.  1.
        -11    1    4    4    0    0 -0.39259074050E+02 -0.15001818339E+02  0.12685374171E+02  0.43900434698E+02  0.00000000000E+00 0. -1.
         11    1    4    4    0    0  0.26669683527E+02  0.49875532824E+02  0.27575614186E+02  0.62922613516E+02  0.00000000000E+00 0.  1.
<mgrwt>
<rscale>  0 0.12169238E+03</rscale>
<asrwt>0</asrwt>
<pdfrwt beam="1">  1        2 0.18727216E-01 0.13038245E+03</pdfrwt>
<pdfrwt beam="2">  1       -2 0.18689352E-01 0.13038245E+03</pdfrwt>
<totfact> 0.66912913E+03</totfact>
</mgrwt>
</event>
<event>
 8    1  0.1154424E-005  0.2023268E+03  0.7546771E-02  0.1153586E+00
          1   -1    0    0  501    0  0.00000000000E+00  0.00000000000E+00  0.14347685844E+04  0.14347685844E+04  0.00000000000E+00 0. -1.
         -1   -1    0    0    0  501 -0.00000000000E+00 -0.00000000000E+00 -0.25005622736E+02  0.25005622736E+02  0.00000000000E+00 0.  1.
         23    2    1    2    0    0 -0.47691705668E+02 -0.15178957325E+03  0.77002200745E+03  0.79615953728E+03  0.12498617326E+03 0.  0.
         23    2    1    2    0    0  0.47691705668E+02  0.15178957325E+03  0.63974095423E+03  0.66361466987E+03  0.76166713286E+02 0.  0.
          5    1    3    3  502    0 -0.78401128900E+02 -0.46256164827E+02  0.30685918438E+03  0.32011094769E+03  0.47000000000E+01 0.  1.
         -5    1    3    3    0  502  0.30709423231E+02 -0.10553340842E+03  0.46316282307E+03  0.47604858959E+03  0.47000000000E+01 0.  1.
        -11    1    4    4    0    0  0.33187541655E+02  0.15416013687E+03  0.61446261539E+03  0.63437454744E+03  0.00000000000E+00 0.  1.
         11    1    4    4    0    0  0.14504164014E+02 -0.23705636191E+01  0.25278338835E+02  0.29240122433E+02  0.00000000000E+00 0. -1.
<mgrwt>
<rscale>  0 0.19550725E+03</rscale>
<asrwt>0</asrwt>
<pdfrwt beam="1">  1        1 0.22073356E+00 0.20232676E+03</pdfrwt>
<pdfrwt beam="2">  1       -1 0.38470200E-02 0.20232676E+03</pdfrwt>
<totfact> 0.20612918E+03</totfact>
</mgrwt>
</event>
<event>
 8    1  0.1154424E-005  0.1670092E+03  0.7546771E-02  0.1187787E+00
          1   -1    0    0  501    0  0.00000000000E+00  0.00000000000E+00  0.71007177600E+03  0.71007177600E+03  0.00000000000E+00 0. -1.
         -1   -1    0    0    0  501 -0.00000000000E+00 -0.00000000000E+00 -0.41741505885E+02  0.41741505885E+02  0.00000000000E+00 0.  1.
         23    2    1    2    0    0  0.18941319863E+02 -0.10912266937E+03  0.19274750104E+03  0.25503663324E+03  0.12500221827E+03 0.  0.
         23    2    1    2    0    0 -0.18941319863E+02  0.10912266937E+03  0.47558276908E+03  0.49677664864E+03  0.91332019696E+02 0.  0.
          5    1    3    3  502    0  0.60829145460E+02 -0.17888786860E+02  0.98634976011E+02  0.11735050969E+03  0.47000000000E+01 0. -1.
         -5    1    3    3    0  502 -0.41887825597E+02 -0.91233882512E+02  0.94112525026E+02  0.13768612355E+03  0.47000000000E+01 0. -1.
        -11    1    4    4    0    0  0.22720920696E+02  0.72664150265E+02  0.17070537012E+03  0.18691346222E+03  0.00000000000E+00 0.  1.
         11    1    4    4    0    0 -0.41662240559E+02  0.36458519107E+02  0.30487739895E+03  0.30986318642E+03  0.00000000000E+00 0. -1.
<mgrwt>
<rscale>  0 0.16080888E+03</rscale>
<asrwt>0</asrwt>
<pdfrwt beam="1">  1        1 0.10924180E+00 0.16700924E+03</pdfrwt>
<pdfrwt beam="2">  1       -1 0.64217706E-02 0.16700924E+03</pdfrwt>
<totfact> 0.32734042E+03</totfact>
</mgrwt>
</event>
<event>
 8    1  0.1154424E-005  0.1548113E+03  0.7546771E-02  0.1203326E+00
         -1   -1    0    0    0  501 -0.00000000000E+00  0.00000000000E+00  0.27922814055E+02  0.27922814055E+02  0.00000000000E+00 0.  1.
          1   -1    0    0  501    0  0.00000000000E+00 -0.00000000000E+00 -0.74302711049E+03  0.74302711049E+03  0.00000000000E+00 0. -1.
         23    2    1    2    0    0 -0.87695965738E+02 -0.25446298628E+02 -0.31874608712E+03  0.35435237142E+03  0.12501375348E+03 0.  0.
         23    2    1    2    0    0  0.87695965738E+02  0.25446298628E+02 -0.39635820932E+03  0.41659755313E+03  0.90086595305E+02 0.  0.
          5    1    3    3  502    0 -0.56869224369E+02 -0.54932829805E+01 -0.32855082928E+02  0.66074437663E+02  0.47000000000E+01 0.  1.
         -5    1    3    3    0  502 -0.30826741369E+02 -0.19953015648E+02 -0.28589100419E+03  0.28827793376E+03  0.47000000000E+01 0.  1.
        -11    1    4    4    0    0  0.10306917068E+03  0.12813897651E+02 -0.28194461627E+03  0.30046666464E+03  0.00000000000E+00 0.  1.
         11    1    4    4    0    0 -0.15373204946E+02  0.12632400977E+02 -0.11441359306E+03  0.11613088849E+03  0.00000000000E+00 0. -1.
<mgrwt>
<rscale>  0 0.14770149E+03</rscale>
<asrwt>0</asrwt>
<pdfrwt beam="2">  1        1 0.11431187E+00 0.15481129E+03</pdfrwt>
<pdfrwt beam="1">  1       -1 0.42958174E-02 0.15481129E+03</pdfrwt>
<totfact> 0.55581633E+03</totfact>
</mgrwt>
</event>
<event>
 8    1  0.1154424E-005  0.1308895E+03  0.7546771E-02  0.1235127E+00
         -1   -1    0    0    0  501 -0.00000000000E+00  0.00000000000E+00  0.16560755535E+03  0.16560755535E+03  0.00000000000E+00 0.  1.
          1   -1    0    0  501    0  0.00000000000E+00 -0.00000000000E+00 -0.12956887218E+03  0.12956887218E+03  0.00000000000E+00 0. -1.
         23    2    1    2    0    0 -0.63437963343E+01 -0.59581697846E+02  0.10379542971E+03  0.16704953862E+03  0.11636938881E+03 0.  0.
         23    2    1    2    0    0  0.63437963343E+01  0.59581697846E+02 -0.67756746546E+02  0.12812688891E+03  0.90748556399E+02 0.  0.
          5    1    3    3  502    0 -0.28788052631E+02  0.26170121940E+02  0.16399649045E+02  0.42481357622E+02  0.47000000000E+01 0. -1.
         -5    1    3    3    0  502  0.22444256296E+02 -0.85751819786E+02  0.87395780668E+02  0.12456818099E+03  0.47000000000E+01 0.  1.
        -11    1    4    4    0    0  0.47941555368E+02  0.32465049070E+02 -0.45842423778E+02  0.73850524440E+02  0.00000000000E+00 0. -1.
         11    1    4    4    0    0 -0.41597759034E+02  0.27116648776E+02 -0.21914322768E+02  0.54276364468E+02  0.00000000000E+00 0.  1.
<mgrwt>
<rscale>  0 0.12496290E+03</rscale>
<asrwt>0</asrwt>
<pdfrwt beam="2">  1        1 0.19933673E-01 0.13088948E+03</pdfrwt>
<pdfrwt beam="1">  1       -1 0.25478085E-01 0.13088948E+03</pdfrwt>
<totfact> 0.33267397E+03</totfact>
</mgrwt>
</event>
<event>
 7    1  0.1154424E-005  0.3294688E+03  0.7546771E-02  0.1071372E+00
          2   -1    0    0  501    0  0.00000000000E+00  0.00000000000E+00  0.14131257443E+04  0.14131257443E+04  0.00000000000E+00 0. -1.
         -2   -1    0    0    0  501 -0.00000000000E+00 -0.00000000000E+00 -0.19203821632E+02  0.19203821632E+02  0.00000000000E+00 0.  1.
         23    2    1    2    0    0  0.34992207386E+02 -0.35295430832E+02  0.57168492330E+03  0.58729725401E+03  0.12499676406E+03 0.  0.
          5    1    3    3  502    0  0.50409039668E+02 -0.69838239842E+01  0.53805006903E+03  0.54047184188E+03  0.47000000000E+01 0.  1.
         -5    1    3    3    0  502 -0.15416832283E+02 -0.28311606848E+02  0.33634854269E+02  0.46825412135E+02  0.47000000000E+01 0.  1.
        -11    1    1    2    0    0  0.61402764690E+02  0.63210767428E+02  0.49392503736E+03  0.50172486799E+03  0.00000000000E+00 0. -1.
         11    1    1    2    0    0 -0.96394972076E+02 -0.27915336596E+02  0.32831196204E+03  0.34330744396E+03  0.00000000000E+00 0.  1.
<mgrwt>
<rscale>  0 0.32946875E+03</rscale>
<asrwt>0</asrwt>
<pdfrwt beam="1">  1        2 0.21740388E+00 0.32946875E+03</pdfrwt>
<pdfrwt beam="2">  1       -2 0.29544352E-02 0.32946875E+03</pdfrwt>
<totfact> 0.66071218E+03</totfact>
</mgrwt>
</event>
<event>
 8    1  0.1154424E-005  0.1570832E+03  0.7546771E-02  0.1200322E+00
          4   -1    0    0  501    0  0.00000000000E+00  0.00000000000E+00  0.10418529602E+03  0.10418529602E+03  0.00000000000E+00 0. -1.
         -4   -1    0    0    0  501 -0.00000000000E+00 -0.00000000000E+00 -0.22451304156E+03  0.22451304156E+03  0.00000000000E+00 0.  1.
         23    2    1    2    0    0 -0.40756669172E+02 -0.85953654622E+02 -0.11997757242E+03  0.19766070260E+03  0.12500399451E+03 0.  0.
         23    2    1    2    0    0  0.40756669172E+02  0.85953654622E+02 -0.35017313246E+00  0.13103763498E+03  0.90119933062E+02 0.  0.
          5    1    3    3  502    0 -0.24940648356E+02 -0.63172694390E+02  0.62224044677E+01  0.68363978631E+02  0.47000000000E+01 0. -1.
         -5    1    3    3    0  502 -0.15816020816E+02 -0.22780960232E+02 -0.12619997688E+03  0.12929672397E+03  0.47000000000E+01 0. -1.
        -11    1    4    4    0    0  0.38561902391E+02  0.73594345523E+02  0.37503204074E+02  0.91157217623E+02  0.00000000000E+00 0. -1.
         11    1    4    4    0    0  0.21947667805E+01  0.12359309099E+02 -0.37853377206E+02  0.39880417357E+02  0.00000000000E+00 0.  1.
<mgrwt>
<rscale>  0 0.15012256E+03</rscale>
<asrwt>0</asrwt>
<pdfrwt beam="1">  1        4 0.16028507E-01 0.15708321E+03</pdfrwt>
<pdfrwt beam="2">  1       -4 0.34540468E-01 0.15708321E+03</pdfrwt>
<totfact> 0.46398618E+02</totfact>
</mgrwt>
</event>
<event>
 8    1  0.1154424E-005  0.1424626E+03  0.7546771E-02  0.1218248E+00
          2   -1    0    0  501    0  0.00000000000E+00  0.00000000000E+00  0.11856183467E+04  0.11856183467E+04  0.00000000000E+00 0. -1.
         -2   -1    0    0    0  501 -0.00000000000E+00 -0.00000000000E+00 -0.15532219095E+02  0.15532219095E+02  0.00000000000E+00 0.  1.
         23    2    1    2    0    0  0.39794939962E+02 -0.55557107615E+02  0.78690193820E+03  0.79969384925E+03  0.12500145093E+03 0.  0.
         23    2    1    2    0    0 -0.39794939962E+02  0.55557107615E+02  0.38318418944E+03  0.40145671657E+03  0.98321629340E+02 0.  0.
          5    1    3    3  502    0 -0.28466234926E+02  0.51913876967E+01  0.43845060906E+03  0.43942952066E+03  0.47000000000E+01 0.  1.
         -5    1    3    3    0  502  0.68261174888E+02 -0.60748495312E+02  0.34845132914E+03  0.36026432859E+03  0.47000000000E+01 0.  1.
        -11    1    4    4    0    0 -0.50470565828E+02  0.74597547755E+01  0.30359817363E+03  0.30785512337E+03  0.00000000000E+00 0. -1.
         11    1    4    4    0    0  0.10675625866E+02  0.48097352839E+02  0.79586015805E+02  0.93601593200E+02  0.00000000000E+00 0.  1.
<mgrwt>
<rscale>  0 0.13640627E+03</rscale>
<asrwt>0</asrwt>
<pdfrwt beam="1">  1        2 0.18240275E+00 0.14246260E+03</pdfrwt>
<pdfrwt beam="2">  1       -2 0.23895731E-02 0.14246260E+03</pdfrwt>
<totfact> 0.11721941E+04</totfact>
</mgrwt>
</event>
<event>
 8    1  0.1154424E-005  0.1421262E+03  0.7546771E-02  0.1220360E+00
          2   -1    0    0  501    0  0.00000000000E+00  0.00000000000E+00  0.20339292240E+02  0.20339292240E+02  0.00000000000E+00 0.  1.
         -2   -1    0    0    0  501 -0.00000000000E+00 -0.00000000000E+00 -0.11338315462E+04  0.11338315462E+04  0.00000000000E+00 0. -1.
         23    2    1    2    0    0  0.51811840827E+02  0.43484239431E+02 -0.90323440720E+03  0.91434799040E+03  0.12499802904E+03 0.  0.
         23    2    1    2    0    0 -0.51811840827E+02 -0.43484239431E+02 -0.21025784678E+03  0.23982284807E+03  0.93441374093E+02 0.  0.
          5    1    3    3  502    0 -0.12282920949E+02  0.43055542211E+02 -0.11500079420E+03  0.12349867420E+03  0.47000000000E+01 0.  1.
         -5    1    3    3    0  502  0.64094761775E+02  0.42869721981E+00 -0.78823361300E+03  0.79084931620E+03  0.47000000000E+01 0.  1.
        -11    1    4    4    0    0 -0.30372375058E+02 -0.72867067780E+02 -0.14106339567E+03  0.16165077275E+03  0.00000000000E+00 0. -1.
         11    1    4    4    0    0 -0.21439465768E+02  0.29382828349E+02 -0.69194451113E+02  0.78172075315E+02  0.00000000000E+00 0.  1.
<mgrwt>
<rscale>  0 0.13490067E+03</rscale>
<asrwt>0</asrwt>
<pdfrwt beam="1">  1        2 0.31291221E-02 0.14212619E+03</pdfrwt>
<pdfrwt beam="2">  1       -2 0.17443561E+00 0.14212619E+03</pdfrwt>
<totfact> 0.61337677E+02</totfact>
</mgrwt>
</event>
<event>
 7    1  0.1154424E-005  0.1748040E+03  0.7546771E-02  0.1214072E+00
         -2   -1    0    0    0  501 -0.00000000000E+00  0.00000000000E+00  0.38096621248E+03  0.38096621248E+03  0.00000000000E+00 0.  1.
          2   -1    0    0  501    0  0.00000000000E+00 -0.00000000000E+00 -0.13481527583E+03  0.13481527583E+03  0.00000000000E+00 0. -1.
         23    2    1    2    0    0 -0.44089092210E+02  0.71926886478E+01 -0.10319328794E+03  0.12514375556E+03  0.54922873720E+02 0.  0.
          5    1    1    2  502    0 -0.18599450452E+02 -0.23708838977E+02 -0.45397347649E+01  0.30834198457E+02  0.47000000000E+01 0. -1.
         -5    1    1    2    0  502  0.62688542663E+02  0.16516150329E+02  0.35388395935E+03  0.35980353429E+03  0.47000000000E+01 0.  1.
        -11    1    3    3    0    0 -0.54333288689E+02  0.16554498622E+02 -0.85713904061E+02  0.10282524512E+03  0.00000000000E+00 0. -1.
         11    1    3    3    0    0  0.10244196478E+02 -0.93618099743E+01 -0.17479383878E+02  0.22318510440E+02  0.00000000000E+00 0.  1.
<mgrwt>
<rscale>  0 0.13944923E+03</rscale>
<asrwt>0</asrwt>
<pdfrwt beam="2">  1        2 0.20740812E-01 0.17480404E+03</pdfrwt>
<pdfrwt beam="1">  1       -2 0.58610186E-01 0.17480404E+03</pdfrwt>
<totfact> 0.73455567E+02</totfact>
</mgrwt>
</event>
<event>
 8    1  0.1154424E-005  0.1611709E+03  0.7546771E-02  0.1194886E+00
         -1   -1    0    0    0  501 -0.00000000000E+00  0.00000000000E+00  0.67887280080E+02  0.67887280080E+02  0.00000000000E+00 0.  1.
          1   -1    0    0  501    0  0.00000000000E+00 -0.00000000000E+00 -0.42929212790E+03  0.42929212790E+03  0.00000000000E+00 0. -1.
         23    2    1    2    0    0  0.75457571413E+02 -0.68241192571E+02 -0.70720651229E+02  0.17600419182E+03  0.12500143832E+03 0.  0.
         23    2    1    2    0    0 -0.75457571413E+02  0.68241192571E+02 -0.29068419659E+03  0.32117521616E+03  0.91134581137E+02 0.  0.
          5    1    3    3  502    0  0.36193463294E+02 -0.51937652885E+02  0.27267212558E+02  0.69087462344E+02  0.47000000000E+01 0. -1.
         -5    1    3    3    0  502  0.39264108118E+02 -0.16303539686E+02 -0.97987863787E+02  0.10691672948E+03  0.47000000000E+01 0. -1.
        -11    1    4    4    0    0 -0.37263641808E+02  0.19427167539E+02 -0.26191865888E+02  0.49517751141E+02  0.00000000000E+00 0.  1.
         11    1    4    4    0    0 -0.38193929605E+02  0.48814025031E+02 -0.26449233070E+03  0.27165746501E+03  0.00000000000E+00 0. -1.
<mgrwt>
<rscale>  0 0.15463862E+03</rscale>
<asrwt>0</asrwt>
<pdfrwt beam="2">  1        1 0.66044942E-01 0.16117092E+03</pdfrwt>
<pdfrwt beam="1">  1       -1 0.10444197E-01 0.16117092E+03</pdfrwt>
<totfact> 0.30804444E+03</totfact>
</mgrwt>
</event>
<event>
 8    1  0.1154424E-005  0.1270885E+03  0.7546771E-02  0.1246974E+00
         -4   -1    0    0    0  501 -0.00000000000E+00  0.00000000000E+00  0.16899555571E+03  0.16899555571E+03  0.00000000000E+00 0. -1.
          4   -1    0    0  501    0  0.00000000000E+00 -0.00000000000E+00 -0.95394356350E+02  0.95394356350E+02  0.00000000000E+00 0.  1.
         23    2    1    2    0    0  0.17464268107E+02 -0.14950830442E+02  0.10600863564E+03  0.16549721579E+03  0.12499187819E+03 0.  0.
         23    2    1    2    0    0 -0.17464268107E+02  0.14950830442E+02 -0.32407436285E+02  0.98892696263E+02  0.90559347702E+02 0.  0.
          5    1    3    3  502    0  0.42738707393E+02  0.27043864849E+02  0.10455137879E+03  0.11623703602E+03  0.47000000000E+01 0. -1.
         -5    1    3    3    0  502 -0.25274439286E+02 -0.41994695291E+02  0.14572568502E+01  0.49260179774E+02  0.47000000000E+01 0. -1.
        -11    1    4    4    0    0 -0.44004210418E+02  0.12674359073E+02  0.11792052374E+02  0.47287021598E+02  0.00000000000E+00 0. -1.
         11    1    4    4    0    0  0.26539942312E+02  0.22764713693E+01 -0.44199488660E+02  0.51605674664E+02  0.00000000000E+00 0.  1.
<mgrwt>
<rscale>  0 0.11768026E+03</rscale>
<asrwt>0</asrwt>
<pdfrwt beam="2">  1        4 0.14676055E-01 0.12708854E+03</pdfrwt>
<pdfrwt beam="1">  1       -4 0.25999316E-01 0.12708854E+03</pdfrwt>
<totfact> 0.88867857E+02</totfact>
</mgrwt>
</event>
<event>
 8    1  0.1154424E-005  0.1850539E+03  0.7546771E-02  0.1168176E+00
         -1   -1    0    0    0  501 -0.00000000000E+00  0.00000000000E+00  0.77694253209E+03  0.77694253209E+03  0.00000000000E+00 0.  1.
          1   -1    0    0  501    0  0.00000000000E+00 -0.00000000000E+00 -0.42066766906E+02  0.42066766906E+02  0.00000000000E+00 0. -1.
         23    2    1    2    0    0  0.13603472389E+03 -0.10613359749E+02  0.49350165144E+03  0.52705677517E+03  0.12500749886E+03 0.  0.
         23    2    1    2    0    0 -0.13603472389E+03  0.10613359749E+02  0.24137411374E+03  0.29195252383E+03  0.91415118413E+02 0.  0.
          5    1    3    3  502    0  0.24506429619E+02 -0.33261194187E+02  0.34188044539E+02  0.53831073933E+02  0.47000000000E+01 0. -1.
         -5    1    3    3    0  502  0.11152829427E+03  0.22647834438E+02  0.45931360690E+03  0.47322570123E+03  0.47000000000E+01 0. -1.
        -11    1    4    4    0    0 -0.11053048361E+03  0.15877542034E+02  0.24132836881E+03  0.26591063488E+03  0.00000000000E+00 0.  1.
         11    1    4    4    0    0 -0.25504240281E+02 -0.52641822858E+01  0.45744932008E-01  0.26041888949E+02  0.00000000000E+00 0. -1.
<mgrwt>
<rscale>  0 0.17961540E+03</rscale>
<asrwt>0</asrwt>
<pdfrwt beam="2">  1        1 0.64718109E-02 0.18505395E+03</pdfrwt>
<pdfrwt beam="1">  1       -1 0.11952961E+00 0.18505395E+03</pdfrwt>
<totfact> 0.77244877E+02</totfact>
</mgrwt>
</event>
<event>
 8    1  0.1154424E-005  0.1261940E+03  0.7546771E-02  0.1244255E+00
         -2   -1    0    0    0  501 -0.00000000000E+00  0.00000000000E+00  0.15351409820E+02  0.15351409820E+02  0.00000000000E+00 0. -1.
          2   -1    0    0  501    0  0.00000000000E+00 -0.00000000000E+00 -0.84574954614E+03  0.84574954614E+03  0.00000000000E+00 0.  1.
         23    2    1    2    0    0 -0.37141755176E+01  0.16922759582E+02 -0.42336824942E+03  0.44177549663E+03  0.12499895965E+03 0.  0.
         23    2    1    2    0    0  0.37141755176E+01 -0.16922759582E+02 -0.40702988689E+03  0.41932545932E+03  0.99299230210E+02 0.  0.
          5    1    3    3  502    0  0.55298533015E+01 -0.53278381193E+02 -0.21637565466E+03  0.22295667541E+03  0.47000000000E+01 0. -1.
         -5    1    3    3    0  502 -0.92440288191E+01  0.70201140775E+02 -0.20699259476E+03  0.21881882122E+03  0.47000000000E+01 0. -1.
        -11    1    4    4    0    0 -0.23396807407E+02 -0.50924226313E+02 -0.19561654760E+03  0.20348592364E+03  0.00000000000E+00 0. -1.
         11    1    4    4    0    0  0.27110982925E+02  0.34001466731E+02 -0.21141333929E+03  0.21583953568E+03  0.00000000000E+00 0.  1.
<mgrwt>
<rscale>  0 0.11930080E+03</rscale>
<asrwt>0</asrwt>
<pdfrwt beam="2">  1        2 0.13011533E+00 0.12619396E+03</pdfrwt>
<pdfrwt beam="1">  1       -2 0.23617550E-02 0.12619396E+03</pdfrwt>
<totfact> 0.18865593E+04</totfact>
</mgrwt>
</event>
<event>
 8    1  0.1154424E-005  0.1559887E+03  0.7546771E-02  0.1200853E+00
         -1   -1    0    0    0  501 -0.00000000000E+00  0.00000000000E+00  0.81048491827E+03  0.81048491827E+03  0.00000000000E+00 0.  1.
          1   -1    0    0  501    0  0.00000000000E+00 -0.00000000000E+00 -0.27234877474E+02  0.27234877474E+02  0.00000000000E+00 0. -1.
         23    2    1    2    0    0 -0.91528020662E+02  0.18208716823E+02  0.52319070876E+03  0.54594963366E+03  0.12499419518E+03 0.  0.
         23    2    1    2    0    0  0.91528020662E+02 -0.18208716823E+02  0.26005933204E+03  0.29177016209E+03  0.93755188486E+02 0.  0.
          5    1    3    3  502    0 -0.56167826980E+02 -0.52198472696E+02  0.24296396212E+03  0.25481970534E+03  0.47000000000E+01 0. -1.
         -5    1    3    3    0  502 -0.35360193682E+02  0.70407189519E+02  0.28022674664E+03  0.29112992832E+03  0.47000000000E+01 0. -1.
        -11    1    4    4    0    0  0.80750752086E+02  0.27509881434E+02  0.16664604077E+03  0.18721212686E+03  0.00000000000E+00 0.  1.
         11    1    4    4    0    0  0.10777268576E+02 -0.45718598257E+02  0.93413291270E+02  0.10455803523E+03  0.00000000000E+00 0. -1.
<mgrwt>
<rscale>  0 0.14969127E+03</rscale>
<asrwt>0</asrwt>
<pdfrwt beam="2">  1        1 0.41899818E-02 0.15598873E+03</pdfrwt>
<pdfrwt beam="1">  1       -1 0.12468997E+00 0.15598873E+03</pdfrwt>
<totfact> 0.12634056E+03</totfact>
</mgrwt>
</event>
<event>
 8    1  0.1154424E-005  0.1274975E+03  0.7546771E-02  0.1242010E+00
         -1   -1    0    0    0  501 -0.00000000000E+00  0.00000000000E+00  0.34969547044E+03  0.34969547044E+03  0.00000000000E+00 0.  1.
          1   -1    0    0  501    0  0.00000000000E+00 -0.00000000000E+00 -0.49746402683E+02  0.49746402683E+02  0.00000000000E+00 0. -1.
         23    2    1    2    0    0  0.15924321973E+01  0.25091684524E+02  0.26011835787E+03  0.28968462110E+03  0.12499396437E+03 0.  0.
         23    2    1    2    0    0 -0.15924321973E+01 -0.25091684524E+02  0.39830709891E+02  0.10975725203E+03  0.99136473862E+02 0.  0.
          5    1    3    3  502    0  0.53578599033E+02  0.34310825406E+02  0.82282211589E+02  0.10411700802E+03  0.47000000000E+01 0. -1.
         -5    1    3    3    0  502 -0.51986166836E+02 -0.92191408818E+01  0.17783614628E+03  0.18556761308E+03  0.47000000000E+01 0. -1.
        -11    1    4    4    0    0  0.46801906861E+02 -0.28713180735E+01  0.29830839657E+02  0.55574652027E+02  0.00000000000E+00 0.  1.
         11    1    4    4    0    0 -0.48394339059E+02 -0.22220366450E+02  0.99998702341E+01  0.54182600001E+02  0.00000000000E+00 0. -1.
<mgrwt>
<rscale>  0 0.12066148E+03</rscale>
<asrwt>0</asrwt>
<pdfrwt beam="2">  1        1 0.76532929E-02 0.12749753E+03</pdfrwt>
<pdfrwt beam="1">  1       -1 0.53799302E-01 0.12749753E+03</pdfrwt>
<totfact> 0.31741536E+03</totfact>
</mgrwt>
</event>
<event>
 8    1  0.1154424E-005  0.1313383E+03  0.7546771E-02  0.1239486E+00
         -4   -1    0    0    0  501 -0.00000000000E+00  0.00000000000E+00  0.69388712485E+02  0.69388712485E+02  0.00000000000E+00 0.  1.
          4   -1    0    0  501    0  0.00000000000E+00 -0.00000000000E+00 -0.25772389061E+03  0.25772389061E+03  0.00000000000E+00 0. -1.
         23    2    1    2    0    0  0.95655360996E+01 -0.39167330704E+02 -0.21078864414E+02  0.13301903918E+03  0.12499666790E+03 0.  0.
         23    2    1    2    0    0 -0.95655360996E+01  0.39167330704E+02 -0.16725631371E+03  0.19409356391E+03  0.89844631447E+02 0.  0.
          5    1    3    3  502    0  0.86828929639E+01 -0.17775214034E+01 -0.70305701815E+02  0.71017842267E+02  0.47000000000E+01 0. -1.
         -5    1    3    3    0  502  0.88264313563E+00 -0.37389809301E+02  0.49226837402E+02  0.62001196916E+02  0.47000000000E+01 0. -1.
        -11    1    4    4    0    0  0.49654158620E+01 -0.12086881302E+02  0.48441773098E+01  0.13936072190E+02  0.00000000000E+00 0.  1.
         11    1    4    4    0    0 -0.14530951962E+02  0.51254212006E+02 -0.17210049102E+03  0.18015749172E+03  0.00000000000E+00 0. -1.
<mgrwt>
<rscale>  0 0.12221563E+03</rscale>
<asrwt>0</asrwt>
<pdfrwt beam="2">  1        4 0.39649830E-01 0.13133829E+03</pdfrwt>
<pdfrwt beam="1">  1       -4 0.10675186E-01 0.13133829E+03</pdfrwt>
<totfact> 0.69112810E+02</totfact>
</mgrwt>
</event>
<event>
 8    1  0.1154424E-005  0.1754923E+03  0.7546771E-02  0.1178301E+00
          1   -1    0    0  501    0  0.00000000000E+00  0.00000000000E+00  0.19964490088E+03  0.19964490088E+03  0.00000000000E+00 0. -1.
         -1   -1    0    0    0  501 -0.00000000000E+00 -0.00000000000E+00 -0.16080859301E+03  0.16080859301E+03  0.00000000000E+00 0.  1.
         23    2    1    2    0    0 -0.10735239850E+03  0.60383253195E+02 -0.51393186298E+02  0.18286283800E+03  0.12500753254E+03 0.  0.
         23    2    1    2    0    0  0.10735239850E+03 -0.60383253195E+02  0.90229494173E+02  0.17759065590E+03  0.90699529837E+02 0.  0.
          5    1    3    3  502    0 -0.35444466705E+02 -0.33466153564E+02 -0.41382378718E+02  0.64116183001E+02  0.47000000000E+01 0. -1.
         -5    1    3    3    0  502 -0.71907931795E+02  0.93849406758E+02 -0.10010807580E+02  0.11874665499E+03  0.47000000000E+01 0. -1.
        -11    1    4    4    0    0  0.14706504001E+02 -0.50295535719E+02  0.59900110422E+02  0.79586087991E+02  0.00000000000E+00 0. -1.
         11    1    4    4    0    0  0.92645894499E+02 -0.10087717476E+02  0.30329383751E+02  0.98004567904E+02  0.00000000000E+00 0.  1.
<mgrwt>
<rscale>  0 0.16956601E+03</rscale>
<asrwt>0</asrwt>
<pdfrwt beam="1">  1        1 0.30714600E-01 0.17549233E+03</pdfrwt>
<pdfrwt beam="2">  1       -1 0.24739784E-01 0.17549233E+03</pdfrwt>
<totfact> 0.20505740E+03</totfact>
</mgrwt>
</event>
<event>
 8    1  0.1154424E-005  0.1383819E+03  0.7546771E-02  0.1226804E+00
         -2   -1    0    0    0  501 -0.00000000000E+00  0.00000000000E+00  0.14114388260E+02  0.14114388260E+02  0.00000000000E+00 0. -1.
          2   -1    0    0  501    0  0.00000000000E+00 -0.00000000000E+00 -0.11269961855E+04  0.11269961855E+04  0.00000000000E+00 0.  1.
         23    2    1    2    0    0  0.54618035037E+02 -0.23478827722E+02 -0.51160476404E+03  0.52998961556E+03  0.12496068545E+03 0.  0.
         23    2    1    2    0    0 -0.54618035037E+02  0.23478827722E+02 -0.60127703319E+03  0.61112095819E+03  0.91653531297E+02 0.  0.
          5    1    3    3  502    0  0.63749397729E+02 -0.61826981852E+02 -0.43171719003E+03  0.44078155991E+03  0.47000000000E+01 0. -1.
         -5    1    3    3    0  502 -0.91313626925E+01  0.38348154130E+02 -0.79887574012E+02  0.89208055641E+02  0.47000000000E+01 0. -1.
        -11    1    4    4    0    0  0.45594847372E+01  0.45563278641E+02 -0.23093778008E+03  0.23543376888E+03  0.00000000000E+00 0.  1.
         11    1    4    4    0    0 -0.59177519774E+02 -0.22084450919E+02 -0.37033925310E+03  0.37568718931E+03  0.00000000000E+00 0. -1.
<mgrwt>
<rscale>  0 0.13044013E+03</rscale>
<asrwt>0</asrwt>
<pdfrwt beam="2">  1        2 0.17338400E+00 0.13838193E+03</pdfrwt>
<pdfrwt beam="1">  1       -2 0.21714447E-02 0.13838193E+03</pdfrwt>
<totfact> 0.14516090E+04</totfact>
</mgrwt>
</event>
<event>
 8    1  0.1154424E-005  0.2153821E+03  0.7546771E-02  0.1140861E+00
          4   -1    0    0  501    0  0.00000000000E+00  0.00000000000E+00  0.66523638207E+02  0.66523638207E+02  0.00000000000E+00 0. -1.
         -4   -1    0    0    0  501 -0.00000000000E+00 -0.00000000000E+00 -0.64227116257E+03  0.64227116257E+03  0.00000000000E+00 0.  1.
         23    2    1    2    0    0  0.37522414457E+02 -0.17133377123E+03 -0.30518743112E+03  0.37353553953E+03  0.12500495360E+03 0.  0.
         23    2    1    2    0    0 -0.37522414457E+02  0.17133377123E+03 -0.27056009324E+03  0.33525926125E+03  0.91830362355E+02 0.  0.
          5    1    3    3  502    0  0.42293556273E+02 -0.18517348169E+03 -0.30350099780E+03  0.35806830199E+03  0.47000000000E+01 0. -1.
         -5    1    3    3    0  502 -0.47711418159E+01  0.13839710459E+02 -0.16864333270E+01  0.15467237542E+02  0.47000000000E+01 0. -1.
        -11    1    4    4    0    0 -0.55341572592E+01  0.13265795851E+03 -0.24563026595E+03  0.27921853163E+03  0.00000000000E+00 0.  1.
         11    1    4    4    0    0 -0.31988257198E+02  0.38675812723E+02 -0.24929827289E+02  0.56040729626E+02  0.00000000000E+00 0. -1.
<mgrwt>
<rscale>  0 0.21089310E+03</rscale>
<asrwt>0</asrwt>
<pdfrwt beam="1">  1        4 0.10234406E-01 0.21538206E+03</pdfrwt>
<pdfrwt beam="2">  1       -4 0.98810943E-01 0.21538206E+03</pdfrwt>
<totfact> 0.11516415E+02</totfact>
</mgrwt>
</event>
<event>
 8    1  0.1154424E-005  0.1283827E+03  0.7546771E-02  0.1244040E+00
          2   -1    0    0  501    0  0.00000000000E+00  0.00000000000E+00  0.20354855828E+03  0.20354855828E+03  0.00000000000E+00 0. -1.
         -2   -1    0    0    0  501 -0.00000000000E+00 -0.00000000000E+00 -0.62159024491E+02  0.62159024491E+02  0.00000000000E+00 0.  1.
         23    2    1    2    0    0 -0.11320292340E+02 -0.27003677781E+02  0.72621593100E+02  0.14749919656E+03  0.12499907827E+03 0.  0.
         23    2    1    2    0    0  0.11320292340E+02  0.27003677781E+02  0.68767940693E+02  0.11820838622E+03  0.91579720857E+02 0.  0.
          5    1    3    3  502    0  0.16573670220E+02  0.41028200458E+02  0.65129398352E+00  0.44502965758E+02  0.47000000000E+01 0. -1.
         -5    1    3    3    0  502 -0.27893962561E+02 -0.68031878240E+02  0.71970299117E+02  0.10299623080E+03  0.47000000000E+01 0. -1.
        -11    1    4    4    0    0  0.12925657951E+02 -0.14580275447E+02  0.73764517633E+02  0.76294568137E+02  0.00000000000E+00 0. -1.
         11    1    4    4    0    0 -0.16053656102E+01  0.41583953229E+02 -0.49965769398E+01  0.41913818079E+02  0.00000000000E+00 0.  1.
<mgrwt>
<rscale>  0 0.11943002E+03</rscale>
<asrwt>0</asrwt>
<pdfrwt beam="1">  1        2 0.31315162E-01 0.12838270E+03</pdfrwt>
<pdfrwt beam="2">  1       -2 0.95629270E-02 0.12838270E+03</pdfrwt>
<totfact> 0.11165453E+04</totfact>
</mgrwt>
</event>
<event>
 8    1  0.1154424E-005  0.1347648E+03  0.7546771E-02  0.1232451E+00
         -1   -1    0    0    0  501 -0.00000000000E+00  0.00000000000E+00  0.11576784023E+03  0.11576784023E+03  0.00000000000E+00 0.  1.
          1   -1    0    0  501    0  0.00000000000E+00 -0.00000000000E+00 -0.13853502775E+03  0.13853502775E+03  0.00000000000E+00 0. -1.
         23    2    1    2    0    0 -0.14789914452E+02  0.48123470050E+02  0.27688372112E+02  0.13757981402E+03  0.12500779710E+03 0.  0.
         23    2    1    2    0    0  0.14789914452E+02 -0.48123470050E+02 -0.50455559628E+02  0.11672305397E+03  0.92433207726E+02 0.  0.
          5    1    3    3  502    0 -0.28749122531E+02  0.71401101957E+02 -0.22498699463E+02  0.80330012352E+02  0.47000000000E+01 0.  1.
         -5    1    3    3    0  502  0.13959208079E+02 -0.23277631907E+02  0.50187071575E+02  0.57249801665E+02  0.47000000000E+01 0.  1.
        -11    1    4    4    0    0  0.27668592394E+02 -0.18107824440E+01 -0.61446167340E+02  0.67412620621E+02  0.00000000000E+00 0. -1.
         11    1    4    4    0    0 -0.12878677942E+02 -0.46312687606E+02  0.10990607712E+02  0.49310433346E+02  0.00000000000E+00 0.  1.
<mgrwt>
<rscale>  0 0.12669007E+03</rscale>
<asrwt>0</asrwt>
<pdfrwt beam="2">  1        1 0.21313081E-01 0.13476483E+03</pdfrwt>
<pdfrwt beam="1">  1       -1 0.17810437E-01 0.13476483E+03</pdfrwt>
<totfact> 0.54583496E+03</totfact>
</mgrwt>
</event>
<event>
 8    1  0.1154424E-005  0.1404020E+03  0.7546771E-02  0.1224224E+00
          1   -1    0    0  501    0  0.00000000000E+00  0.00000000000E+00  0.49094860994E+03  0.49094860994E+03  0.00000000000E+00 0. -1.
         -1   -1    0    0    0  501 -0.00000000000E+00 -0.00000000000E+00 -0.32129004634E+02  0.32129004634E+02  0.00000000000E+00 0.  1.
         23    2    1    2    0    0  0.56963044653E+02 -0.29202476661E+02  0.27178920345E+03  0.30591191571E+03  0.12496061764E+03 0.  0.
         23    2    1    2    0    0 -0.56963044653E+02  0.29202476661E+02  0.18703040185E+03  0.21716569887E+03  0.89905486189E+02 0.  0.
          5    1    3    3  502    0  0.20059068138E+02 -0.44342120254E+02  0.23236892844E+02  0.54135321485E+02  0.47000000000E+01 0.  1.
         -5    1    3    3    0  502  0.36903976515E+02  0.15139643593E+02  0.24855231061E+03  0.25177659423E+03  0.47000000000E+01 0.  1.
        -11    1    4    4    0    0  0.27125509683E+01  0.47688893979E+02  0.75921626008E+02  0.89697724817E+02  0.00000000000E+00 0.  1.
         11    1    4    4    0    0 -0.59675595621E+02 -0.18486417318E+02  0.11110877585E+03  0.12746797405E+03  0.00000000000E+00 0. -1.
<mgrwt>
<rscale>  0 0.13220214E+03</rscale>
<asrwt>0</asrwt>
<pdfrwt beam="1">  1        1 0.75530550E-01 0.14040203E+03</pdfrwt>
<pdfrwt beam="2">  1       -1 0.49429241E-02 0.14040203E+03</pdfrwt>
<totfact> 0.79380483E+03</totfact>
</mgrwt>
</event>
<event>
 8    1  0.1154424E-005  0.1346483E+03  0.7546771E-02  0.1233798E+00
         -2   -1    0    0    0  501 -0.00000000000E+00  0.00000000000E+00  0.18502046013E+03  0.18502046013E+03  0.00000000000E+00 0.  1.
          2   -1    0    0  501    0  0.00000000000E+00 -0.00000000000E+00 -0.87762546786E+02  0.87762546786E+02  0.00000000000E+00 0. -1.
         23    2    1    2    0    0 -0.26718440708E+01  0.49976823437E+02  0.10366834675E+03  0.16993322851E+03  0.12500141760E+03 0.  0.
         23    2    1    2    0    0  0.26718440708E+01 -0.49976823437E+02 -0.64104334082E+01  0.10284977840E+03  0.89622327741E+02 0.  0.
          5    1    3    3  502    0 -0.96596276959E+01 -0.39597697609E+02  0.51809742143E+02  0.66088012863E+02  0.47000000000E+01 0. -1.
         -5    1    3    3    0  502  0.69877836251E+01  0.89574521046E+02  0.51858604604E+02  0.10384521564E+03  0.47000000000E+01 0. -1.
        -11    1    4    4    0    0  0.19724027901E+02 -0.10558945218E+02 -0.41660690616E+02  0.47287860422E+02  0.00000000000E+00 0. -1.
         11    1    4    4    0    0 -0.17052183830E+02 -0.39417878220E+02  0.35250257208E+02  0.55561917982E+02  0.00000000000E+00 0.  1.
<mgrwt>
<rscale>  0 0.12581728E+03</rscale>
<asrwt>0</asrwt>
<pdfrwt beam="2">  1        2 0.13501930E-01 0.13464834E+03</pdfrwt>
<pdfrwt beam="1">  1       -2 0.28464686E-01 0.13464834E+03</pdfrwt>
<totfact> 0.47439704E+03</totfact>
</mgrwt>
</event>
<event>
 8    1  0.1154424E-005  0.1739312E+03  0.7546771E-02  0.1177739E+00
         -2   -1    0    0    0  501 -0.00000000000E+00  0.00000000000E+00  0.19009881881E+03  0.19009881881E+03  0.00000000000E+00 0.  1.
          2   -1    0    0  501    0  0.00000000000E+00 -0.00000000000E+00 -0.18384262445E+03  0.18384262445E+03  0.00000000000E+00 0. -1.
         23    2    1    2    0    0  0.29265997634E+02 -0.12695576510E+03  0.88136584971E+02  0.19498744759E+03  0.11522925929E+03 0.  0.
         23    2    1    2    0    0 -0.29265997634E+02  0.12695576510E+03 -0.81880390611E+02  0.17895399567E+03  0.91355729380E+02 0.  0.
          5    1    3    3  502    0  0.88405731309E+01 -0.89455978735E+02 -0.73177579402E+01  0.90311502290E+02  0.47000000000E+01 0. -1.
         -5    1    3    3    0  502  0.20425424503E+02 -0.37499786367E+02  0.95454342911E+02  0.10467594530E+03  0.47000000000E+01 0.  1.
        -11    1    4    4    0    0  0.17400960532E+02  0.10682265270E+03 -0.58137735397E+02  0.12285710738E+03  0.00000000000E+00 0.  1.
         11    1    4    4    0    0 -0.46666958166E+02  0.20133112405E+02 -0.23742655214E+02  0.56096888293E+02  0.00000000000E+00 0. -1.
<mgrwt>
<rscale>  0 0.17010469E+03</rscale>
<asrwt>0</asrwt>
<pdfrwt beam="2">  1        2 0.28283481E-01 0.17393116E+03</pdfrwt>
<pdfrwt beam="1">  1       -2 0.29245972E-01 0.17393116E+03</pdfrwt>
<totfact> 0.19721644E+03</totfact>
</mgrwt>
</event>
<event>
 7    1  0.1154424E-005  0.1659422E+03  0.7546771E-02  0.1191301E+00
          3   -1    0    0  501    0  0.00000000000E+00  0.00000000000E+00  0.17022838502E+03  0.17022838502E+03  0.00000000000E+00 0. -1.
         -3   -1    0    0    0  501 -0.00000000000E+00 -0.00000000000E+00 -0.24317977895E+03  0.24317977895E+03  0.00000000000E+00 0.  1.
         23    2    1    2    0    0  0.96673994340E+02  0.20740206911E+02  0.10406597794E+03  0.17077271226E+03  0.92507157152E+02 0.  0.
          5    1    1    2  502    0 -0.11480099353E+02  0.51782825443E+02 -0.67827937616E+02  0.86232086912E+02  0.47000000000E+01 0. -1.
         -5    1    1    2    0  502 -0.85193894987E+02 -0.72523032354E+02 -0.10918943426E+03  0.15640336479E+03  0.47000000000E+01 0.  1.
        -11    1    3    3    0    0 -0.13735941133E+02  0.68609945674E+01  0.38891476920E+02  0.41812633286E+02  0.00000000000E+00 0.  1.
         11    1    3    3    0    0  0.11040993547E+03  0.13879212344E+02  0.65174501021E+02  0.12896007898E+03  0.00000000000E+00 0. -1.
<mgrwt>
<rscale>  0 0.15771521E+03</rscale>
<asrwt>0</asrwt>
<pdfrwt beam="1">  1        3 0.26188982E-01 0.16594220E+03</pdfrwt>
<pdfrwt beam="2">  1       -3 0.37412274E-01 0.16594220E+03</pdfrwt>
<totfact> 0.23331160E+02</totfact>
</mgrwt>
</event>
<event>
 8    1  0.1527504E-005  0.2088423E+03  0.7546771E-02  0.1146731E+00
         -2   -1    0    0    0  501 -0.00000000000E+00  0.00000000000E+00  0.19250001150E+03  0.19250001150E+03  0.00000000000E+00 0.  1.
          2   -1    0    0  501    0  0.00000000000E+00 -0.00000000000E+00 -0.23224317255E+03  0.23224317255E+03  0.00000000000E+00 0. -1.
         23    2    1    2    0    0  0.74242241844E+00  0.16730107553E+03  0.51593209707E+02  0.21512085104E+03  0.12499968080E+03 0.  0.
         23    2    1    2    0    0 -0.74242241844E+00 -0.16730107553E+03 -0.91336370756E+02  0.20962233300E+03  0.87229517987E+02 0.  0.
          5    1    3    3  502    0  0.43110496443E+02  0.15706151595E+03  0.52752038080E+02  0.17126500582E+03  0.47000000000E+01 0. -1.
         -5    1    3    3    0  502 -0.42368074024E+02  0.10239559577E+02 -0.11588283734E+01  0.43855845221E+02  0.47000000000E+01 0. -1.
        -11    1    4    4    0    0  0.38057059462E+02 -0.68721067059E+02 -0.17475070094E+02  0.80475480163E+02  0.00000000000E+00 0.  1.
         11    1    4    4    0    0 -0.38799481880E+02 -0.98580008466E+02 -0.73861300662E+02  0.12914685284E+03  0.00000000000E+00 0. -1.
<mgrwt>
<rscale>  0 0.20360757E+03</rscale>
<asrwt>0</asrwt>
<pdfrwt beam="2">  1        2 0.35729719E-01 0.20884234E+03</pdfrwt>
<pdfrwt beam="1">  1       -2 0.29615386E-01 0.20884234E+03</pdfrwt>
<totfact> 0.15030411E+03</totfact>
</mgrwt>
</event>
<event>
 8    1  0.1174814E-005  0.1808777E+03  0.7546771E-02  0.1172038E+00
         -3   -1    0    0    0  501 -0.00000000000E+00  0.00000000000E+00  0.11319415351E+04  0.11319415351E+04  0.00000000000E+00 0.  1.
          3   -1    0    0  501    0  0.00000000000E+00 -0.00000000000E+00 -0.25934273424E+02  0.25934273424E+02  0.00000000000E+00 0. -1.
         23    2    1    2    0    0  0.12600597217E+03  0.34848665816E+02  0.62402918215E+03  0.64971468822E+03  0.12499928552E+03 0.  0.
         23    2    1    2    0    0 -0.12600597217E+03 -0.34848665816E+02  0.48197807951E+03  0.50816112029E+03  0.93983618334E+02 0.  0.
          5    1    3    3  502    0  0.86885583025E+02 -0.37868171697E+02  0.27125057567E+03  0.28737095846E+03  0.47000000000E+01 0. -1.
         -5    1    3    3    0  502  0.39120389141E+02  0.72716837513E+02  0.35277860648E+03  0.36234372976E+03  0.47000000000E+01 0. -1.
        -11    1    4    4    0    0 -0.80220195944E+02  0.72810017602E+01  0.14860697677E+03  0.16903350665E+03  0.00000000000E+00 0. -1.
         11    1    4    4    0    0 -0.45785776221E+02 -0.42129667576E+02  0.33337110274E+03  0.33912761365E+03  0.00000000000E+00 0.  1.
<mgrwt>
<rscale>  0 0.17569256E+03</rscale>
<asrwt>0</asrwt>
<pdfrwt beam="2">  1        3 0.39898891E-02 0.18087774E+03</pdfrwt>
<pdfrwt beam="1">  1       -3 0.17414481E+00 0.18087774E+03</pdfrwt>
<totfact> 0.18393149E+02</totfact>
</mgrwt>
</event>
<event>
 8    1  0.1154424E-005  0.1423669E+03  0.7546771E-02  0.1221683E+00
         -3   -1    0    0    0  501 -0.00000000000E+00  0.00000000000E+00  0.16056196486E+03  0.16056196486E+03  0.00000000000E+00 0.  1.
          3   -1    0    0  501    0  0.00000000000E+00 -0.00000000000E+00 -0.10781842673E+03  0.10781842673E+03  0.00000000000E+00 0. -1.
         23    2    1    2    0    0  0.64366266080E+02  0.22362952217E+02  0.64181716562E+02  0.15616542886E+03  0.12500092235E+03 0.  0.
         23    2    1    2    0    0 -0.64366266080E+02 -0.22362952217E+02 -0.11438178438E+02  0.11221496273E+03  0.88420857795E+02 0.  0.
          5    1    3    3  502    0  0.97390228268E+02  0.60574101664E-01  0.26312316534E+02  0.10099152555E+03  0.47000000000E+01 0. -1.
         -5    1    3    3    0  502 -0.33023962188E+02  0.22302378115E+02  0.37869400028E+02  0.55173903312E+02  0.47000000000E+01 0. -1.
        -11    1    4    4    0    0 -0.41738933402E+02  0.31591981946E+02 -0.12000266749E+02  0.53704732444E+02  0.00000000000E+00 0.  1.
         11    1    4    4    0    0 -0.22627332678E+02 -0.53954934163E+02  0.56208831118E+00  0.58510230284E+02  0.00000000000E+00 0. -1.
<mgrwt>
<rscale>  0 0.13396847E+03</rscale>
<asrwt>0</asrwt>
<pdfrwt beam="2">  1        3 0.16587450E-01 0.14236695E+03</pdfrwt>
<pdfrwt beam="1">  1       -3 0.24701841E-01 0.14236695E+03</pdfrwt>
<totfact> 0.11114220E+03</totfact>
</mgrwt>
</event>
<event>
 8    1  0.1154424E-005  0.1204198E+03  0.7546771E-02  0.1244885E+00
          1   -1    0    0  501    0  0.00000000000E+00  0.00000000000E+00  0.22307278225E+03  0.22307278225E+03  0.00000000000E+00 0. -1.
         -1   -1    0    0    0  501 -0.00000000000E+00 -0.00000000000E+00 -0.22765813469E+03  0.22765813469E+03  0.00000000000E+00 0.  1.
         23    2    1    2    0    0 -0.21073201540E+02  0.98576647854E+01 -0.19461070079E+03  0.22885424072E+03  0.11815111195E+03 0.  0.
         23    2    1    2    0    0  0.21073201540E+02 -0.98576647854E+01  0.19002534835E+03  0.22187667622E+03  0.11215334616E+03 0.  0.
          5    1    3    3  502    0 -0.23061677724E+00  0.56846154306E+02 -0.51986149257E+02  0.77176344549E+02  0.47000000000E+01 0. -1.
         -5    1    3    3    0  502 -0.20842584763E+02 -0.46988489520E+02 -0.14262455153E+03  0.15167789617E+03  0.47000000000E+01 0.  1.
        -11    1    4    4    0    0 -0.37442509417E+02 -0.18990826604E+02  0.13373191193E+03  0.14016710482E+03  0.00000000000E+00 0.  1.
         11    1    4    4    0    0  0.58515710957E+02  0.91331618183E+01  0.56293436427E+02  0.81709571400E+02  0.00000000000E+00 0. -1.
<mgrwt>
<rscale>  0 0.11892242E+03</rscale>
<asrwt>0</asrwt>
<pdfrwt beam="1">  1        1 0.34318890E-01 0.12041984E+03</pdfrwt>
<pdfrwt beam="2">  1       -1 0.35024328E-01 0.12041984E+03</pdfrwt>
<totfact> 0.98648134E+02</totfact>
</mgrwt>
</event>
<event>
 8    1  0.1154424E-005  0.1290213E+03  0.7546771E-02  0.1242238E+00
          2   -1    0    0  501    0  0.00000000000E+00  0.00000000000E+00  0.48134096354E+03  0.48134096354E+03  0.00000000000E+00 0. -1.
         -2   -1    0    0    0  501 -0.00000000000E+00 -0.00000000000E+00 -0.28105060086E+02  0.28105060086E+02  0.00000000000E+00 0.  1.
         23    2    1    2    0    0  0.31892049038E+02  0.21746835510E+01  0.20202643409E+03  0.23971061291E+03  0.12499866331E+03 0.  0.
         23    2    1    2    0    0 -0.31892049038E+02 -0.21746835510E+01  0.25120946936E+03  0.26973541072E+03  0.92893284240E+02 0.  0.
          5    1    3    3  502    0 -0.27457977106E+02  0.39463503825E+02  0.38627098650E+02  0.61850233557E+02  0.47000000000E+01 0.  1.
         -5    1    3    3    0  502  0.59350026144E+02 -0.37288820274E+02  0.16339933544E+03  0.17786037935E+03  0.47000000000E+01 0.  1.
        -11    1    4    4    0    0  0.47496486495E+01  0.32935546263E+02  0.37733019388E+02  0.50309940589E+02  0.00000000000E+00 0.  1.
         11    1    4    4    0    0 -0.36641697687E+02 -0.35110229814E+02  0.21347644998E+03  0.21942547013E+03  0.00000000000E+00 0. -1.
<mgrwt>
<rscale>  0 0.12052235E+03</rscale>
<asrwt>0</asrwt>
<pdfrwt beam="1">  1        2 0.74052450E-01 0.12902131E+03</pdfrwt>
<pdfrwt beam="2">  1       -2 0.43238558E-02 0.12902131E+03</pdfrwt>
<totfact> 0.14939188E+04</totfact>
</mgrwt>
</event>
<event>
 8    1  0.1154424E-005  0.3201670E+03  0.7546771E-02  0.1076887E+00
         -1   -1    0    0    0  501 -0.00000000000E+00  0.00000000000E+00  0.15536341874E+03  0.15536341874E+03  0.00000000000E+00 0.  1.
          1   -1    0    0  501    0  0.00000000000E+00 -0.00000000000E+00 -0.87731889583E+03  0.87731889583E+03  0.00000000000E+00 0. -1.
         23    2    1    2    0    0  0.29302357602E+03  0.31954249938E+02 -0.95368165468E+02  0.33406886774E+03  0.12499212460E+03 0.  0.
         23    2    1    2    0    0 -0.29302357602E+03 -0.31954249938E+02 -0.62658731161E+03  0.69861344683E+03  0.92548359407E+02 0.  0.
          5    1    3    3  502    0  0.20382450233E+03 -0.23390761750E+02 -0.23044858858E+02  0.20650595876E+03  0.47000000000E+01 0.  1.
         -5    1    3    3    0  502  0.89199073691E+02  0.55345011689E+02 -0.72323306610E+02  0.12756290897E+03  0.47000000000E+01 0.  1.
        -11    1    4    4    0    0 -0.14928896122E+03  0.84360370147E+01 -0.22484562120E+03  0.27002576551E+03  0.00000000000E+00 0. -1.
         11    1    4    4    0    0 -0.14373461480E+03 -0.40390286953E+02 -0.40174169041E+03  0.42858768133E+03  0.00000000000E+00 0.  1.
<mgrwt>
<rscale>  0 0.31732473E+03</rscale>
<asrwt>0</asrwt>
<pdfrwt beam="2">  1        1 0.13497214E+00 0.32016702E+03</pdfrwt>
<pdfrwt beam="1">  1       -1 0.23902064E-01 0.32016702E+03</pdfrwt>
<totfact> 0.29949661E+02</totfact>
</mgrwt>
</event>
<event>
 8    1  0.1154424E-005  0.1368673E+03  0.7546771E-02  0.1229193E+00
          1   -1    0    0  501    0  0.00000000000E+00  0.00000000000E+00  0.19043622942E+03  0.19043622942E+03  0.00000000000E+00 0. -1.
         -1   -1    0    0    0  501 -0.00000000000E+00 -0.00000000000E+00 -0.78393807345E+02  0.78393807345E+02  0.00000000000E+00 0.  1.
         23    2    1    2    0    0 -0.92034381502E+01 -0.54988833708E+02  0.60349541531E+02  0.14958181791E+03  0.12499671188E+03 0.  0.
         23    2    1    2    0    0  0.92034381502E+01  0.54988833708E+02  0.51692880545E+02  0.11924821885E+03  0.91866798652E+02 0.  0.
          5    1    3    3  502    0 -0.66338157906E+01  0.28471551576E+02  0.58915330582E+02  0.65937416834E+02  0.47000000000E+01 0. -1.
         -5    1    3    3    0  502 -0.25696223596E+01 -0.83460385284E+02  0.14342109489E+01  0.83644401079E+02  0.47000000000E+01 0. -1.
        -11    1    4    4    0    0  0.24984140276E+01  0.42540380280E+02 -0.19357743214E+02  0.46804361435E+02  0.00000000000E+00 0.  1.
         11    1    4    4    0    0  0.67050241226E+01  0.12448453428E+02  0.71050623759E+02  0.72443857419E+02  0.00000000000E+00 0. -1.
<mgrwt>
<rscale>  0 0.12883623E+03</rscale>
<asrwt>0</asrwt>
<pdfrwt beam="1">  1        1 0.29297881E-01 0.13686728E+03</pdfrwt>
<pdfrwt beam="2">  1       -1 0.12060586E-01 0.13686728E+03</pdfrwt>
<totfact> 0.67450009E+03</totfact>
</mgrwt>
</event>
<event>
 8    1  0.1154424E-005  0.1660004E+03  0.7546771E-02  0.1187891E+00
          2   -1    0    0  501    0  0.00000000000E+00  0.00000000000E+00  0.11703390993E+04  0.11703390993E+04  0.00000000000E+00 0. -1.
         -2   -1    0    0    0  501 -0.00000000000E+00 -0.00000000000E+00 -0.21287821683E+02  0.21287821683E+02  0.00000000000E+00 0.  1.
         23    2    1    2    0    0  0.95081239572E+02 -0.53772510372E+02  0.51836531164E+03  0.54429653227E+03  0.12499677494E+03 0.  0.
         23    2    1    2    0    0 -0.95081239572E+02  0.53772510372E+02  0.63068596597E+03  0.64733038870E+03  0.96643258804E+02 0.  0.
          5    1    3    3  502    0 -0.23455250262E+02  0.26977630607E+01  0.17509165751E+03  0.17673880507E+03  0.47000000000E+01 0. -1.
         -5    1    3    3    0  502  0.11853648983E+03 -0.56470273432E+02  0.34327365413E+03  0.36755772720E+03  0.47000000000E+01 0. -1.
        -11    1    4    4    0    0 -0.42418464819E+02 -0.16950339702E+02  0.10806387682E+03  0.11732195722E+03  0.00000000000E+00 0.  1.
         11    1    4    4    0    0 -0.52662774753E+02  0.70722850073E+02  0.52262208916E+03  0.53000843148E+03  0.00000000000E+00 0. -1.
<mgrwt>
<rscale>  0 0.16071537E+03</rscale>
<asrwt>0</asrwt>
<pdfrwt beam="1">  1        2 0.18005212E+00 0.16600036E+03</pdfrwt>
<pdfrwt beam="2">  1       -2 0.32750504E-02 0.16600036E+03</pdfrwt>
<totfact> 0.75728545E+03</totfact>
</mgrwt>
</event>
<event>
 8    1  0.1154424E-005  0.1461480E+03  0.7546771E-02  0.1214842E+00
          1   -1    0    0  501    0  0.00000000000E+00  0.00000000000E+00  0.16958180913E+03  0.16958180913E+03  0.00000000000E+00 0. -1.
         -1   -1    0    0    0  501 -0.00000000000E+00 -0.00000000000E+00 -0.10440731568E+03  0.10440731568E+03  0.00000000000E+00 0.  1.
         23    2    1    2    0    0  0.64398141686E+01  0.75448598353E+02  0.25332342200E+02  0.14832723988E+03  0.12500112131E+03 0.  0.
         23    2    1    2    0    0 -0.64398141686E+01 -0.75448598353E+02  0.39842151250E+02  0.12566188493E+03  0.92030158690E+02 0.  0.
          5    1    3    3  502    0  0.40651418505E+02  0.84998448330E+02  0.48084734106E+02  0.10588439781E+03  0.47000000000E+01 0. -1.
         -5    1    3    3    0  502 -0.34211604337E+02 -0.95498499770E+01 -0.22752391905E+02  0.42442842074E+02  0.47000000000E+01 0. -1.
        -11    1    4    4    0    0  0.10119121296E+02 -0.32079554117E+02  0.64759548768E+02  0.72974609042E+02  0.00000000000E+00 0. -1.
         11    1    4    4    0    0 -0.16558935465E+02 -0.43369044236E+02 -0.24917397518E+02  0.52687275891E+02  0.00000000000E+00 0.  1.
<mgrwt>
<rscale>  0 0.13888142E+03</rscale>
<asrwt>0</asrwt>
<pdfrwt beam="1">  1        1 0.26089509E-01 0.14614802E+03</pdfrwt>
<pdfrwt beam="2">  1       -1 0.16062664E-01 0.14614802E+03</pdfrwt>
<totfact> 0.50066927E+03</totfact>
</mgrwt>
</event>
<event>
 8    1  0.1154424E-005  0.3283746E+03  0.7546771E-02  0.1073383E+00
         -1   -1    0    0    0  501 -0.00000000000E+00  0.00000000000E+00  0.51908838650E+02  0.51908838650E+02  0.00000000000E+00 0.  1.
          1   -1    0    0  501    0  0.00000000000E+00 -0.00000000000E+00 -0.20036630033E+04  0.20036630033E+04  0.00000000000E+00 0. -1.
         23    2    1    2    0    0  0.29586718576E+03 -0.68314868643E+02 -0.92253151439E+03  0.97923148566E+03  0.12500237823E+03 0.  0.
         23    2    1    2    0    0 -0.29586718576E+03  0.68314868643E+02 -0.10292226502E+04  0.10763403563E+04  0.83695793771E+02 0.  0.
          5    1    3    3  502    0  0.23376636463E+03 -0.91004941142E+01 -0.56539288761E+03  0.61189928876E+03  0.47000000000E+01 0. -1.
         -5    1    3    3    0  502  0.62100821133E+02 -0.59214374529E+02 -0.35713862678E+03  0.36733219689E+03  0.47000000000E+01 0. -1.
        -11    1    4    4    0    0 -0.85846637538E+02  0.53411060266E+02 -0.41076965810E+03  0.42302966628E+03  0.00000000000E+00 0. -1.
         11    1    4    4    0    0 -0.21002054822E+03  0.14903808377E+02 -0.61845299214E+03  0.65331069000E+03  0.00000000000E+00 0.  1.
<mgrwt>
<rscale>  0 0.32497224E+03</rscale>
<asrwt>0</asrwt>
<pdfrwt beam="2">  1        1 0.30825580E+00 0.32837464E+03</pdfrwt>
<pdfrwt beam="1">  1       -1 0.79859765E-02 0.32837464E+03</pdfrwt>
<totfact> 0.28701589E+02</totfact>
</mgrwt>
</event>
<event>
 8    1  0.1154424E-005  0.2286485E+03  0.7546771E-02  0.1130568E+00
          4   -1    0    0  501    0  0.00000000000E+00  0.00000000000E+00  0.27694176111E+03  0.27694176111E+03  0.00000000000E+00 0. -1.
         -4   -1    0    0    0  501 -0.00000000000E+00 -0.00000000000E+00 -0.21636356161E+03  0.21636356161E+03  0.00000000000E+00 0.  1.
         23    2    1    2    0    0  0.90672046612E+02  0.16862255291E+03 -0.75689045145E+02  0.24085054235E+03  0.12500066724E+03 0.  0.
         23    2    1    2    0    0 -0.90672046612E+02 -0.16862255291E+03  0.13626724465E+03  0.25245478036E+03  0.92247865969E+02 0.  0.
          5    1    3    3  502    0 -0.19584919738E+02  0.91232729795E+02 -0.38278913317E+02  0.10096705043E+03  0.47000000000E+01 0.  1.
         -5    1    3    3    0  502  0.11025696635E+03  0.77389823117E+02 -0.37410131828E+02  0.13988349193E+03  0.47000000000E+01 0.  1.
        -11    1    4    4    0    0 -0.54829126666E+02 -0.49005898895E+02  0.88798272268E+01  0.74072009484E+02  0.00000000000E+00 0. -1.
         11    1    4    4    0    0 -0.35842919946E+02 -0.11961665402E+03  0.12738741742E+03  0.17838277088E+03  0.00000000000E+00 0.  1.
<mgrwt>
<rscale>  0 0.22450507E+03</rscale>
<asrwt>0</asrwt>
<pdfrwt beam="1">  1        4 0.42606425E-01 0.22864853E+03</pdfrwt>
<pdfrwt beam="2">  1       -4 0.33286702E-01 0.22864853E+03</pdfrwt>
<totfact> 0.84455108E+01</totfact>
</mgrwt>
</event>
<event>
 8    1  0.1154424E-005  0.1717582E+03  0.7546771E-02  0.1182266E+00
         -2   -1    0    0    0  501 -0.00000000000E+00  0.00000000000E+00  0.31891912383E+02  0.31891912383E+02  0.00000000000E+00 0.  1.
          2   -1    0    0  501    0  0.00000000000E+00 -0.00000000000E+00 -0.84075894859E+03  0.84075894859E+03  0.00000000000E+00 0. -1.
         23    2    1    2    0    0  0.94735312881E+02 -0.69987920969E+02 -0.34547074915E+03  0.38581202885E+03  0.12501117751E+03 0.  0.
         23    2    1    2    0    0 -0.94735312881E+02  0.69987920969E+02 -0.46339628706E+03  0.48683883212E+03  0.91667011575E+02 0.  0.
          5    1    3    3  502    0  0.29394734924E+02 -0.54131872983E+02 -0.29554960002E+03  0.30193702355E+03  0.47000000000E+01 0.  1.
         -5    1    3    3    0  502  0.65340577957E+02 -0.15856047986E+02 -0.49921149124E+02  0.83875005307E+02  0.47000000000E+01 0.  1.
        -11    1    4    4    0    0 -0.18987996820E+02  0.70770884661E+02 -0.21446964315E+03  0.22664132450E+03  0.00000000000E+00 0. -1.
         11    1    4    4    0    0 -0.75747316062E+02 -0.78296369242E+00 -0.24892664391E+03  0.26019750762E+03  0.00000000000E+00 0.  1.
<mgrwt>
<rscale>  0 0.16583172E+03</rscale>
<asrwt>0</asrwt>
<pdfrwt beam="2">  1        2 0.12934754E+00 0.17175821E+03</pdfrwt>
<pdfrwt beam="1">  1       -2 0.49064477E-02 0.17175821E+03</pdfrwt>
<totfact> 0.65605559E+03</totfact>
</mgrwt>
</event>
<event>
 8    1  0.1896057E-005  0.1617853E+03  0.7546771E-02  0.1194387E+00
          3   -1    0    0  501    0  0.00000000000E+00  0.00000000000E+00  0.22655727287E+03  0.22655727287E+03  0.00000000000E+00 0. -1.
         -3   -1    0    0    0  501 -0.00000000000E+00 -0.00000000000E+00 -0.10287924023E+03  0.10287924023E+03  0.00000000000E+00 0.  1.
         23    2    1    2    0    0  0.97285596481E+02  0.32939286063E+02  0.31816032036E+02  0.16488402872E+03  0.12499999673E+03 0.  0.
         23    2    1    2    0    0 -0.97285596481E+02 -0.32939286063E+02  0.91862000602E+02  0.16455248438E+03  0.89941142495E+02 0.  0.
          5    1    3    3  502    0  0.10584665942E+03  0.92098776977E+01 -0.18927147183E+02  0.10802159070E+03  0.47000000000E+01 0. -1.
         -5    1    3    3    0  502 -0.85610629381E+01  0.23729408365E+02  0.50743179219E+02  0.56862438017E+02  0.47000000000E+01 0. -1.
        -11    1    4    4    0    0 -0.59569017417E+02 -0.26002371638E+02 -0.11075026484E-01  0.64996855997E+02  0.00000000000E+00 0.  1.
         11    1    4    4    0    0 -0.37716579064E+02 -0.69369144249E+01  0.91873075629E+02  0.99555628387E+02  0.00000000000E+00 0. -1.
<mgrwt>
<rscale>  0 0.15506251E+03</rscale>
<asrwt>0</asrwt>
<pdfrwt beam="1">  1        3 0.34854965E-01 0.16178530E+03</pdfrwt>
<pdfrwt beam="2">  1       -3 0.15827576E-01 0.16178530E+03</pdfrwt>
<totfact> 0.64998905E+02</totfact>
</mgrwt>
</event>
<event>
 8    1  0.1705563E-005  0.3760227E+03  0.7546771E-02  0.1053257E+00
         -1   -1    0    0    0  501 -0.00000000000E+00  0.00000000000E+00  0.20781402526E+03  0.20781402526E+03  0.00000000000E+00 0.  1.
          1   -1    0    0  501    0  0.00000000000E+00 -0.00000000000E+00 -0.68196410568E+03  0.68196410568E+03  0.00000000000E+00 0. -1.
         23    2    1    2    0    0 -0.27503841588E+03  0.22388044446E+03 -0.31124729083E+03  0.48812697369E+03  0.12499793107E+03 0.  0.
         23    2    1    2    0    0  0.27503841588E+03 -0.22388044446E+03 -0.16290278960E+03  0.40165115726E+03  0.94961832560E+02 0.  0.
          5    1    3    3  502    0 -0.15395578061E+03  0.48305018651E+02 -0.15404820670E+03  0.22313381007E+03  0.47000000000E+01 0. -1.
         -5    1    3    3    0  502 -0.12108263527E+03  0.17557542581E+03 -0.15719908413E+03  0.26499316362E+03  0.47000000000E+01 0. -1.
        -11    1    4    4    0    0  0.24047357039E+03 -0.19015997495E+03 -0.17342686531E+03  0.35222894790E+03  0.00000000000E+00 0. -1.
         11    1    4    4    0    0  0.34564845493E+02 -0.33720469509E+02  0.10524075711E+02  0.49422209354E+02  0.00000000000E+00 0.  1.
<mgrwt>
<rscale>  0 0.37378019E+03</rscale>
<asrwt>0</asrwt>
<pdfrwt beam="2">  1        1 0.10491755E+00 0.37602269E+03</pdfrwt>
<pdfrwt beam="1">  1       -1 0.31971389E-01 0.37602269E+03</pdfrwt>
<totfact> 0.26767409E+02</totfact>
</mgrwt>
</event>
<event>
 8    1  0.1154424E-005  0.1463879E+03  0.7546771E-02  0.1215203E+00
         -1   -1    0    0    0  501 -0.00000000000E+00  0.00000000000E+00  0.27066535264E+03  0.27066535264E+03  0.00000000000E+00 0.  1.
          1   -1    0    0  501    0  0.00000000000E+00 -0.00000000000E+00 -0.72440950329E+02  0.72440950329E+02  0.00000000000E+00 0. -1.
         23    2    1    2    0    0  0.11347084963E+01  0.76177224875E+02  0.16549579935E+03  0.22094856884E+03  0.12500061327E+03 0.  0.
         23    2    1    2    0    0 -0.11347084963E+01 -0.76177224875E+02  0.32728602958E+02  0.12215773412E+03  0.89705592922E+02 0.  0.
          5    1    3    3  502    0  0.27780037435E+02 -0.27414805258E+02  0.45552094217E+02  0.60169637815E+02  0.47000000000E+01 0.  1.
         -5    1    3    3    0  502 -0.26645328938E+02  0.10359203013E+03  0.11994370513E+03  0.16077893103E+03  0.47000000000E+01 0.  1.
        -11    1    4    4    0    0 -0.16821133513E+02 -0.12993624450E+02  0.50401349036E+02  0.54699915847E+02  0.00000000000E+00 0.  1.
         11    1    4    4    0    0  0.15686425017E+02 -0.63183600426E+02 -0.17672746079E+02  0.67457818276E+02  0.00000000000E+00 0. -1.
<mgrwt>
<rscale>  0 0.13861663E+03</rscale>
<asrwt>0</asrwt>
<pdfrwt beam="2">  1        1 0.11144762E-01 0.14638788E+03</pdfrwt>
<pdfrwt beam="1">  1       -1 0.41640823E-01 0.14638788E+03</pdfrwt>
<totfact> 0.30805223E+03</totfact>
</mgrwt>
</event>
<event>
 8    1  0.1154424E-005  0.1123455E+03  0.7546771E-02  0.1266456E+00
         -2   -1    0    0    0  501 -0.00000000000E+00  0.00000000000E+00  0.88288835218E+02  0.88288835218E+02  0.00000000000E+00 0.  1.
          2   -1    0    0  501    0  0.00000000000E+00 -0.00000000000E+00 -0.12201116564E+03  0.12201116564E+03  0.00000000000E+00 0. -1.
         23    2    1    2    0    0 -0.14190980720E+02  0.18314536639E+01 -0.18109613847E+00  0.11234566571E+03  0.11143059568E+03 0.  0.
         23    2    1    2    0    0  0.14190980720E+02 -0.18314536639E+01 -0.33541234279E+02  0.97954335140E+02  0.90913691045E+02 0.  0.
          5    1    3    3  502    0 -0.20236946417E+02 -0.51424266018E+02 -0.13152588953E+02  0.57000611681E+02  0.47000000000E+01 0. -1.
         -5    1    3    3    0  502  0.60459656968E+01  0.53255719682E+02  0.12971492815E+02  0.55345054033E+02  0.47000000000E+01 0.  1.
        -11    1    4    4    0    0 -0.28143428878E+02  0.16977062598E+02 -0.39345766152E+02  0.51267558529E+02  0.00000000000E+00 0.  1.
         11    1    4    4    0    0  0.42334409598E+02 -0.18808516262E+02  0.58045318725E+01  0.46686776610E+02  0.00000000000E+00 0. -1.
<mgrwt>
<rscale>  0 0.10688149E+03</rscale>
<asrwt>0</asrwt>
<pdfrwt beam="2">  1        2 0.18770949E-01 0.11234552E+03</pdfrwt>
<pdfrwt beam="1">  1       -2 0.13582898E-01 0.11234552E+03</pdfrwt>
<totfact> 0.11132380E+04</totfact>
</mgrwt>
</event>
<event>
 8    1  0.1154424E-005  0.1292190E+03  0.7546771E-02  0.1242824E+00
         -2   -1    0    0    0  501 -0.00000000000E+00  0.00000000000E+00  0.13095807092E+03  0.13095807092E+03  0.00000000000E+00 0.  1.
          2   -1    0    0  501    0  0.00000000000E+00 -0.00000000000E+00 -0.99775410602E+02  0.99775410602E+02  0.00000000000E+00 0. -1.
         23    2    1    2    0    0 -0.32406353998E+02  0.45670245066E+01  0.35477674398E+02  0.13400078344E+03  0.12500606021E+03 0.  0.
         23    2    1    2    0    0  0.32406353998E+02 -0.45670245066E+01 -0.42950140812E+01  0.96732698077E+02  0.90927103984E+02 0.  0.
          5    1    3    3  502    0 -0.28245855153E+02 -0.56341502384E+02 -0.67353849301E-01  0.63200377853E+02  0.47000000000E+01 0.  1.
         -5    1    3    3    0  502 -0.41604988454E+01  0.60908526891E+02  0.35545028247E+02  0.70800405590E+02  0.47000000000E+01 0.  1.
        -11    1    4    4    0    0  0.43793153020E+02  0.30313975439E+02  0.14922291299E+02  0.55312314505E+02  0.00000000000E+00 0.  1.
         11    1    4    4    0    0 -0.11386799021E+02 -0.34880999946E+02 -0.19217305380E+02  0.41420383572E+02  0.00000000000E+00 0. -1.
<mgrwt>
<rscale>  0 0.12016581E+03</rscale>
<asrwt>0</asrwt>
<pdfrwt beam="2">  1        2 0.15350063E-01 0.12921898E+03</pdfrwt>
<pdfrwt beam="1">  1       -2 0.20147396E-01 0.12921898E+03</pdfrwt>
<totfact> 0.74093689E+03</totfact>
</mgrwt>
</event>
<event>
 8    1  0.1154424E-005  0.1361427E+03  0.7546771E-02  0.1230533E+00
          2   -1    0    0  501    0  0.00000000000E+00  0.00000000000E+00  0.24805815375E+03  0.24805815375E+03  0.00000000000E+00 0. -1.
         -2   -1    0    0    0  501 -0.00000000000E+00 -0.00000000000E+00 -0.63391549951E+02  0.63391549951E+02  0.00000000000E+00 0.  1.
         23    2    1    2    0    0  0.52835088888E+02  0.10775983320E+02  0.63191653292E+02  0.15009336172E+03  0.12500865471E+03 0.  0.
         23    2    1    2    0    0 -0.52835088888E+02 -0.10775983320E+02  0.12147495050E+03  0.16135634198E+03  0.91498836404E+02 0.  0.
          5    1    3    3  502    0 -0.19370834181E+01 -0.38725922060E+02 -0.15561843620E+02  0.42044147137E+02  0.47000000000E+01 0. -1.
         -5    1    3    3    0  502  0.54772172306E+02  0.49501905381E+02  0.78753496913E+02  0.10804921458E+03  0.47000000000E+01 0. -1.
        -11    1    4    4    0    0 -0.40015235266E+01 -0.35722412366E+02  0.10299069442E+02  0.37392161841E+02  0.00000000000E+00 0.  1.
         11    1    4    4    0    0 -0.48833565362E+02  0.24946429046E+02  0.11117588106E+03  0.12396418014E+03  0.00000000000E+00 0. -1.
<mgrwt>
<rscale>  0 0.12794784E+03</rscale>
<asrwt>0</asrwt>
<pdfrwt beam="1">  1        2 0.38162792E-01 0.13614269E+03</pdfrwt>
<pdfrwt beam="2">  1       -2 0.97525463E-02 0.13614269E+03</pdfrwt>
<totfact> 0.88001213E+03</totfact>
</mgrwt>
</event>
<event>
 8    1  0.1154424E-005  0.1359756E+03  0.7546771E-02  0.1231449E+00
          2   -1    0    0  501    0  0.00000000000E+00  0.00000000000E+00  0.59121533115E+02  0.59121533115E+02  0.00000000000E+00 0. -1.
         -2   -1    0    0    0  501 -0.00000000000E+00 -0.00000000000E+00 -0.24559459056E+03  0.24559459056E+03  0.00000000000E+00 0.  1.
         23    2    1    2    0    0  0.20708884139E+01  0.53482000534E+02 -0.11424070927E+03  0.17759592771E+03  0.12499904370E+03 0.  0.
         23    2    1    2    0    0 -0.20708884139E+01 -0.53482000534E+02 -0.72232348176E+02  0.12712019596E+03  0.89874463218E+02 0.  0.
          5    1    3    3  502    0 -0.34196250673E+02  0.58048721837E+02 -0.12244870449E+03  0.13983852437E+03  0.47000000000E+01 0.  1.
         -5    1    3    3    0  502  0.36267139087E+02 -0.45667213031E+01  0.82079952249E+01  0.37757403336E+02  0.47000000000E+01 0.  1.
        -11    1    4    4    0    0 -0.23963337871E+02 -0.71931608943E+02 -0.55482613667E+02  0.93950616530E+02  0.00000000000E+00 0.  1.
         11    1    4    4    0    0  0.21892449457E+02  0.18449608409E+02 -0.16749734509E+02  0.33169579434E+02  0.00000000000E+00 0. -1.
<mgrwt>
<rscale>  0 0.12734535E+03</rscale>
<asrwt>0</asrwt>
<pdfrwt beam="1">  1        2 0.90956204E-02 0.13597564E+03</pdfrwt>
<pdfrwt beam="2">  1       -2 0.37783784E-01 0.13597564E+03</pdfrwt>
<totfact> 0.45695918E+03</totfact>
</mgrwt>
</event>
<event>
 8    1  0.1154424E-005  0.1852719E+03  0.7546771E-02  0.1167781E+00
          2   -1    0    0  501    0  0.00000000000E+00  0.00000000000E+00  0.10333638286E+03  0.10333638286E+03  0.00000000000E+00 0. -1.
         -2   -1    0    0    0  501 -0.00000000000E+00 -0.00000000000E+00 -0.44646460525E+03  0.44646460525E+03  0.00000000000E+00 0.  1.
         23    2    1    2    0    0 -0.11102586523E+03  0.79839005710E+02 -0.33695779690E+03  0.38453379113E+03  0.12499868020E+03 0.  0.
         23    2    1    2    0    0  0.11102586523E+03 -0.79839005710E+02 -0.61704254972E+01  0.16526719698E+03  0.92596774593E+02 0.  0.
          5    1    3    3  502    0 -0.10585541548E+03  0.95037830452E+00 -0.18623582992E+03  0.21427119861E+03  0.47000000000E+01 0.  1.
         -5    1    3    3    0  502 -0.51704497455E+01  0.78888627406E+02 -0.15072196697E+03  0.17026259252E+03  0.47000000000E+01 0.  1.
        -11    1    4    4    0    0  0.34400272157E+02 -0.81258241478E+02  0.14388610326E+01  0.88251633716E+02  0.00000000000E+00 0. -1.
         11    1    4    4    0    0  0.76625593072E+02  0.14192357675E+01 -0.76092865297E+01  0.77015563266E+02  0.00000000000E+00 0.  1.
<mgrwt>
<rscale>  0 0.18002305E+03</rscale>
<asrwt>0</asrwt>
<pdfrwt beam="1">  1        2 0.15897905E-01 0.18527191E+03</pdfrwt>
<pdfrwt beam="2">  1       -2 0.68686862E-01 0.18527191E+03</pdfrwt>
<totfact> 0.71746189E+02</totfact>
</mgrwt>
</event>
<event>
 8    1  0.1154424E-005  0.1591869E+03  0.7546771E-02  0.1196903E+00
         -2   -1    0    0    0  501 -0.00000000000E+00  0.00000000000E+00  0.72897830722E+02  0.72897830722E+02  0.00000000000E+00 0.  1.
          2   -1    0    0  501    0  0.00000000000E+00 -0.00000000000E+00 -0.35719656302E+03  0.35719656302E+03  0.00000000000E+00 0. -1.
         23    2    1    2    0    0 -0.24901444476E+02  0.95370184565E+02 -0.64387486211E+02  0.17171552892E+03  0.12499968180E+03 0.  0.
         23    2    1    2    0    0  0.24901444476E+02 -0.95370184565E+02 -0.21991124609E+03  0.25837886483E+03  0.93183301038E+02 0.  0.
          5    1    3    3  502    0  0.49988244753E+02  0.35709873419E+02 -0.37599160115E+02  0.72178989425E+02  0.47000000000E+01 0. -1.
         -5    1    3    3    0  502 -0.74889689229E+02  0.59660311145E+02 -0.26788326096E+02  0.99536539491E+02  0.47000000000E+01 0. -1.
        -11    1    4    4    0    0  0.47715068916E+02 -0.53273969098E+02 -0.18718595690E+03  0.20038319801E+03  0.00000000000E+00 0. -1.
         11    1    4    4    0    0 -0.22813624440E+02 -0.42096215467E+02 -0.32725289185E+02  0.57995666812E+02  0.00000000000E+00 0.  1.
<mgrwt>
<rscale>  0 0.15294274E+03</rscale>
<asrwt>0</asrwt>
<pdfrwt beam="2">  1        2 0.54953318E-01 0.15918692E+03</pdfrwt>
<pdfrwt beam="1">  1       -2 0.11215051E-01 0.15918692E+03</pdfrwt>
<totfact> 0.48344690E+03</totfact>
</mgrwt>
</event>
<event>
 8    1  0.1154424E-005  0.1724917E+03  0.7546771E-02  0.1181461E+00
          2   -1    0    0  501    0  0.00000000000E+00  0.00000000000E+00  0.32334701503E+03  0.32334701503E+03  0.00000000000E+00 0. -1.
         -2   -1    0    0    0  501 -0.00000000000E+00 -0.00000000000E+00 -0.82305081720E+02  0.82305081720E+02  0.00000000000E+00 0.  1.
         23    2    1    2    0    0 -0.90019816951E+02  0.77603770326E+02  0.15928043701E+03  0.23478426826E+03  0.12500992918E+03 0.  0.
         23    2    1    2    0    0  0.90019816951E+02 -0.77603770326E+02  0.81761496297E+02  0.17086782849E+03  0.91569426797E+02 0.  0.
          5    1    3    3  502    0 -0.10221162431E+03  0.64270037092E+02  0.17342144484E+03  0.21136447512E+03  0.47000000000E+01 0. -1.
         -5    1    3    3    0  502  0.12191807356E+02  0.13333733234E+02 -0.14141007824E+02  0.23419793143E+02  0.47000000000E+01 0. -1.
        -11    1    4    4    0    0  0.71818706922E+01  0.20382530576E+02  0.94742963664E+01  0.23596379192E+02  0.00000000000E+00 0. -1.
         11    1    4    4    0    0  0.82837946259E+02 -0.97986300903E+02  0.72287199931E+02  0.14727144930E+03  0.00000000000E+00 0.  1.
<mgrwt>
<rscale>  0 0.16658091E+03</rscale>
<asrwt>0</asrwt>
<pdfrwt beam="1">  1        2 0.49745694E-01 0.17249172E+03</pdfrwt>
<pdfrwt beam="2">  1       -2 0.12662320E-01 0.17249172E+03</pdfrwt>
<totfact> 0.44439206E+03</totfact>
</mgrwt>
</event>
<event>
 8    1  0.1154424E-005  0.1796292E+03  0.7546771E-02  0.1173835E+00
          2   -1    0    0  501    0  0.00000000000E+00  0.00000000000E+00  0.91626976795E+03  0.91626976795E+03  0.00000000000E+00 0. -1.
         -2   -1    0    0    0  501 -0.00000000000E+00 -0.00000000000E+00 -0.31877156455E+02  0.31877156455E+02  0.00000000000E+00 0.  1.
         23    2    1    2    0    0  0.12685360296E+03 -0.23506457814E+02  0.39463349075E+03  0.43359225663E+03  0.12498905089E+03 0.  0.
         23    2    1    2    0    0 -0.12685360296E+03  0.23506457814E+02  0.48975912074E+03  0.51455466777E+03  0.90874196746E+02 0.  0.
          5    1    3    3  502    0 -0.22500616149E+02 -0.45309803314E+01  0.99759482232E+02  0.10247366396E+03  0.47000000000E+01 0.  1.
         -5    1    3    3    0  502  0.14935421911E+03 -0.18975477483E+02  0.29487400852E+03  0.33111859267E+03  0.47000000000E+01 0.  1.
        -11    1    4    4    0    0 -0.23758254101E+02 -0.30135801022E+02  0.17148967950E+03  0.17573084908E+03  0.00000000000E+00 0. -1.
         11    1    4    4    0    0 -0.10309534886E+03  0.53642258836E+02  0.31826944123E+03  0.33882381869E+03  0.00000000000E+00 0.  1.
<mgrwt>
<rscale>  0 0.17390542E+03</rscale>
<asrwt>0</asrwt>
<pdfrwt beam="1">  1        2 0.14096456E+00 0.17962921E+03</pdfrwt>
<pdfrwt beam="2">  1       -2 0.49041786E-02 0.17962921E+03</pdfrwt>
<totfact> 0.58780727E+03</totfact>
</mgrwt>
</event>
<event>
 8    1  0.1154424E-005  0.1334973E+03  0.7546771E-02  0.1233831E+00
         -1   -1    0    0    0  501 -0.00000000000E+00  0.00000000000E+00  0.11998829217E+04  0.11998829217E+04  0.00000000000E+00 0.  1.
          1   -1    0    0  501    0  0.00000000000E+00 -0.00000000000E+00 -0.13171912965E+02  0.13171912965E+02  0.00000000000E+00 0. -1.
         23    2    1    2    0    0  0.15288910360E+02  0.44305053616E+02  0.84562408662E+03  0.85609674583E+03  0.12499941517E+03 0.  0.
         23    2    1    2    0    0 -0.15288910360E+02 -0.44305053616E+02  0.34108692213E+03  0.35695808885E+03  0.94244894780E+02 0.  0.
          5    1    3    3  502    0  0.50578590506E+02  0.22755359664E+02  0.16369888041E+03  0.17290290240E+03  0.47000000000E+01 0.  1.
         -5    1    3    3    0  502 -0.35289680146E+02  0.21549693952E+02  0.68192520621E+03  0.68319384343E+03  0.47000000000E+01 0.  1.
        -11    1    4    4    0    0 -0.41521020341E+02 -0.56421003948E+02  0.28924785643E+03  0.29760989108E+03  0.00000000000E+00 0.  1.
         11    1    4    4    0    0  0.26232109981E+02  0.12115950332E+02  0.51839065696E+02  0.59348197771E+02  0.00000000000E+00 0. -1.
<mgrwt>
<rscale>  0 0.12579576E+03</rscale>
<asrwt>0</asrwt>
<pdfrwt beam="2">  1        1 0.20264491E-02 0.13349735E+03</pdfrwt>
<pdfrwt beam="1">  1       -1 0.18459729E+00 0.13349735E+03</pdfrwt>
<totfact> 0.12324535E+03</totfact>
</mgrwt>
</event>
<event>
 7    1  0.1154424E-005  0.1458867E+03  0.7546771E-02  0.1227182E+00
         -1   -1    0    0    0  501 -0.00000000000E+00  0.00000000000E+00  0.23157609763E+02  0.23157609763E+02  0.00000000000E+00 0.  1.
          1   -1    0    0  501    0  0.00000000000E+00 -0.00000000000E+00 -0.61785585943E+03  0.61785585943E+03  0.00000000000E+00 0. -1.
         23    2    1    2    0    0 -0.11165265417E+01  0.29966946765E+01 -0.25732989148E+03  0.27345348518E+03  0.92454900902E+02 0.  0.
          5    1    1    2  502    0  0.70268458001E+02  0.19274724037E+02 -0.17460208241E+03  0.18925418981E+03  0.47000000000E+01 0. -1.
         -5    1    1    2    0  502 -0.69151931459E+02 -0.22271418713E+02 -0.16276627577E+03  0.17830579420E+03  0.47000000000E+01 0.  1.
        -11    1    3    3    0    0  0.20318377275E+01 -0.44214940507E+02 -0.14380847125E+03  0.15046582911E+03  0.00000000000E+00 0.  1.
         11    1    3    3    0    0 -0.31483642692E+01  0.47211635184E+02 -0.11352142023E+03  0.12298765607E+03  0.00000000000E+00 0. -1.
<mgrwt>
<rscale>  0 0.13018448E+03</rscale>
<asrwt>0</asrwt>
<pdfrwt beam="2">  1        1 0.95054734E-01 0.14588671E+03</pdfrwt>
<pdfrwt beam="1">  1       -1 0.35627097E-02 0.14588671E+03</pdfrwt>
<totfact> 0.94801453E+03</totfact>
</mgrwt>
</event>
<event>
 8    1  0.1154424E-005  0.1292192E+03  0.7546771E-02  0.1242679E+00
          1   -1    0    0  501    0  0.00000000000E+00  0.00000000000E+00  0.80443849552E+02  0.80443849552E+02  0.00000000000E+00 0. -1.
         -1   -1    0    0    0  501 -0.00000000000E+00 -0.00000000000E+00 -0.16089185031E+03  0.16089185031E+03  0.00000000000E+00 0.  1.
         23    2    1    2    0    0 -0.14298596808E+02 -0.30282544114E+02 -0.59092741915E+02  0.14208991535E+03  0.12480428497E+03 0.  0.
         23    2    1    2    0    0  0.14298596808E+02  0.30282544114E+02 -0.21355258844E+02  0.99245784517E+02  0.90951615244E+02 0.  0.
          5    1    3    3  502    0  0.42438090405E+02  0.21001319975E+02 -0.40691693172E+01  0.47756623592E+02  0.47000000000E+01 0. -1.
         -5    1    3    3    0  502 -0.56736687214E+02 -0.51283864088E+02 -0.55023572598E+02  0.94333291754E+02  0.47000000000E+01 0. -1.
        -11    1    4    4    0    0  0.33686396111E+02  0.23988433517E+02 -0.49495647839E+02  0.64498351766E+02  0.00000000000E+00 0.  1.
         11    1    4    4    0    0 -0.19387799303E+02  0.62941105973E+01  0.28140388995E+02  0.34747432751E+02  0.00000000000E+00 0. -1.
<mgrwt>
<rscale>  0 0.12025403E+03</rscale>
<asrwt>0</asrwt>
<pdfrwt beam="1">  1        1 0.12375977E-01 0.12921916E+03</pdfrwt>
<pdfrwt beam="2">  1       -1 0.24752592E-01 0.12921916E+03</pdfrwt>
<totfact> 0.64429995E+03</totfact>
</mgrwt>
</event>
<event>
 8    1  0.1154424E-005  0.1490444E+03  0.7546771E-02  0.1211219E+00
          1   -1    0    0  501    0  0.00000000000E+00  0.00000000000E+00  0.33810273285E+03  0.33810273285E+03  0.00000000000E+00 0. -1.
         -1   -1    0    0    0  501 -0.00000000000E+00 -0.00000000000E+00 -0.57229897736E+02  0.57229897736E+02  0.00000000000E+00 0.  1.
         23    2    1    2    0    0 -0.37326233651E+02  0.72165100266E+02  0.10775483338E+03  0.18391662619E+03  0.12495267847E+03 0.  0.
         23    2    1    2    0    0  0.37326233651E+02 -0.72165100266E+02  0.17311800173E+03  0.21141600440E+03  0.90143413380E+02 0.  0.
          5    1    3    3  502    0 -0.30371066726E+02  0.47402562006E+02  0.13488507853E+03  0.14623774816E+03  0.47000000000E+01 0.  1.
         -5    1    3    3    0  502 -0.69551669250E+01  0.24762538259E+02 -0.27130245143E+02  0.37678878029E+02  0.47000000000E+01 0.  1.
        -11    1    4    4    0    0 -0.48196444721E+01 -0.27307880293E+02  0.13757189019E+03  0.14033878391E+03  0.00000000000E+00 0. -1.
         11    1    4    4    0    0  0.42145878123E+02 -0.44857219973E+02  0.35546111547E+02  0.71077220490E+02  0.00000000000E+00 0.  1.
<mgrwt>
<rscale>  0 0.14157955E+03</rscale>
<asrwt>0</asrwt>
<pdfrwt beam="1">  1        1 0.52015804E-01 0.14904436E+03</pdfrwt>
<pdfrwt beam="2">  1       -1 0.88045999E-02 0.14904436E+03</pdfrwt>
<totfact> 0.53845267E+03</totfact>
</mgrwt>
</event>
<event>
 8    1  0.1154424E-005  0.1257042E+03  0.7546771E-02  0.1246937E+00
          1   -1    0    0  501    0  0.00000000000E+00  0.00000000000E+00  0.71993750608E+02  0.71993750608E+02  0.00000000000E+00 0.  1.
         -1   -1    0    0    0  501 -0.00000000000E+00 -0.00000000000E+00 -0.20925808131E+03  0.20925808131E+03  0.00000000000E+00 0. -1.
         23    2    1    2    0    0 -0.12216006832E+02  0.52351985579E+01 -0.13519456485E+03  0.18460526532E+03  0.12499958197E+03 0.  0.
         23    2    1    2    0    0  0.12216006832E+02 -0.52351985579E+01 -0.20697658612E+01  0.96646566602E+02  0.95705991340E+02 0.  0.
          5    1    3    3  502    0  0.29583724695E+02  0.53719759870E+02 -0.67293336181E+02  0.91167387051E+02  0.47000000000E+01 0. -1.
         -5    1    3    3    0  502 -0.41799731527E+02 -0.48484561312E+02 -0.67901228665E+02  0.93437878270E+02  0.47000000000E+01 0. -1.
        -11    1    4    4    0    0 -0.17320126945E+02  0.22363887351E+02 -0.34648549883E+02  0.44728651487E+02  0.00000000000E+00 0. -1.
         11    1    4    4    0    0  0.29536133777E+02 -0.27599085909E+02  0.32578784022E+02  0.51917915115E+02  0.00000000000E+00 0.  1.
<mgrwt>
<rscale>  0 0.11770202E+03</rscale>
<asrwt>0</asrwt>
<pdfrwt beam="1">  1        1 0.11075962E-01 0.12570415E+03</pdfrwt>
<pdfrwt beam="2">  1       -1 0.32193550E-01 0.12570415E+03</pdfrwt>
<totfact> 0.48023626E+03</totfact>
</mgrwt>
</event>
<event>
 8    1  0.1154424E-005  0.1328053E+03  0.7546771E-02  0.1236580E+00
          1   -1    0    0  501    0  0.00000000000E+00  0.00000000000E+00  0.13042293391E+03  0.13042293391E+03  0.00000000000E+00 0. -1.
         -1   -1    0    0    0  501 -0.00000000000E+00 -0.00000000000E+00 -0.13459066915E+03  0.13459066915E+03  0.00000000000E+00 0.  1.
         23    2    1    2    0    0  0.65154845978E+01  0.44384522394E+02 -0.64158005621E+02  0.14749067857E+03  0.12499925285E+03 0.  0.
         23    2    1    2    0    0 -0.65154845978E+01 -0.44384522394E+02  0.59990270379E+02  0.11752292449E+03  0.90555882594E+02 0.  0.
          5    1    3    3  502    0 -0.35219132630E+01  0.78457500960E+02 -0.56455015457E+01  0.78879306650E+02  0.47000000000E+01 0. -1.
         -5    1    3    3    0  502  0.10037397861E+02 -0.34072978566E+02 -0.58512504075E+02  0.68611371924E+02  0.47000000000E+01 0. -1.
        -11    1    4    4    0    0 -0.10722450160E+02  0.22052811296E+02 -0.43930253706E+01  0.24911766204E+02  0.00000000000E+00 0.  1.
         11    1    4    4    0    0  0.42069655623E+01 -0.66437333690E+02  0.64383295749E+02  0.92611158284E+02  0.00000000000E+00 0. -1.
<mgrwt>
<rscale>  0 0.12403799E+03</rscale>
<asrwt>0</asrwt>
<pdfrwt beam="1">  1        1 0.20065067E-01 0.13280531E+03</pdfrwt>
<pdfrwt beam="2">  1       -1 0.20706257E-01 0.13280531E+03</pdfrwt>
<totfact> 0.46267932E+03</totfact>
</mgrwt>
</event>
<event>
 8    1  0.1154424E-005  0.1941335E+03  0.7546771E-02  0.1159405E+00
         -3   -1    0    0    0  501 -0.00000000000E+00  0.00000000000E+00  0.73282500258E+02  0.73282500258E+02  0.00000000000E+00 0.  1.
          3   -1    0    0  501    0  0.00000000000E+00 -0.00000000000E+00 -0.49915924852E+03  0.49915924852E+03  0.00000000000E+00 0. -1.
         23    2    1    2    0    0  0.46809591735E+01  0.14846670286E+03 -0.14660583382E+03  0.24327161103E+03  0.12499413180E+03 0.  0.
         23    2    1    2    0    0 -0.46809591735E+01 -0.14846670286E+03 -0.27927091444E+03  0.32917013775E+03  0.91084920246E+02 0.  0.
          5    1    3    3  502    0  0.63827595148E+02  0.90636331244E+02 -0.76938238512E+02  0.13502032806E+03  0.47000000000E+01 0.  1.
         -5    1    3    3    0  502 -0.59146635975E+02  0.57830371615E+02 -0.69667595308E+02  0.10825128297E+03  0.47000000000E+01 0.  1.
        -11    1    4    4    0    0 -0.10475719042E+02 -0.35068668027E+02 -0.16142871429E+03  0.16552577432E+03  0.00000000000E+00 0. -1.
         11    1    4    4    0    0  0.57947598683E+01 -0.11339803483E+03 -0.11784220015E+03  0.16364436343E+03  0.00000000000E+00 0.  1.
<mgrwt>
<rscale>  0 0.18895760E+03</rscale>
<asrwt>0</asrwt>
<pdfrwt beam="2">  1        3 0.76793731E-01 0.19413348E+03</pdfrwt>
<pdfrwt beam="1">  1       -3 0.11274231E-01 0.19413348E+03</pdfrwt>
<totfact> 0.23981405E+02</totfact>
</mgrwt>
</event>
<event>
 8    1  0.1154424E-005  0.1357287E+03  0.7546771E-02  0.1230793E+00
         -4   -1    0    0    0  501 -0.00000000000E+00  0.00000000000E+00  0.17094198703E+03  0.17094198703E+03  0.00000000000E+00 0.  1.
          4   -1    0    0  501    0  0.00000000000E+00 -0.00000000000E+00 -0.92525148003E+02  0.92525148003E+02  0.00000000000E+00 0. -1.
         23    2    1    2    0    0 -0.49269785018E+02 -0.19315864780E+02  0.78630419028E+02  0.15685985035E+03  0.12498662132E+03 0.  0.
         23    2    1    2    0    0  0.49269785018E+02  0.19315864780E+02 -0.21358000252E+00  0.10660728468E+03  0.92544330902E+02 0.  0.
          5    1    3    3  502    0 -0.89499614076E+02 -0.21683645763E+02  0.38914010827E+02  0.10008372321E+03  0.47000000000E+01 0.  1.
         -5    1    3    3    0  502  0.40229829058E+02  0.23677809835E+01  0.39716408201E+02  0.56776127142E+02  0.47000000000E+01 0.  1.
        -11    1    4    4    0    0  0.71154214116E+02  0.87374398285E+01  0.20618345842E+02  0.74594780155E+02  0.00000000000E+00 0.  1.
         11    1    4    4    0    0 -0.21884429098E+02  0.10578424951E+02 -0.20831925845E+02  0.32012504522E+02  0.00000000000E+00 0. -1.
<mgrwt>
<rscale>  0 0.12777626E+03</rscale>
<asrwt>0</asrwt>
<pdfrwt beam="2">  1        4 0.14234638E-01 0.13572866E+03</pdfrwt>
<pdfrwt beam="1">  1       -4 0.26298767E-01 0.13572866E+03</pdfrwt>
<totfact> 0.93027476E+02</totfact>
</mgrwt>
</event>
<event>
 8    1  0.1154424E-005  0.1292126E+03  0.7546771E-02  0.1242537E+00
         -4   -1    0    0    0  501 -0.00000000000E+00  0.00000000000E+00  0.19767202077E+03  0.19767202077E+03  0.00000000000E+00 0.  1.
          4   -1    0    0  501    0  0.00000000000E+00 -0.00000000000E+00 -0.65156140345E+02  0.65156140345E+02  0.00000000000E+00 0. -1.
         23    2    1    2    0    0  0.24594093567E+02  0.21574659570E+02  0.84630592139E+02  0.15446109777E+03  0.12500223288E+03 0.  0.
         23    2    1    2    0    0 -0.24594093567E+02 -0.21574659570E+02  0.47885288282E+02  0.10836706334E+03  0.91542799876E+02 0.  0.
          5    1    3    3  502    0 -0.39362968961E+02 -0.27137365208E+02  0.39151835669E+02  0.61974479846E+02  0.47000000000E+01 0. -1.
         -5    1    3    3    0  502  0.63957062528E+02  0.48712024778E+02  0.45478756469E+02  0.92486617925E+02  0.47000000000E+01 0. -1.
        -11    1    4    4    0    0 -0.30675560438E+01 -0.49380342241E+02  0.53372734401E+02  0.72776897964E+02  0.00000000000E+00 0.  1.
         11    1    4    4    0    0 -0.21526537524E+02  0.27805682671E+02 -0.54874461188E+01  0.35590165375E+02  0.00000000000E+00 0. -1.
<mgrwt>
<rscale>  0 0.12034000E+03</rscale>
<asrwt>0</asrwt>
<pdfrwt beam="2">  1        4 0.10024022E-01 0.12921259E+03</pdfrwt>
<pdfrwt beam="1">  1       -4 0.30411080E-01 0.12921259E+03</pdfrwt>
<totfact> 0.12768349E+03</totfact>
</mgrwt>
</event>
<event>
 8    1  0.1154424E-005  0.1278482E+03  0.7546771E-02  0.1243762E+00
         -2   -1    0    0    0  501 -0.00000000000E+00  0.00000000000E+00  0.43650289003E+03  0.43650289003E+03  0.00000000000E+00 0.  1.
          2   -1    0    0  501    0  0.00000000000E+00 -0.00000000000E+00 -0.46828304232E+02  0.46828304232E+02  0.00000000000E+00 0. -1.
         23    2    1    2    0    0 -0.16814119300E+02  0.20943099083E+02  0.35844975296E+03  0.38056720300E+03  0.12499537032E+03 0.  0.
         23    2    1    2    0    0  0.16814119300E+02 -0.20943099083E+02  0.31224832840E+02  0.10276399126E+03  0.94149454093E+02 0.  0.
          5    1    3    3  502    0  0.10797531792E+02  0.40381524041E+02  0.33338116030E+02  0.53672843758E+02  0.47000000000E+01 0.  1.
         -5    1    3    3    0  502 -0.27611651092E+02 -0.19438424958E+02  0.32511163693E+03  0.32689435925E+03  0.47000000000E+01 0.  1.
        -11    1    4    4    0    0  0.23468710425E+02  0.85007182828E+01  0.57538018243E+02  0.62718945492E+02  0.00000000000E+00 0.  1.
         11    1    4    4    0    0 -0.66545911249E+01 -0.29443817366E+02 -0.26313185403E+02  0.40045045764E+02  0.00000000000E+00 0. -1.
<mgrwt>
<rscale>  0 0.11959764E+03</rscale>
<asrwt>0</asrwt>
<pdfrwt beam="2">  1        2 0.72043548E-02 0.12784823E+03</pdfrwt>
<pdfrwt beam="1">  1       -2 0.67154288E-01 0.12784823E+03</pdfrwt>
<totfact> 0.19496520E+03</totfact>
</mgrwt>
</event>
<event>
 8    1  0.1154424E-005  0.1349710E+03  0.7546771E-02  0.1230845E+00
          2   -1    0    0  501    0  0.00000000000E+00  0.00000000000E+00  0.78318645127E+03  0.78318645127E+03  0.00000000000E+00 0. -1.
         -2   -1    0    0    0  501 -0.00000000000E+00 -0.00000000000E+00 -0.19331046384E+02  0.19331046384E+02  0.00000000000E+00 0.  1.
         23    2    1    2    0    0  0.59515628019E+01  0.50798725028E+02  0.36262419068E+03  0.38692827013E+03  0.12490496787E+03 0.  0.
         23    2    1    2    0    0 -0.59515628019E+01 -0.50798725028E+02  0.40123121420E+03  0.41558922752E+03  0.95456729528E+02 0.  0.
          5    1    3    3  502    0 -0.39952550831E+02 -0.23336896830E+02  0.15086859723E+03  0.15787412930E+03  0.47000000000E+01 0.  1.
         -5    1    3    3    0  502  0.45904113633E+02  0.74135621858E+02  0.21175559345E+03  0.22905414084E+03  0.47000000000E+01 0.  1.
        -11    1    4    4    0    0 -0.41119695706E+02 -0.49546868169E+02  0.32900591150E+03  0.33524708995E+03  0.00000000000E+00 0. -1.
         11    1    4    4    0    0  0.35168132904E+02 -0.12518568595E+01  0.72225302703E+02  0.80342137563E+02  0.00000000000E+00 0.  1.
<mgrwt>
<rscale>  0 0.12774181E+03</rscale>
<asrwt>0</asrwt>
<pdfrwt beam="1">  1        2 0.12049020E+00 0.13497104E+03</pdfrwt>
<pdfrwt beam="2">  1       -2 0.29740077E-02 0.13497104E+03</pdfrwt>
<totfact> 0.14900450E+04</totfact>
</mgrwt>
</event>
<event>
 8    1  0.1154424E-005  0.1325086E+03  0.7546771E-02  0.1236966E+00
         -2   -1    0    0    0  501 -0.00000000000E+00  0.00000000000E+00  0.14293599821E+02  0.14293599821E+02  0.00000000000E+00 0.  1.
          2   -1    0    0  501    0  0.00000000000E+00 -0.00000000000E+00 -0.97155908713E+03  0.97155908713E+03  0.00000000000E+00 0. -1.
         23    2    1    2    0    0 -0.43974699938E+02 -0.39285368824E+00 -0.60926527814E+03  0.62350838010E+03  0.12499836936E+03 0.  0.
         23    2    1    2    0    0  0.43974699938E+02  0.39285368824E+00 -0.34800020917E+03  0.36234430685E+03  0.90858805599E+02 0.  0.
          5    1    3    3  502    0 -0.76347656663E+02 -0.33802850705E+02 -0.33466207092E+03  0.34495273460E+03  0.47000000000E+01 0.  1.
         -5    1    3    3    0  502  0.32372956725E+02  0.33409997017E+02 -0.27460320722E+03  0.27855564551E+03  0.47000000000E+01 0.  1.
        -11    1    4    4    0    0 -0.25909654054E+02 -0.50616538108E+01 -0.14992610093E+03  0.15223260575E+03  0.00000000000E+00 0. -1.
         11    1    4    4    0    0  0.69884353992E+02  0.54545074990E+01 -0.19807410824E+03  0.21011170110E+03  0.00000000000E+00 0.  1.
<mgrwt>
<rscale>  0 0.12379433E+03</rscale>
<asrwt>0</asrwt>
<pdfrwt beam="2">  1        2 0.14947069E+00 0.13250857E+03</pdfrwt>
<pdfrwt beam="1">  1       -2 0.21990145E-02 0.13250857E+03</pdfrwt>
<totfact> 0.17520443E+04</totfact>
</mgrwt>
</event>
<event>
 7    1  0.1154424E-005  0.5291228E+03  0.7546771E-02  0.1060479E+00
          1   -1    0    0  501    0  0.00000000000E+00  0.00000000000E+00  0.50652702754E+03  0.50652702754E+03  0.00000000000E+00 0. -1.
         -1   -1    0    0    0  501 -0.00000000000E+00 -0.00000000000E+00 -0.20017552181E+03  0.20017552181E+03  0.00000000000E+00 0.  1.
         23    2    1    2    0    0 -0.48025070652E+02 -0.31654518770E+02  0.45046224336E+02  0.11657426565E+03  0.90840415651E+02 0.  0.
          5    1    1    2  502    0  0.17508829574E+03 -0.19858907160E+03  0.11034163700E+03  0.28686390069E+03  0.47000000000E+01 0. -1.
         -5    1    1    2    0  502 -0.12706322509E+03  0.23024359037E+03  0.15096364439E+03  0.30326438301E+03  0.47000000000E+01 0.  1.
        -11    1    3    3    0    0 -0.49444948352E+02 -0.57698789162E+02  0.16218514493E+02  0.77698091358E+02  0.00000000000E+00 0.  1.
         11    1    3    3    0    0  0.14198776999E+01  0.26044270392E+02  0.28827709843E+02  0.38876174294E+02  0.00000000000E+00 0. -1.
<mgrwt>
<rscale>  0 0.35525398E+03</rscale>
<asrwt>0</asrwt>
<pdfrwt beam="1">  1        1 0.77927235E-01 0.52912280E+03</pdfrwt>
<pdfrwt beam="2">  1       -1 0.30796234E-01 0.52912280E+03</pdfrwt>
<totfact> 0.43066845E+02</totfact>
</mgrwt>
</event>
<event>
 8    1  0.1210777E-005  0.1929524E+03  0.7546771E-02  0.1160809E+00
          2   -1    0    0  501    0  0.00000000000E+00  0.00000000000E+00  0.68482005941E+03  0.68482005941E+03  0.00000000000E+00 0. -1.
         -2   -1    0    0    0  501 -0.00000000000E+00 -0.00000000000E+00 -0.49076379308E+02  0.49076379308E+02  0.00000000000E+00 0.  1.
         23    2    1    2    0    0 -0.14692910075E+03  0.42210801700E+01  0.29849210174E+03  0.35542675136E+03  0.12499865044E+03 0.  0.
         23    2    1    2    0    0  0.14692910075E+03 -0.42210801700E+01  0.33725157836E+03  0.37846968736E+03  0.88852118592E+02 0.  0.
          5    1    3    3  502    0 -0.66839584281E+02  0.64073810392E+02  0.15051659750E+03  0.17677759849E+03  0.47000000000E+01 0.  1.
         -5    1    3    3    0  502 -0.80089516474E+02 -0.59852730222E+02  0.14797550425E+03  0.17864915287E+03  0.47000000000E+01 0.  1.
        -11    1    4    4    0    0  0.36538973062E+02  0.30453918802E+02  0.51113593027E+02  0.69822182112E+02  0.00000000000E+00 0.  1.
         11    1    4    4    0    0  0.11039012769E+03 -0.34674998972E+02  0.28613798533E+03  0.30864750525E+03  0.00000000000E+00 0. -1.
<mgrwt>
<rscale>  0 0.18742033E+03</rscale>
<asrwt>0</asrwt>
<pdfrwt beam="1">  1        2 0.10535693E+00 0.19295243E+03</pdfrwt>
<pdfrwt beam="2">  1       -2 0.75502127E-02 0.19295243E+03</pdfrwt>
<totfact> 0.43942534E+03</totfact>
</mgrwt>
</event>
<event>
 8    1  0.1154424E-005  0.1471594E+03  0.7546771E-02  0.1209592E+00
          1   -1    0    0  501    0  0.00000000000E+00  0.00000000000E+00  0.52929129946E+03  0.52929129946E+03  0.00000000000E+00 0. -1.
         -1   -1    0    0    0  501 -0.00000000000E+00 -0.00000000000E+00 -0.36559506159E+02  0.36559506159E+02  0.00000000000E+00 0.  1.
         23    2    1    2    0    0 -0.72367231416E+02  0.28217821207E+02  0.27834391930E+03  0.31485110125E+03  0.12499046738E+03 0.  0.
         23    2    1    2    0    0  0.72367231416E+02 -0.28217821207E+02  0.21438787400E+03  0.25099970436E+03  0.10490676553E+03 0.  0.
          5    1    3    3  502    0  0.10569280052E+02  0.38156957060E+02  0.18608117063E+03  0.19030490040E+03  0.47000000000E+01 0. -1.
         -5    1    3    3    0  502 -0.82936511468E+02 -0.99391358531E+01  0.92262748661E+02  0.12454620085E+03  0.47000000000E+01 0. -1.
        -11    1    4    4    0    0  0.59376787133E+02  0.19815436479E+02  0.52693130369E+02  0.81821881921E+02  0.00000000000E+00 0.  1.
         11    1    4    4    0    0  0.12990444283E+02 -0.48033257686E+02  0.16169474363E+03  0.16917782244E+03  0.00000000000E+00 0. -1.
<mgrwt>
<rscale>  0 0.14281389E+03</rscale>
<asrwt>0</asrwt>
<pdfrwt beam="1">  1        1 0.81429425E-01 0.14715936E+03</pdfrwt>
<pdfrwt beam="2">  1       -1 0.56245398E-02 0.14715936E+03</pdfrwt>
<totfact> 0.59536718E+03</totfact>
</mgrwt>
</event>
<event>
 8    1  0.1154424E-005  0.1457198E+03  0.7546771E-02  0.1215481E+00
         -1   -1    0    0    0  501 -0.00000000000E+00  0.00000000000E+00  0.10798023178E+03  0.10798023178E+03  0.00000000000E+00 0.  1.
          1   -1    0    0  501    0  0.00000000000E+00 -0.00000000000E+00 -0.20821218322E+03  0.20821218322E+03  0.00000000000E+00 0. -1.
         23    2    1    2    0    0 -0.74792863487E+02 -0.39098047084E+01  0.20249342161E+02  0.14711996751E+03  0.12499995993E+03 0.  0.
         23    2    1    2    0    0  0.74792863487E+02  0.39098047084E+01 -0.12048129360E+03  0.16907244749E+03  0.91980929500E+02 0.  0.
          5    1    3    3  502    0 -0.32752870335E+02  0.44532145577E+02  0.51427357898E+02  0.75648698900E+02  0.47000000000E+01 0.  1.
         -5    1    3    3    0  502 -0.42039993152E+02 -0.48441950286E+02 -0.31178015737E+02  0.71471268612E+02  0.47000000000E+01 0.  1.
        -11    1    4    4    0    0  0.40966226705E+02 -0.33471268208E+02 -0.19820100146E+02  0.56492423348E+02  0.00000000000E+00 0.  1.
         11    1    4    4    0    0  0.33826636782E+02  0.37381072917E+02 -0.10066119346E+03  0.11258002414E+03  0.00000000000E+00 0. -1.
<mgrwt>
<rscale>  0 0.13841229E+03</rscale>
<asrwt>0</asrwt>
<pdfrwt beam="2">  1        1 0.32032643E-01 0.14571976E+03</pdfrwt>
<pdfrwt beam="1">  1       -1 0.16612344E-01 0.14571976E+03</pdfrwt>
<totfact> 0.36736172E+03</totfact>
</mgrwt>
</event>
<event>
 8    1  0.1154424E-005  0.1767851E+03  0.7546771E-02  0.1177320E+00
         -2   -1    0    0    0  501 -0.00000000000E+00  0.00000000000E+00  0.14079777391E+03  0.14079777391E+03  0.00000000000E+00 0.  1.
          2   -1    0    0  501    0  0.00000000000E+00 -0.00000000000E+00 -0.20835713982E+03  0.20835713982E+03  0.00000000000E+00 0. -1.
         23    2    1    2    0    0 -0.12501669044E+03 -0.16736902056E+01  0.11109196773E+02  0.17713376921E+03  0.12498393422E+03 0.  0.
         23    2    1    2    0    0  0.12501669044E+03  0.16736902056E+01 -0.78668562682E+02  0.17202114452E+03  0.88150764484E+02 0.  0.
          5    1    3    3  502    0 -0.72424618737E+02  0.53839479002E+02  0.34959510762E+02  0.96893097232E+02  0.47000000000E+01 0. -1.
         -5    1    3    3    0  502 -0.52592071704E+02 -0.55513169207E+02 -0.23850313989E+02  0.80240671975E+02  0.47000000000E+01 0. -1.
        -11    1    4    4    0    0 -0.31506758066E+00  0.25345477828E+02 -0.10952960580E+02  0.27612675701E+02  0.00000000000E+00 0.  1.
         11    1    4    4    0    0  0.12533175802E+03 -0.23671787622E+02 -0.67715602102E+02  0.14440846882E+03  0.00000000000E+00 0. -1.
<mgrwt>
<rscale>  0 0.17050693E+03</rscale>
<asrwt>0</asrwt>
<pdfrwt beam="2">  1        2 0.32054945E-01 0.17678506E+03</pdfrwt>
<pdfrwt beam="1">  1       -2 0.21661196E-01 0.17678506E+03</pdfrwt>
<totfact> 0.29187808E+03</totfact>
</mgrwt>
</event>
<event>
 8    1  0.1154424E-005  0.2169483E+03  0.7546771E-02  0.1138169E+00
         -1   -1    0    0    0  501 -0.00000000000E+00  0.00000000000E+00  0.59329633092E+03  0.59329633092E+03  0.00000000000E+00 0.  1.
          1   -1    0    0  501    0  0.00000000000E+00 -0.00000000000E+00 -0.76258907709E+02  0.76258907709E+02  0.00000000000E+00 0. -1.
         23    2    1    2    0    0  0.87961604128E+02 -0.15395816617E+03  0.29489017943E+03  0.36609670543E+03  0.12500487617E+03 0.  0.
         23    2    1    2    0    0 -0.87961604128E+02  0.15395816617E+03  0.22214724378E+03  0.30345853320E+03  0.10628886452E+03 0.  0.
          5    1    3    3  502    0 -0.27696415789E+02 -0.40862640961E+02  0.10824409635E+03  0.11906183800E+03  0.47000000000E+01 0.  1.
         -5    1    3    3    0  502  0.11565801992E+03 -0.11309552521E+03  0.18664608308E+03  0.24703486743E+03  0.47000000000E+01 0.  1.
        -11    1    4    4    0    0 -0.12923155575E+01  0.69149014634E+02  0.28127314415E+02  0.74661918811E+02  0.00000000000E+00 0. -1.
         11    1    4    4    0    0 -0.86669288571E+02  0.84809151539E+02  0.19401992936E+03  0.22879661439E+03  0.00000000000E+00 0.  1.
<mgrwt>
<rscale>  0 0.21434759E+03</rscale>
<asrwt>0</asrwt>
<pdfrwt beam="2">  1        1 0.11732140E-01 0.21694833E+03</pdfrwt>
<pdfrwt beam="1">  1       -1 0.91276356E-01 0.21694833E+03</pdfrwt>
<totfact> 0.63695521E+02</totfact>
</mgrwt>
</event>
<event>
 8    1  0.1154424E-005  0.1278829E+03  0.7546771E-02  0.1244741E+00
         -2   -1    0    0    0  501 -0.00000000000E+00  0.00000000000E+00  0.10423585617E+03  0.10423585617E+03  0.00000000000E+00 0.  1.
          2   -1    0    0  501    0  0.00000000000E+00 -0.00000000000E+00 -0.13096465675E+03  0.13096465675E+03  0.00000000000E+00 0. -1.
         23    2    1    2    0    0 -0.23418581766E+02  0.13385796224E+02  0.18399626257E+02  0.12919972876E+03  0.12500565648E+03 0.  0.
         23    2    1    2    0    0  0.23418581766E+02 -0.13385796224E+02 -0.45128426839E+02  0.10600078417E+03  0.92043369249E+02 0.  0.
          5    1    3    3  502    0 -0.36468615036E+02 -0.33084322253E+02  0.50778674145E+02  0.70887911589E+02  0.47000000000E+01 0.  1.
         -5    1    3    3    0  502  0.13050033270E+02  0.46470118477E+02 -0.32379047888E+02  0.58311817171E+02  0.47000000000E+01 0.  1.
        -11    1    4    4    0    0  0.11928222974E+02 -0.44314477156E+02 -0.54933720789E+02  0.71580507603E+02  0.00000000000E+00 0. -1.
         11    1    4    4    0    0  0.11490358792E+02  0.30928680932E+02  0.98052939500E+01  0.34420276565E+02  0.00000000000E+00 0.  1.
<mgrwt>
<rscale>  0 0.11900914E+03</rscale>
<asrwt>0</asrwt>
<pdfrwt beam="2">  1        2 0.20148409E-01 0.12788285E+03</pdfrwt>
<pdfrwt beam="1">  1       -2 0.16036285E-01 0.12788285E+03</pdfrwt>
<totfact> 0.79287196E+03</totfact>
</mgrwt>
</event>
<event>
 8    1  0.1154424E-005  0.1413932E+03  0.7546771E-02  0.1222228E+00
          3   -1    0    0  501    0  0.00000000000E+00  0.00000000000E+00  0.87613909841E+02  0.87613909841E+02  0.00000000000E+00 0. -1.
         -3   -1    0    0    0  501 -0.00000000000E+00 -0.00000000000E+00 -0.18433283154E+03  0.18433283154E+03  0.00000000000E+00 0.  1.
         23    2    1    2    0    0  0.27069302793E+02  0.60222362859E+02 -0.57848781902E+02  0.15276946466E+03  0.12503018685E+03 0.  0.
         23    2    1    2    0    0 -0.27069302793E+02 -0.60222362859E+02 -0.38870139795E+02  0.11917727672E+03  0.91284474999E+02 0.  0.
          5    1    3    3  502    0  0.28268380521E+02 -0.35045036805E+02 -0.25986070914E+02  0.52197910145E+02  0.47000000000E+01 0. -1.
         -5    1    3    3    0  502 -0.11990777278E+01  0.95267399665E+02 -0.31862710988E+02  0.10057155452E+03  0.47000000000E+01 0. -1.
        -11    1    4    4    0    0 -0.12983518587E+01 -0.76322299355E+02 -0.44377192370E+02  0.88295607473E+02  0.00000000000E+00 0.  1.
         11    1    4    4    0    0 -0.25770950935E+02  0.16099936495E+02  0.55070525751E+01  0.30881669244E+02  0.00000000000E+00 0. -1.
<mgrwt>
<rscale>  0 0.13358694E+03</rscale>
<asrwt>0</asrwt>
<pdfrwt beam="1">  1        3 0.13479063E-01 0.14139317E+03</pdfrwt>
<pdfrwt beam="2">  1       -3 0.28358897E-01 0.14139317E+03</pdfrwt>
<totfact> 0.12315422E+03</totfact>
</mgrwt>
</event>
<event>
 8    1  0.1154424E-005  0.1598199E+03  0.7546771E-02  0.1196663E+00
          2   -1    0    0  501    0  0.00000000000E+00  0.00000000000E+00  0.20680297359E+03  0.20680297359E+03  0.00000000000E+00 0. -1.
         -2   -1    0    0    0  501 -0.00000000000E+00 -0.00000000000E+00 -0.11486092999E+03  0.11486092999E+03  0.00000000000E+00 0.  1.
         23    2    1    2    0    0 -0.96913986996E+02 -0.22955406483E+02  0.96776619037E+02  0.18683711405E+03  0.12499248630E+03 0.  0.
         23    2    1    2    0    0  0.96913986996E+02  0.22955406483E+02 -0.48345754302E+01  0.13482678953E+03  0.90750308508E+02 0.  0.
          5    1    3    3  502    0 -0.77178030097E+02 -0.72604864863E+02  0.60842289205E+02  0.12227750769E+03  0.47000000000E+01 0.  1.
         -5    1    3    3    0  502 -0.19735956898E+02  0.49649458380E+02  0.35934329832E+02  0.64559606355E+02  0.47000000000E+01 0.  1.
        -11    1    4    4    0    0  0.42319983096E+02  0.62712644955E+01  0.42771148916E+02  0.60495296571E+02  0.00000000000E+00 0. -1.
         11    1    4    4    0    0  0.54594003900E+02  0.16684141987E+02 -0.47605724346E+02  0.74331492964E+02  0.00000000000E+00 0.  1.
<mgrwt>
<rscale>  0 0.15314305E+03</rscale>
<asrwt>0</asrwt>
<pdfrwt beam="1">  1        2 0.31815842E-01 0.15981988E+03</pdfrwt>
<pdfrwt beam="2">  1       -2 0.17670912E-01 0.15981988E+03</pdfrwt>
<totfact> 0.41361065E+03</totfact>
</mgrwt>
</event>
<event>
 8    1  0.1154424E-005  0.1382574E+03  0.7546771E-02  0.1229765E+00
         -2   -1    0    0    0  501 -0.00000000000E+00  0.00000000000E+00  0.21201171708E+03  0.21201171708E+03  0.00000000000E+00 0.  1.
          2   -1    0    0  501    0  0.00000000000E+00 -0.00000000000E+00 -0.94314694376E+02  0.94314694376E+02  0.00000000000E+00 0. -1.
         23    2    1    2    0    0  0.31238944434E+02  0.50141962672E+02  0.14437769727E+03  0.19990006538E+03  0.12500011440E+03 0.  0.
         23    2    1    2    0    0 -0.31238944434E+02 -0.50141962672E+02 -0.26680674569E+02  0.10642634608E+03  0.84407468116E+02 0.  0.
          5    1    3    3  502    0 -0.22340745341E+02  0.12334807202E+02  0.13004942413E+03  0.13261296727E+03  0.47000000000E+01 0. -1.
         -5    1    3    3    0  502  0.53579689775E+02  0.37807155470E+02  0.14328273144E+02  0.67287098113E+02  0.47000000000E+01 0. -1.
        -11    1    4    4    0    0 -0.58990691875E+02 -0.46342824243E+02 -0.19479565727E+02  0.77504919635E+02  0.00000000000E+00 0. -1.
         11    1    4    4    0    0  0.27751747441E+02 -0.37991384290E+01 -0.72011088422E+01  0.28921426441E+02  0.00000000000E+00 0.  1.
<mgrwt>
<rscale>  0 0.12845614E+03</rscale>
<asrwt>0</asrwt>
<pdfrwt beam="2">  1        2 0.14509953E-01 0.13825743E+03</pdfrwt>
<pdfrwt beam="1">  1       -2 0.32617187E-01 0.13825743E+03</pdfrwt>
<totfact> 0.34142031E+03</totfact>
</mgrwt>
</event>
<event>
 8    1  0.1154424E-005  0.1911749E+03  0.7546771E-02  0.1162508E+00
         -1   -1    0    0    0  501 -0.00000000000E+00  0.00000000000E+00  0.66224973447E+03  0.66224973447E+03  0.00000000000E+00 0.  1.
          1   -1    0    0  501    0  0.00000000000E+00 -0.00000000000E+00 -0.53886247927E+02  0.53886247927E+02  0.00000000000E+00 0. -1.
         23    2    1    2    0    0 -0.13600870605E+03  0.49238706885E+02  0.42629926430E+03  0.46720326035E+03  0.12500002142E+03 0.  0.
         23    2    1    2    0    0  0.13600870605E+03 -0.49238706885E+02  0.18206422224E+03  0.24893272205E+03  0.88866758178E+02 0.  0.
          5    1    3    3  502    0 -0.13449248493E+03  0.48693161479E+02  0.43458452632E+03  0.45754240568E+03  0.47000000000E+01 0.  1.
         -5    1    3    3    0  502 -0.15162211199E+01  0.54554540620E+00 -0.82852620150E+01  0.96608546688E+01  0.47000000000E+01 0.  1.
        -11    1    4    4    0    0  0.11425412846E+03 -0.55582391060E+02  0.18667108695E+03  0.22580855336E+03  0.00000000000E+00 0.  1.
         11    1    4    4    0    0  0.21754577590E+02  0.63436841749E+01 -0.46068647132E+01  0.23124168688E+02  0.00000000000E+00 0. -1.
<mgrwt>
<rscale>  0 0.18558165E+03</rscale>
<asrwt>0</asrwt>
<pdfrwt beam="2">  1        1 0.82901925E-02 0.19117485E+03</pdfrwt>
<pdfrwt beam="1">  1       -1 0.10188457E+00 0.19117485E+03</pdfrwt>
<totfact> 0.79646228E+02</totfact>
</mgrwt>
</event>
<event>
 8    1  0.1154424E-005  0.1447044E+03  0.7546771E-02  0.1214110E+00
          2   -1    0    0  501    0  0.00000000000E+00  0.00000000000E+00  0.46098320047E+03  0.46098320047E+03  0.00000000000E+00 0. -1.
         -2   -1    0    0    0  501 -0.00000000000E+00 -0.00000000000E+00 -0.40690697220E+02  0.40690697220E+02  0.00000000000E+00 0.  1.
         23    2    1    2    0    0 -0.64490142219E+02  0.57083943128E+02  0.18002039480E+03  0.23096902861E+03  0.11628325170E+03 0.  0.
         23    2    1    2    0    0  0.64490142219E+02 -0.57083943128E+02  0.24027210845E+03  0.27070486908E+03  0.90182509611E+02 0.  0.
          5    1    3    3  502    0 -0.59693348961E+02 -0.11822579557E+02  0.13562213564E+03  0.14872297393E+03  0.47000000000E+01 0. -1.
         -5    1    3    3    0  502 -0.47967932580E+01  0.68906522685E+02  0.44398259158E+02  0.82246054680E+02  0.47000000000E+01 0.  1.
        -11    1    4    4    0    0  0.43586955718E+02 -0.81582869750E+02  0.17848792807E+03  0.20103116129E+03  0.00000000000E+00 0. -1.
         11    1    4    4    0    0  0.20903186501E+02  0.24498926622E+02  0.61784180383E+02  0.69673707790E+02  0.00000000000E+00 0.  1.
<mgrwt>
<rscale>  0 0.13942127E+03</rscale>
<asrwt>0</asrwt>
<pdfrwt beam="1">  1        2 0.70920489E-01 0.14470435E+03</pdfrwt>
<pdfrwt beam="2">  1       -2 0.62601076E-02 0.14470435E+03</pdfrwt>
<totfact> 0.90471105E+03</totfact>
</mgrwt>
</event>
<event>
 8    1  0.1154424E-005  0.1372502E+03  0.7546771E-02  0.1231755E+00
         -2   -1    0    0    0  501 -0.00000000000E+00  0.00000000000E+00  0.77557016813E+02  0.77557016813E+02  0.00000000000E+00 0.  1.
          2   -1    0    0  501    0  0.00000000000E+00 -0.00000000000E+00 -0.18381778229E+03  0.18381778229E+03  0.00000000000E+00 0. -1.
         23    2    1    2    0    0  0.37464615687E+02  0.42521454151E+02 -0.53036210131E+02  0.14714091074E+03  0.12500374609E+03 0.  0.
         23    2    1    2    0    0 -0.37464615687E+02 -0.42521454151E+02 -0.53224555349E+02  0.11423388837E+03  0.83695020565E+02 0.  0.
          5    1    3    3  502    0  0.20278432223E+02  0.43810552840E+02  0.33391180144E+02  0.58886673067E+02  0.47000000000E+01 0.  1.
         -5    1    3    3    0  502  0.17186183465E+02 -0.12890986891E+01 -0.86427390274E+02  0.88254237672E+02  0.47000000000E+01 0.  1.
        -11    1    4    4    0    0 -0.63837355183E+01 -0.52102168188E+02 -0.74966076422E+00  0.52497142782E+02  0.00000000000E+00 0.  1.
         11    1    4    4    0    0 -0.31080880169E+02  0.95807140368E+01 -0.52474894585E+02  0.61736745583E+02  0.00000000000E+00 0. -1.
<mgrwt>
<rscale>  0 0.12714450E+03</rscale>
<asrwt>0</asrwt>
<pdfrwt beam="2">  1        2 0.28279658E-01 0.13725017E+03</pdfrwt>
<pdfrwt beam="1">  1       -2 0.11931849E-01 0.13725017E+03</pdfrwt>
<totfact> 0.88369889E+03</totfact>
</mgrwt>
</event>
<event>
 8    1  0.1154424E-005  0.1254995E+03  0.7546771E-02  0.1249448E+00
          2   -1    0    0  501    0  0.00000000000E+00  0.00000000000E+00  0.34840386087E+02  0.34840386087E+02  0.00000000000E+00 0. -1.
         -2   -1    0    0    0  501 -0.00000000000E+00 -0.00000000000E+00 -0.37621062009E+03  0.37621062009E+03  0.00000000000E+00 0.  1.
         23    2    1    2    0    0  0.77544008538E+01  0.80532913936E+01 -0.25686700720E+03  0.28588594871E+03  0.12500052019E+03 0.  0.
         23    2    1    2    0    0 -0.77544008538E+01 -0.80532913936E+01 -0.84503226805E+02  0.12516505747E+03  0.91654296328E+02 0.  0.
          5    1    3    3  502    0  0.57213832256E+02 -0.26817835977E+02 -0.15270808093E+03  0.16533138513E+03  0.47000000000E+01 0. -1.
         -5    1    3    3    0  502 -0.49459431402E+02  0.34871127371E+02 -0.10415892627E+03  0.12055456358E+03  0.47000000000E+01 0. -1.
        -11    1    4    4    0    0 -0.18252619884E+02  0.36298814585E+02 -0.62521742425E+02  0.74563599354E+02  0.00000000000E+00 0.  1.
         11    1    4    4    0    0  0.10498219030E+02 -0.44352105978E+02 -0.21981484381E+02  0.50601458112E+02  0.00000000000E+00 0. -1.
<mgrwt>
<rscale>  0 0.11623084E+03</rscale>
<asrwt>0</asrwt>
<pdfrwt beam="1">  1        2 0.53600593E-02 0.12549947E+03</pdfrwt>
<pdfrwt beam="2">  1       -2 0.57878558E-01 0.12549947E+03</pdfrwt>
<totfact> 0.38677457E+03</totfact>
</mgrwt>
</event>
<event>
 8    1  0.1154424E-005  0.1538039E+03  0.7546771E-02  0.1203918E+00
          2   -1    0    0  501    0  0.00000000000E+00  0.00000000000E+00  0.75606371130E+02  0.75606371130E+02  0.00000000000E+00 0. -1.
         -2   -1    0    0    0  501 -0.00000000000E+00 -0.00000000000E+00 -0.26477315554E+03  0.26477315554E+03  0.00000000000E+00 0.  1.
         23    2    1    2    0    0  0.57565901416E+02  0.68679696357E+02 -0.10069542730E+03  0.18383470537E+03  0.12499958449E+03 0.  0.
         23    2    1    2    0    0 -0.57565901416E+02 -0.68679696357E+02 -0.88471357118E+02  0.15654482130E+03  0.92996593214E+02 0.  0.
          5    1    3    3  502    0  0.23792782703E+02  0.98003684753E+02 -0.94772604970E+02  0.13847294099E+03  0.47000000000E+01 0.  1.
         -5    1    3    3    0  502  0.33773118713E+02 -0.29323988396E+02 -0.59228223256E+01  0.45361764377E+02  0.47000000000E+01 0.  1.
        -11    1    4    4    0    0 -0.69831010412E+02 -0.37594169774E+02 -0.93659810279E+02  0.12272673579E+03  0.00000000000E+00 0. -1.
         11    1    4    4    0    0  0.12265108996E+02 -0.31085526583E+02  0.51884531616E+01  0.33818085514E+02  0.00000000000E+00 0.  1.
<mgrwt>
<rscale>  0 0.14723024E+03</rscale>
<asrwt>0</asrwt>
<pdfrwt beam="1">  1        2 0.11631749E-01 0.15380387E+03</pdfrwt>
<pdfrwt beam="2">  1       -2 0.40734332E-01 0.15380387E+03</pdfrwt>
<totfact> 0.29558385E+03</totfact>
</mgrwt>
</event>
<event>
 8    1  0.1154424E-005  0.1411755E+03  0.7546771E-02  0.1222926E+00
         -1   -1    0    0    0  501 -0.00000000000E+00  0.00000000000E+00  0.35444937650E+02  0.35444937650E+02  0.00000000000E+00 0.  1.
          1   -1    0    0  501    0  0.00000000000E+00 -0.00000000000E+00 -0.45139379137E+03  0.45139379137E+03  0.00000000000E+00 0. -1.
         23    2    1    2    0    0  0.34384218850E+02 -0.55880294292E+02 -0.22135294280E+03  0.26254073185E+03  0.12500251516E+03 0.  0.
         23    2    1    2    0    0 -0.34384218850E+02  0.55880294292E+02 -0.19459591091E+03  0.22429799716E+03  0.90206103963E+02 0.  0.
          5    1    3    3  502    0  0.77095807568E+02 -0.40933700159E+02 -0.99355340121E+02  0.13233633274E+03  0.47000000000E+01 0. -1.
         -5    1    3    3    0  502 -0.42711588718E+02 -0.14946594132E+02 -0.12199760268E+03  0.13020439911E+03  0.47000000000E+01 0. -1.
        -11    1    4    4    0    0 -0.63619850770E+02  0.24340293005E+02 -0.10963474222E+03  0.12907250666E+03  0.00000000000E+00 0.  1.
         11    1    4    4    0    0  0.29235631921E+02  0.31540001286E+02 -0.84961168695E+02  0.95225490500E+02  0.00000000000E+00 0. -1.
<mgrwt>
<rscale>  0 0.13310084E+03</rscale>
<asrwt>0</asrwt>
<pdfrwt beam="2">  1        1 0.69445198E-01 0.14117546E+03</pdfrwt>
<pdfrwt beam="1">  1       -1 0.54530673E-02 0.14117546E+03</pdfrwt>
<totfact> 0.76512467E+03</totfact>
</mgrwt>
</event>
<event>
 8    1  0.1154424E-005  0.1281512E+03  0.7546771E-02  0.1242956E+00
         -1   -1    0    0    0  501 -0.00000000000E+00  0.00000000000E+00  0.29716952062E+02  0.29716952062E+02  0.00000000000E+00 0.  1.
          1   -1    0    0  501    0  0.00000000000E+00 -0.00000000000E+00 -0.54441409475E+03  0.54441409475E+03  0.00000000000E+00 0. -1.
         23    2    1    2    0    0 -0.19221047523E+02  0.20694110844E+02 -0.15503655550E+03  0.20114437930E+03  0.12500013158E+03 0.  0.
         23    2    1    2    0    0  0.19221047523E+02 -0.20694110844E+02 -0.35966058719E+03  0.37298666751E+03  0.94686964616E+02 0.  0.
          5    1    3    3  502    0 -0.39821382203E+02 -0.29258480709E+02 -0.13412439012E+03  0.14301483559E+03  0.47000000000E+01 0.  1.
         -5    1    3    3    0  502  0.20600334680E+02  0.49952591553E+02 -0.20912165379E+02  0.58129543716E+02  0.47000000000E+01 0.  1.
        -11    1    4    4    0    0 -0.31936166874E+01 -0.53535444563E+02 -0.26398826494E+03  0.26938085870E+03  0.00000000000E+00 0. -1.
         11    1    4    4    0    0  0.22414664210E+02  0.32841333720E+02 -0.95672322256E+02  0.10360580880E+03  0.00000000000E+00 0.  1.
<mgrwt>
<rscale>  0 0.12008580E+03</rscale>
<asrwt>0</asrwt>
<pdfrwt beam="2">  1        1 0.83756004E-01 0.12815119E+03</pdfrwt>
<pdfrwt beam="1">  1       -1 0.45718394E-02 0.12815119E+03</pdfrwt>
<totfact> 0.77323434E+03</totfact>
</mgrwt>
</event>
<event>
 7    1  0.1154424E-005  0.1786114E+03  0.7546771E-02  0.1180238E+00
         -1   -1    0    0    0  501 -0.00000000000E+00  0.00000000000E+00  0.39571714321E+02  0.39571714321E+02  0.00000000000E+00 0.  1.
          1   -1    0    0  501    0  0.00000000000E+00 -0.00000000000E+00 -0.74664416039E+03  0.74664416039E+03  0.00000000000E+00 0. -1.
         23    2    1    2    0    0  0.10509744880E+03 -0.70821319295E+01 -0.46552005209E+03  0.48580017071E+03  0.90538702373E+02 0.  0.
          5    1    1    2  502    0 -0.30905068076E+02  0.53117725543E+02 -0.24343315640E+02  0.66266907397E+02  0.47000000000E+01 0. -1.
         -5    1    1    2    0  502 -0.74192380728E+02 -0.46035593613E+02 -0.21720907834E+03  0.23414879660E+03  0.47000000000E+01 0.  1.
        -11    1    3    3    0    0  0.12159891884E+03 -0.10111517629E+02 -0.40288413965E+03  0.42095625644E+03  0.00000000000E+00 0. -1.
         11    1    3    3    0    0 -0.16501470038E+02  0.30293856993E+01 -0.62635912443E+02  0.64843914277E+02  0.00000000000E+00 0.  1.
<mgrwt>
<rscale>  0 0.16772838E+03</rscale>
<asrwt>0</asrwt>
<pdfrwt beam="2">  1        1 0.11486834E+00 0.17861141E+03</pdfrwt>
<pdfrwt beam="1">  1       -1 0.60879556E-02 0.17861141E+03</pdfrwt>
<totfact> 0.33020870E+03</totfact>
</mgrwt>
</event>
<event>
 8    1  0.1154424E-005  0.2679773E+03  0.7546771E-02  0.1104504E+00
         -2   -1    0    0    0  501 -0.00000000000E+00  0.00000000000E+00  0.41927904377E+02  0.41927904377E+02  0.00000000000E+00 0.  1.
          2   -1    0    0  501    0  0.00000000000E+00 -0.00000000000E+00 -0.16703796038E+04  0.16703796038E+04  0.00000000000E+00 0. -1.
         23    2    1    2    0    0  0.75133675663E+02 -0.22480954044E+03 -0.69457687307E+03  0.74447892087E+03  0.12500972887E+03 0.  0.
         23    2    1    2    0    0 -0.75133675663E+02  0.22480954044E+03 -0.93387482636E+03  0.96782858733E+03  0.91572836794E+02 0.  0.
          5    1    3    3  502    0  0.72433233238E+02 -0.19371491253E+03 -0.67793928779E+03  0.70879884914E+03  0.47000000000E+01 0. -1.
         -5    1    3    3    0  502  0.27004424252E+01 -0.31094627909E+02 -0.16637585281E+02  0.35680071722E+02  0.47000000000E+01 0. -1.
        -11    1    4    4    0    0 -0.83696700681E+02  0.20753609008E+03 -0.91015832789E+03  0.93726439611E+03  0.00000000000E+00 0. -1.
         11    1    4    4    0    0  0.85630250180E+01  0.17273450356E+02 -0.23716498471E+02  0.30564191211E+02  0.00000000000E+00 0.  1.
<mgrwt>
<rscale>  0 0.26444011E+03</rscale>
<asrwt>0</asrwt>
<pdfrwt beam="2">  1        2 0.25698150E+00 0.26797730E+03</pdfrwt>
<pdfrwt beam="1">  1       -2 0.64504464E-02 0.26797730E+03</pdfrwt>
<totfact> 0.14663011E+03</totfact>
</mgrwt>
</event>
<event>
 7    1  0.1154424E-005  0.2617998E+03  0.7546771E-02  0.1141220E+00
         -4   -1    0    0    0  501 -0.00000000000E+00  0.00000000000E+00  0.48755104764E+03  0.48755104764E+03  0.00000000000E+00 0.  1.
          4   -1    0    0  501    0  0.00000000000E+00 -0.00000000000E+00 -0.81052288004E+02  0.81052288004E+02  0.00000000000E+00 0. -1.
         23    2    1    2    0    0 -0.46638051942E+02 -0.38831800663E+02  0.36249283265E+02  0.11514571355E+03  0.90892838991E+02 0.  0.
          5    1    1    2  502    0  0.11432975817E+03 -0.37058037423E+02  0.76442121686E+02  0.14251343694E+03  0.47000000000E+01 0. -1.
         -5    1    1    2    0  502 -0.67691706224E+02  0.75889838086E+02  0.29380735468E+03  0.31094418516E+03  0.47000000000E+01 0.  1.
        -11    1    3    3    0    0 -0.64028245778E+02 -0.55453728345E+02  0.23418417994E+02  0.87881480108E+02  0.00000000000E+00 0. -1.
         11    1    3    3    0    0  0.17390193835E+02  0.16621927682E+02  0.12830865271E+02  0.27264233441E+02  0.00000000000E+00 0.  1.
<mgrwt>
<rscale>  0 0.21043749E+03</rscale>
<asrwt>0</asrwt>
<pdfrwt beam="2">  1        4 0.12469583E-01 0.26179981E+03</pdfrwt>
<pdfrwt beam="1">  1       -4 0.75007851E-01 0.26179981E+03</pdfrwt>
<totfact> 0.15716362E+02</totfact>
</mgrwt>
</event>
<event>
 7    1  0.1154424E-005  0.1799708E+03  0.7546771E-02  0.1185656E+00
         -3   -1    0    0    0  501 -0.00000000000E+00  0.00000000000E+00  0.40624323398E+03  0.40624323398E+03  0.00000000000E+00 0.  1.
          3   -1    0    0  501    0  0.00000000000E+00 -0.00000000000E+00 -0.10892365798E+03  0.10892365798E+03  0.00000000000E+00 0. -1.
         23    2    1    2    0    0  0.74623118413E+02  0.72662238542E+01 -0.44999773171E+02  0.12842145802E+03  0.94051493783E+02 0.  0.
          5    1    1    2  502    0 -0.32753725682E+02 -0.38216826380E+02  0.11528702990E+02  0.51849140371E+02  0.47000000000E+01 0. -1.
         -5    1    1    2    0  502 -0.41869392731E+02  0.30950602526E+02  0.33079064618E+03  0.33489629357E+03  0.47000000000E+01 0.  1.
        -11    1    3    3    0    0  0.94752373268E+02  0.10923442681E+01 -0.49473906831E+02  0.10689655239E+03  0.00000000000E+00 0. -1.
         11    1    3    3    0    0 -0.20129254855E+02  0.61738795862E+01  0.44741336605E+01  0.21524905625E+02  0.00000000000E+00 0.  1.
<mgrwt>
<rscale>  0 0.16272310E+03</rscale>
<asrwt>0</asrwt>
<pdfrwt beam="2">  1        3 0.16757486E-01 0.17997081E+03</pdfrwt>
<pdfrwt beam="1">  1       -3 0.62498958E-01 0.17997081E+03</pdfrwt>
<totfact> 0.18703249E+02</totfact>
</mgrwt>
</event>
<event>
 8    1  0.1154424E-005  0.1476554E+03  0.7546771E-02  0.1211772E+00
          1   -1    0    0  501    0  0.00000000000E+00  0.00000000000E+00  0.27920379572E+03  0.27920379572E+03  0.00000000000E+00 0. -1.
         -1   -1    0    0    0  501 -0.00000000000E+00 -0.00000000000E+00 -0.80767244872E+02  0.80767244872E+02  0.00000000000E+00 0.  1.
         23    2    1    2    0    0 -0.74935748054E+02  0.23710608172E+02  0.29139305446E+02  0.15050322398E+03  0.12499824811E+03 0.  0.
         23    2    1    2    0    0  0.74935748054E+02 -0.23710608172E+02  0.16929724541E+03  0.20946781661E+03  0.95066553627E+02 0.  0.
          5    1    3    3  502    0 -0.10691712067E+03  0.34229656407E+02  0.13786929793E+02  0.11320384050E+03  0.47000000000E+01 0. -1.
         -5    1    3    3    0  502  0.31981372616E+02 -0.10519048235E+02  0.15352375653E+02  0.37299383485E+02  0.47000000000E+01 0. -1.
        -11    1    4    4    0    0  0.23644359148E+02  0.10285898383E+02  0.13808061542E+03  0.14046747588E+03  0.00000000000E+00 0. -1.
         11    1    4    4    0    0  0.51291388906E+02 -0.33996506555E+02  0.31216629987E+02  0.69000340736E+02  0.00000000000E+00 0.  1.
<mgrwt>
<rscale>  0 0.14116329E+03</rscale>
<asrwt>0</asrwt>
<pdfrwt beam="1">  1        1 0.42954430E-01 0.14765541E+03</pdfrwt>
<pdfrwt beam="2">  1       -1 0.12425730E-01 0.14765541E+03</pdfrwt>
<totfact> 0.40249007E+03</totfact>
</mgrwt>
</event>
<event>
 7    1  0.1154424E-005  0.3077099E+03  0.7546771E-02  0.1118778E+00
         -1   -1    0    0    0  501 -0.00000000000E+00  0.00000000000E+00  0.78668497240E+02  0.78668497240E+02  0.00000000000E+00 0.  1.
          1   -1    0    0  501    0  0.00000000000E+00 -0.00000000000E+00 -0.66085125335E+03  0.66085125335E+03  0.00000000000E+00 0. -1.
         23    2    1    2    0    0  0.59075449157E+02 -0.46212357836E+02 -0.30029543564E+03  0.32221189593E+03  0.89541423382E+02 0.  0.
          5    1    1    2  502    0 -0.22344840428E+01 -0.11777747023E+03 -0.18244850750E+03  0.21722355605E+03  0.47000000000E+01 0. -1.
         -5    1    1    2    0  502 -0.56840965114E+02  0.16398982807E+03 -0.99438812965E+02  0.20008429861E+03  0.47000000000E+01 0.  1.
        -11    1    3    3    0    0 -0.13998367359E+02 -0.23899564748E+02 -0.16075223890E+03  0.16312089319E+03  0.00000000000E+00 0.  1.
         11    1    3    3    0    0  0.73073816516E+02 -0.22312793087E+02 -0.13954319674E+03  0.15909100274E+03  0.00000000000E+00 0. -1.
<mgrwt>
<rscale>  0 0.24152966E+03</rscale>
<asrwt>0</asrwt>
<pdfrwt beam="2">  1        1 0.10166942E+00 0.30770990E+03</pdfrwt>
<pdfrwt beam="1">  1       -1 0.12102846E-01 0.30770990E+03</pdfrwt>
<totfact> 0.13867512E+03</totfact>
</mgrwt>
</event>
<event>
 8    1  0.3430258E-005  0.2222045E+03  0.7546771E-02  0.1135493E+00
         -2   -1    0    0    0  501 -0.00000000000E+00  0.00000000000E+00  0.60690518162E+02  0.60690518162E+02  0.00000000000E+00 0.  1.
          2   -1    0    0  501    0  0.00000000000E+00 -0.00000000000E+00 -0.75941386850E+03  0.75941386850E+03  0.00000000000E+00 0. -1.
         23    2    1    2    0    0  0.74654215751E+02 -0.16785840205E+03 -0.40112906206E+03  0.45856229816E+03  0.12500064721E+03 0.  0.
         23    2    1    2    0    0 -0.74654215751E+02  0.16785840205E+03 -0.29759428828E+03  0.36154208850E+03  0.91654930416E+02 0.  0.
          5    1    3    3  502    0  0.80675455311E+02 -0.18581254976E+03 -0.36900772223E+03  0.42097936031E+03  0.47000000000E+01 0.  1.
         -5    1    3    3    0  502 -0.60212395595E+01  0.17954147709E+02 -0.32121339824E+02  0.37582937856E+02  0.47000000000E+01 0.  1.
        -11    1    4    4    0    0 -0.43977448609E+02  0.98807925880E+02 -0.90257247912E+02  0.14086657873E+03  0.00000000000E+00 0.  1.
         11    1    4    4    0    0 -0.30676767142E+02  0.69050476171E+02 -0.20733704037E+03  0.22067550977E+03  0.00000000000E+00 0. -1.
<mgrwt>
<rscale>  0 0.21785363E+03</rscale>
<asrwt>0</asrwt>
<pdfrwt beam="2">  1        2 0.11683290E+00 0.22220454E+03</pdfrwt>
<pdfrwt beam="1">  1       -2 0.93370032E-02 0.22220454E+03</pdfrwt>
<totfact> 0.27890802E+03</totfact>
</mgrwt>
</event>
<event>
 8    1  0.1154424E-005  0.1392640E+03  0.7546771E-02  0.1225248E+00
         -1   -1    0    0    0  501 -0.00000000000E+00  0.00000000000E+00  0.35363121727E+03  0.35363121727E+03  0.00000000000E+00 0.  1.
          1   -1    0    0  501    0  0.00000000000E+00 -0.00000000000E+00 -0.50200882528E+02  0.50200882528E+02  0.00000000000E+00 0. -1.
         23    2    1    2    0    0  0.34870857850E+02 -0.50538004598E+02  0.23652469117E+03  0.27447841949E+03  0.12499762636E+03 0.  0.
         23    2    1    2    0    0 -0.34870857850E+02  0.50538004598E+02  0.66905643578E+02  0.12935368031E+03  0.92119177331E+02 0.  0.
          5    1    3    3  502    0  0.31516311964E+02 -0.81403408813E+01  0.22860994252E+03  0.23096350121E+03  0.47000000000E+01 0. -1.
         -5    1    3    3    0  502  0.33545458867E+01 -0.42397663716E+02  0.79147486435E+01  0.43514918279E+02  0.47000000000E+01 0. -1.
        -11    1    4    4    0    0 -0.44489411025E+02 -0.88971252331E+01  0.98957337998E+01  0.46436968874E+02  0.00000000000E+00 0.  1.
         11    1    4    4    0    0  0.96185531742E+01  0.59435129831E+02  0.57009909778E+02  0.82916711440E+02  0.00000000000E+00 0. -1.
<mgrwt>
<rscale>  0 0.13149913E+03</rscale>
<asrwt>0</asrwt>
<pdfrwt beam="2">  1        1 0.77232129E-02 0.13926404E+03</pdfrwt>
<pdfrwt beam="1">  1       -1 0.54404801E-01 0.13926404E+03</pdfrwt>
<totfact> 0.30863325E+03</totfact>
</mgrwt>
</event>
<event>
 8    1  0.1154424E-005  0.1435591E+03  0.7546771E-02  0.1218798E+00
         -2   -1    0    0    0  501 -0.00000000000E+00  0.00000000000E+00  0.11120783608E+03  0.11120783608E+03  0.00000000000E+00 0.  1.
          2   -1    0    0  501    0  0.00000000000E+00 -0.00000000000E+00 -0.16229614344E+03  0.16229614344E+03  0.00000000000E+00 0. -1.
         23    2    1    2    0    0 -0.94278223976E+01 -0.69965733920E+02  0.76746831520E+01  0.14376412603E+03  0.12500054166E+03 0.  0.
         23    2    1    2    0    0  0.94278223976E+01  0.69965733920E+02 -0.58762990511E+02  0.12973985349E+03  0.91625611986E+02 0.  0.
          5    1    3    3  502    0 -0.58015845143E+02 -0.68671872888E+02  0.22389324791E+02  0.92763334773E+02  0.47000000000E+01 0. -1.
         -5    1    3    3    0  502  0.48588022746E+02 -0.12938610318E+01 -0.14714641639E+02  0.51000791261E+02  0.47000000000E+01 0. -1.
        -11    1    4    4    0    0 -0.23992319176E+02  0.68351648121E+02 -0.13880279990E+02  0.73757991790E+02  0.00000000000E+00 0.  1.
         11    1    4    4    0    0  0.33420141574E+02  0.16140857995E+01 -0.44882710520E+02  0.55981861700E+02  0.00000000000E+00 0. -1.
<mgrwt>
<rscale>  0 0.13601207E+03</rscale>
<asrwt>0</asrwt>
<pdfrwt beam="2">  1        2 0.24968637E-01 0.14355913E+03</pdfrwt>
<pdfrwt beam="1">  1       -2 0.17108898E-01 0.14355913E+03</pdfrwt>
<totfact> 0.56532367E+03</totfact>
</mgrwt>
</event>
<event>
 7    1  0.1154424E-005  0.4986055E+03  0.7546771E-02  0.1014144E+00
         -3   -1    0    0    0  501 -0.00000000000E+00  0.00000000000E+00  0.10030970156E+03  0.10030970156E+03  0.00000000000E+00 0.  1.
          3   -1    0    0  501    0  0.00000000000E+00 -0.00000000000E+00 -0.61959965301E+03  0.61959965301E+03  0.00000000000E+00 0. -1.
         23    2    1    2    0    0  0.61639111485E+01 -0.12019177378E+03 -0.39493278669E+03  0.42303020639E+03  0.92187814977E+02 0.  0.
          5    1    1    2  502    0  0.95041866885E+01 -0.34726785106E+02 -0.13590519377E+03  0.14067192635E+03  0.47000000000E+01 0. -1.
         -5    1    1    2    0  502 -0.15668097837E+02  0.15491855889E+03  0.11548029008E+02  0.15620722183E+03  0.47000000000E+01 0.  1.
        -11    1    3    3    0    0  0.66133047063E+01 -0.29123136716E+02 -0.17177358993E+02  0.34452206799E+02  0.00000000000E+00 0.  1.
         11    1    3    3    0    0 -0.44939355785E+00 -0.91068637062E+02 -0.37775542770E+03  0.38857799959E+03  0.00000000000E+00 0. -1.
<mgrwt>
<rscale>  0 0.49860548E+03</rscale>
<asrwt>0</asrwt>
<pdfrwt beam="2">  1        3 0.95323023E-01 0.49860548E+03</pdfrwt>
<pdfrwt beam="1">  1       -3 0.15432262E-01 0.49860548E+03</pdfrwt>
<totfact> 0.93025044E+01</totfact>
</mgrwt>
</event>
<event>
 8    1  0.1154424E-005  0.1368861E+03  0.7546771E-02  0.1229193E+00
          2   -1    0    0  501    0  0.00000000000E+00  0.00000000000E+00  0.23214639749E+03  0.23214639749E+03  0.00000000000E+00 0.  1.
         -2   -1    0    0    0  501 -0.00000000000E+00 -0.00000000000E+00 -0.65560916425E+02  0.65560916425E+02  0.00000000000E+00 0. -1.
         23    2    1    2    0    0  0.52984383686E+02 -0.17496028851E+02  0.11385034382E+03  0.17804413633E+03  0.12499743099E+03 0.  0.
         23    2    1    2    0    0 -0.52984383686E+02  0.17496028851E+02  0.52735137247E+02  0.11966317759E+03  0.91786847800E+02 0.  0.
          5    1    3    3  502    0 -0.25333308656E+02  0.28961906836E+02  0.62085440942E+02  0.73193309475E+02  0.47000000000E+01 0.  1.
         -5    1    3    3    0  502  0.78317692342E+02 -0.46457935687E+02  0.51764902876E+02  0.10485082685E+03  0.47000000000E+01 0.  1.
        -11    1    4    4    0    0  0.12609659583E+01 -0.16841381791E+02  0.52829491481E+02  0.55463297287E+02  0.00000000000E+00 0.  1.
         11    1    4    4    0    0 -0.54245349645E+02  0.34337410642E+02 -0.94354233430E-01  0.64199880299E+02  0.00000000000E+00 0. -1.
<mgrwt>
<rscale>  0 0.12883600E+03</rscale>
<asrwt>0</asrwt>
<pdfrwt beam="1">  1        2 0.35714830E-01 0.13688613E+03</pdfrwt>
<pdfrwt beam="2">  1       -2 0.10086295E-01 0.13688613E+03</pdfrwt>
<totfact> 0.89632177E+03</totfact>
</mgrwt>
</event>
<event>
 8    1  0.1154424E-005  0.1277262E+03  0.7546771E-02  0.1245245E+00
         -1   -1    0    0    0  501 -0.00000000000E+00  0.00000000000E+00  0.18227668466E+02  0.18227668466E+02  0.00000000000E+00 0.  1.
          1   -1    0    0  501    0  0.00000000000E+00 -0.00000000000E+00 -0.80570845113E+03  0.80570845113E+03  0.00000000000E+00 0. -1.
         23    2    1    2    0    0 -0.37165598761E+01  0.25972937369E+02 -0.28236286924E+03  0.30990767197E+03  0.12500227569E+03 0.  0.
         23    2    1    2    0    0  0.37165598761E+01 -0.25972937369E+02 -0.50511791342E+03  0.51402844763E+03  0.91611856305E+02 0.  0.
          5    1    3    3  502    0  0.18704207540E+02 -0.24132806748E+02 -0.23567734614E+03  0.23769337649E+03  0.47000000000E+01 0.  1.
         -5    1    3    3    0  502 -0.22420767416E+02  0.50105744117E+02 -0.46685523098E+02  0.72214295482E+02  0.47000000000E+01 0.  1.
        -11    1    4    4    0    0  0.30207498632E+02 -0.50236441128E+02 -0.34354381914E+03  0.34850903669E+03  0.00000000000E+00 0. -1.
         11    1    4    4    0    0 -0.26490938756E+02  0.24263503759E+02 -0.16157409429E+03  0.16551941093E+03  0.00000000000E+00 0.  1.
<mgrwt>
<rscale>  0 0.11870731E+03</rscale>
<asrwt>0</asrwt>
<pdfrwt beam="2">  1        1 0.12395512E+00 0.12772617E+03</pdfrwt>
<pdfrwt beam="1">  1       -1 0.28042573E-02 0.12772617E+03</pdfrwt>
<totfact> 0.91040256E+03</totfact>
</mgrwt>
</event>
<event>
 8    1  0.1154424E-005  0.1761529E+03  0.7546771E-02  0.1179048E+00
          3   -1    0    0  501    0  0.00000000000E+00  0.00000000000E+00  0.94744557511E+03  0.94744557511E+03  0.00000000000E+00 0. -1.
         -3   -1    0    0    0  501 -0.00000000000E+00 -0.00000000000E+00 -0.52234131448E+02  0.52234131448E+02  0.00000000000E+00 0.  1.
         23    2    1    2    0    0  0.98553525575E+02  0.75436877239E+02  0.12689045269E+03  0.21709684729E+03  0.12500533697E+03 0.  0.
         23    2    1    2    0    0 -0.98553525575E+02 -0.75436877239E+02  0.76832099098E+03  0.78258285927E+03  0.81946730218E+02 0.  0.
          5    1    3    3  502    0  0.10315709038E+03  0.14009892811E+02  0.42576586317E+02  0.11257227943E+03  0.47000000000E+01 0.  1.
         -5    1    3    3    0  502 -0.46035648095E+01  0.61426984428E+02  0.84313866372E+02  0.10452456787E+03  0.47000000000E+01 0.  1.
        -11    1    4    4    0    0 -0.82583880025E+02 -0.14516071727E+02  0.49902848019E+03  0.50602394965E+03  0.00000000000E+00 0.  1.
         11    1    4    4    0    0 -0.15969645550E+02 -0.60920805513E+02  0.26929251078E+03  0.27655890962E+03  0.00000000000E+00 0. -1.
<mgrwt>
<rscale>  0 0.16885447E+03</rscale>
<asrwt>0</asrwt>
<pdfrwt beam="1">  1        3 0.14576084E+00 0.17615293E+03</pdfrwt>
<pdfrwt beam="2">  1       -3 0.80360209E-02 0.17615293E+03</pdfrwt>
<totfact> 0.94500130E+01</totfact>
</mgrwt>
</event>
<event>
 8    1  0.1154424E-005  0.1313239E+03  0.7546771E-02  0.1238421E+00
         -2   -1    0    0    0  501 -0.00000000000E+00  0.00000000000E+00  0.15410863448E+03  0.15410863448E+03  0.00000000000E+00 0.  1.
          2   -1    0    0  501    0  0.00000000000E+00 -0.00000000000E+00 -0.87826814350E+02  0.87826814350E+02  0.00000000000E+00 0. -1.
         23    2    1    2    0    0 -0.29042599938E+02 -0.27864721446E+02  0.46708642071E+02  0.13938320027E+03  0.12500425577E+03 0.  0.
         23    2    1    2    0    0  0.29042599938E+02  0.27864721446E+02  0.19573178056E+02  0.10255224856E+03  0.92271008842E+02 0.  0.
          5    1    3    3  502    0 -0.23404592478E+02  0.44844862022E+02 -0.31749592895E+01  0.50901934789E+02  0.47000000000E+01 0.  1.
         -5    1    3    3    0  502 -0.56380074600E+01 -0.72709583467E+02  0.49883601361E+02  0.88481265479E+02  0.47000000000E+01 0.  1.
        -11    1    4    4    0    0 -0.45857739654E+01  0.34683015046E+02  0.47023744384E+02  0.58610352255E+02  0.00000000000E+00 0.  1.
         11    1    4    4    0    0  0.33628373903E+02 -0.68182935998E+01 -0.27450566328E+02  0.43941896303E+02  0.00000000000E+00 0. -1.
<mgrwt>
<rscale>  0 0.12287960E+03</rscale>
<asrwt>0</asrwt>
<pdfrwt beam="2">  1        2 0.13511818E-01 0.13132395E+03</pdfrwt>
<pdfrwt beam="1">  1       -2 0.23709021E-01 0.13132395E+03</pdfrwt>
<totfact> 0.65227061E+03</totfact>
</mgrwt>
</event>
<event>
 8    1  0.1154424E-005  0.1281927E+03  0.7546771E-02  0.1237905E+00
         -1   -1    0    0    0  501 -0.00000000000E+00  0.00000000000E+00  0.14574746202E+02  0.14574746202E+02  0.00000000000E+00 0.  1.
          1   -1    0    0  501    0  0.00000000000E+00 -0.00000000000E+00 -0.97796951734E+03  0.97796951734E+03  0.00000000000E+00 0. -1.
         23    2    1    2    0    0  0.59771800658E+01 -0.62942769962E+02 -0.46960013585E+03  0.48678296691E+03  0.11151614372E+03 0.  0.
         23    2    1    2    0    0 -0.59771800658E+01  0.62942769962E+02 -0.49379463529E+03  0.50576129663E+03  0.89240284403E+02 0.  0.
          5    1    3    3  502    0  0.17714711662E+02  0.29554686364E+02 -0.13411632823E+03  0.13855168708E+03  0.47000000000E+01 0. -1.
         -5    1    3    3    0  502 -0.11737531596E+02 -0.92497456326E+02 -0.33548380762E+03  0.34823127983E+03  0.47000000000E+01 0.  1.
        -11    1    4    4    0    0 -0.14769975164E+02  0.82735656067E+02 -0.43633911639E+03  0.44435927518E+03  0.00000000000E+00 0. -1.
         11    1    4    4    0    0  0.87927950983E+01 -0.19792886105E+02 -0.57455518901E+02  0.61402021450E+02  0.00000000000E+00 0.  1.
<mgrwt>
<rscale>  0 0.12320263E+03</rscale>
<asrwt>0</asrwt>
<pdfrwt beam="2">  1        1 0.15045686E+00 0.12819270E+03</pdfrwt>
<pdfrwt beam="1">  1       -1 0.22422684E-02 0.12819270E+03</pdfrwt>
<totfact> 0.92678687E+03</totfact>
</mgrwt>
</event>
<event>
 8    1  0.1154424E-005  0.1317439E+03  0.7546771E-02  0.1239153E+00
         -1   -1    0    0    0  501 -0.00000000000E+00  0.00000000000E+00  0.14083688414E+03  0.14083688414E+03  0.00000000000E+00 0.  1.
          1   -1    0    0  501    0  0.00000000000E+00 -0.00000000000E+00 -0.10159785831E+03  0.10159785831E+03  0.00000000000E+00 0. -1.
         23    2    1    2    0    0  0.35257453975E+02  0.22087857843E+02  0.55332912255E+02  0.14289223111E+03  0.12500198801E+03 0.  0.
         23    2    1    2    0    0 -0.35257453975E+02 -0.22087857843E+02 -0.16093886430E+02  0.99542511345E+02  0.88987284819E+02 0.  0.
          5    1    3    3  502    0  0.75631649463E+02 -0.12052906482E+02  0.44550240015E+02  0.88725604199E+02  0.47000000000E+01 0.  1.
         -5    1    3    3    0  502 -0.40374195488E+02  0.34140764325E+02  0.10782672240E+02  0.54166626908E+02  0.47000000000E+01 0.  1.
        -11    1    4    4    0    0 -0.30472002330E+01 -0.13448395468E+02 -0.50070280215E+02  0.51934359827E+02  0.00000000000E+00 0. -1.
         11    1    4    4    0    0 -0.32210253742E+02 -0.86394623747E+01  0.33976393785E+02  0.47608151517E+02  0.00000000000E+00 0.  1.
<mgrwt>
<rscale>  0 0.12242275E+03</rscale>
<asrwt>0</asrwt>
<pdfrwt beam="2">  1        1 0.15630440E-01 0.13174391E+03</pdfrwt>
<pdfrwt beam="1">  1       -1 0.21667213E-01 0.13174391E+03</pdfrwt>
<totfact> 0.59170241E+03</totfact>
</mgrwt>
</event>
<event>
 7    1  0.1154424E-005  0.2493437E+03  0.7546771E-02  0.1143590E+00
          2   -1    0    0  501    0  0.00000000000E+00  0.00000000000E+00  0.12848769163E+04  0.12848769163E+04  0.00000000000E+00 0. -1.
         -2   -1    0    0    0  501 -0.00000000000E+00 -0.00000000000E+00 -0.27817962323E+02  0.27817962323E+02  0.00000000000E+00 0.  1.
         23    2    1    2    0    0  0.63394304471E+02 -0.43491237909E+02  0.55362917998E+03  0.56638010452E+03  0.91492230565E+02 0.  0.
          5    1    1    2  502    0  0.11195247897E+01  0.89808406171E+02  0.63511507303E+03  0.64145151737E+03  0.47000000000E+01 0. -1.
         -5    1    1    2    0  502 -0.64513829261E+02 -0.46317168262E+02  0.68314700942E+02  0.10486325670E+03  0.47000000000E+01 0.  1.
        -11    1    3    3    0    0 -0.23722569217E+02 -0.12702938593E+02  0.13896228019E+03  0.14154377505E+03  0.00000000000E+00 0.  1.
         11    1    3    3    0    0  0.87116873688E+02 -0.30788299316E+02  0.41466689979E+03  0.42483632947E+03  0.00000000000E+00 0. -1.
<mgrwt>
<rscale>  0 0.20746472E+03</rscale>
<asrwt>0</asrwt>
<pdfrwt beam="1">  1        2 0.19767333E+00 0.24934373E+03</pdfrwt>
<pdfrwt beam="2">  1       -2 0.42796875E-02 0.24934373E+03</pdfrwt>
<totfact> 0.44283102E+03</totfact>
</mgrwt>
</event>
<event>
 8    1  0.1154424E-005  0.1280198E+03  0.7546771E-02  0.1244752E+00
         -1   -1    0    0    0  501 -0.00000000000E+00  0.00000000000E+00  0.32122328079E+02  0.32122328079E+02  0.00000000000E+00 0.  1.
          1   -1    0    0  501    0  0.00000000000E+00 -0.00000000000E+00 -0.39097037074E+03  0.39097037074E+03  0.00000000000E+00 0. -1.
         23    2    1    2    0    0  0.19513628966E+02  0.19384410338E+02 -0.19096912290E+03  0.22990929104E+03  0.12503015287E+03 0.  0.
         23    2    1    2    0    0 -0.19513628966E+02 -0.19384410338E+02 -0.16787891976E+03  0.19318340777E+03  0.91542122869E+02 0.  0.
          5    1    3    3  502    0 -0.18684297545E+00 -0.12319279909E+02  0.15322373533E+02  0.20215456919E+02  0.47000000000E+01 0.  1.
         -5    1    3    3    0  502  0.19700471942E+02  0.31703690247E+02 -0.20629149643E+03  0.20969383412E+03  0.47000000000E+01 0.  1.
        -11    1    4    4    0    0 -0.35989843927E+01  0.35746691381E+02 -0.85962977946E+02  0.93168729791E+02  0.00000000000E+00 0. -1.
         11    1    4    4    0    0 -0.15914644574E+02 -0.55131101720E+02 -0.81915941816E+02  0.10001467798E+03  0.00000000000E+00 0.  1.
<mgrwt>
<rscale>  0 0.11900231E+03</rscale>
<asrwt>0</asrwt>
<pdfrwt beam="2">  1        1 0.60149292E-01 0.12801983E+03</pdfrwt>
<pdfrwt beam="1">  1       -1 0.49418963E-02 0.12801983E+03</pdfrwt>
<totfact> 0.10549519E+04</totfact>
</mgrwt>
</event>
<event>
 8    1  0.1154424E-005  0.1693937E+03  0.7546771E-02  0.1184886E+00
         -1   -1    0    0    0  501 -0.00000000000E+00  0.00000000000E+00  0.12494891528E+03  0.12494891528E+03  0.00000000000E+00 0.  1.
          1   -1    0    0  501    0  0.00000000000E+00 -0.00000000000E+00 -0.20762594810E+03  0.20762594810E+03  0.00000000000E+00 0. -1.
         23    2    1    2    0    0  0.94556906770E+02 -0.64230937449E+02 -0.12329547667E+02  0.16984183207E+03  0.12501043249E+03 0.  0.
         23    2    1    2    0    0 -0.94556906770E+02  0.64230937449E+02 -0.70347485147E+02  0.16273303131E+03  0.92014394905E+02 0.  0.
          5    1    3    3  502    0 -0.22173564222E+02 -0.34530648048E+02 -0.25564123191E+02  0.48576197869E+02  0.47000000000E+01 0. -1.
         -5    1    3    3    0  502  0.11673047099E+03 -0.29700289402E+02  0.13234575524E+02  0.12126563420E+03  0.47000000000E+01 0. -1.
        -11    1    4    4    0    0 -0.88023533359E+02  0.22843015277E+02 -0.13232634752E+02  0.91896944424E+02  0.00000000000E+00 0.  1.
         11    1    4    4    0    0 -0.65333734115E+01  0.41387922173E+02 -0.57114850396E+02  0.70836086888E+02  0.00000000000E+00 0. -1.
<mgrwt>
<rscale>  0 0.16342245E+03</rscale>
<asrwt>0</asrwt>
<pdfrwt beam="2">  1        1 0.31942453E-01 0.16939371E+03</pdfrwt>
<pdfrwt beam="1">  1       -1 0.19222910E-01 0.16939371E+03</pdfrwt>
<totfact> 0.29412709E+03</totfact>
</mgrwt>
</event>
<event>
 8    1  0.1673952E-005  0.3939700E+03  0.7546771E-02  0.1046807E+00
          1   -1    0    0  501    0  0.00000000000E+00  0.00000000000E+00  0.94715550514E+03  0.94715550514E+03  0.00000000000E+00 0. -1.
         -1   -1    0    0    0  501 -0.00000000000E+00 -0.00000000000E+00 -0.16625417569E+03  0.16625417569E+03  0.00000000000E+00 0.  1.
         23    2    1    2    0    0  0.28548181951E+03  0.24101315799E+03  0.50653399239E+03  0.64170788418E+03  0.12500044627E+03 0.  0.
         23    2    1    2    0    0 -0.28548181951E+03 -0.24101315799E+03  0.27436733706E+03  0.47170179666E+03  0.87395295822E+02 0.  0.
          5    1    3    3  502    0  0.25813588055E+03  0.20172295005E+03  0.49263542259E+03  0.59164011949E+03  0.47000000000E+01 0.  1.
         -5    1    3    3    0  502  0.27345938962E+02  0.39290207942E+02  0.13898569804E+02  0.50067764684E+02  0.47000000000E+01 0.  1.
        -11    1    4    4    0    0 -0.99109659950E+02 -0.70245135217E+02  0.14025982306E+03  0.18555301583E+03  0.00000000000E+00 0.  1.
         11    1    4    4    0    0 -0.18637215956E+03 -0.17076802277E+03  0.13410751399E+03  0.28614878083E+03  0.00000000000E+00 0. -1.
<mgrwt>
<rscale>  0 0.39137680E+03</rscale>
<asrwt>0</asrwt>
<pdfrwt beam="1">  1        1 0.14571623E+00 0.39396995E+03</pdfrwt>
<pdfrwt beam="2">  1       -1 0.25577566E-01 0.39396995E+03</pdfrwt>
<totfact> 0.23354740E+02</totfact>
</mgrwt>
</event>
<event>
 8    1  0.1154424E-005  0.2423801E+03  0.7546771E-02  0.1119824E+00
         -1   -1    0    0    0  501 -0.00000000000E+00  0.00000000000E+00  0.13004159056E+03  0.13004159056E+03  0.00000000000E+00 0.  1.
          1   -1    0    0  501    0  0.00000000000E+00 -0.00000000000E+00 -0.69500872500E+03  0.69500872500E+03  0.00000000000E+00 0. -1.
         23    2    1    2    0    0 -0.70151533714E+02 -0.19545690096E+03 -0.33320035975E+02  0.24465965454E+03  0.12499393563E+03 0.  0.
         23    2    1    2    0    0  0.70151533714E+02  0.19545690096E+03 -0.53164709846E+03  0.58039066103E+03  0.10526178931E+03 0.  0.
          5    1    3    3  502    0 -0.10456102896E+02  0.12172835815E+02 -0.22849356450E+02  0.28314150345E+02  0.47000000000E+01 0.  1.
         -5    1    3    3    0  502 -0.59695430818E+02 -0.20762973678E+03 -0.10470679525E+02  0.21634550419E+03  0.47000000000E+01 0.  1.
        -11    1    4    4    0    0  0.24678630477E+02  0.18411541842E+03 -0.41484593424E+03  0.45453786559E+03  0.00000000000E+00 0.  1.
         11    1    4    4    0    0  0.45472903237E+02  0.11341482543E+02 -0.11680116422E+03  0.12585279544E+03  0.00000000000E+00 0. -1.
<mgrwt>
<rscale>  0 0.23995364E+03</rscale>
<asrwt>0</asrwt>
<pdfrwt beam="2">  1        1 0.10692442E+00 0.24238012E+03</pdfrwt>
<pdfrwt beam="1">  1       -1 0.20006399E-01 0.24238012E+03</pdfrwt>
<totfact> 0.57775973E+02</totfact>
</mgrwt>
</event>
<event>
 8    1  0.1154424E-005  0.1536857E+03  0.7546771E-02  0.1204556E+00
         -1   -1    0    0    0  501 -0.00000000000E+00  0.00000000000E+00  0.58485777408E+02  0.58485777408E+02  0.00000000000E+00 0.  1.
          1   -1    0    0  501    0  0.00000000000E+00 -0.00000000000E+00 -0.33847471770E+03  0.33847471770E+03  0.00000000000E+00 0. -1.
         23    2    1    2    0    0  0.87872826460E+02  0.16528455418E+02 -0.14994701853E+03  0.21471700922E+03  0.12499784884E+03 0.  0.
         23    2    1    2    0    0 -0.87872826460E+02 -0.16528455418E+02 -0.13004192177E+03  0.18224348589E+03  0.91142543661E+02 0.  0.
          5    1    3    3  502    0 -0.13930150253E+02 -0.29634347766E+02 -0.80990890160E+01  0.34057728880E+02  0.47000000000E+01 0.  1.
         -5    1    3    3    0  502  0.10180297671E+03  0.46162803184E+02 -0.14184792951E+03  0.18065928034E+03  0.47000000000E+01 0.  1.
        -11    1    4    4    0    0 -0.99898694206E+02 -0.47043621304E+01 -0.75939705344E+02  0.12557356001E+03  0.00000000000E+00 0.  1.
         11    1    4    4    0    0  0.12025867746E+02 -0.11824093287E+02 -0.54102216425E+02  0.56669925879E+02  0.00000000000E+00 0. -1.
<mgrwt>
<rscale>  0 0.14672511E+03</rscale>
<asrwt>0</asrwt>
<pdfrwt beam="2">  1        1 0.52073034E-01 0.15368567E+03</pdfrwt>
<pdfrwt beam="1">  1       -1 0.89978118E-02 0.15368567E+03</pdfrwt>
<totfact> 0.52114676E+03</totfact>
</mgrwt>
</event>
<event>
 8    1  0.1154424E-005  0.2745038E+03  0.7546771E-02  0.1100607E+00
          1   -1    0    0  501    0  0.00000000000E+00  0.00000000000E+00  0.18820684867E+03  0.18820684867E+03  0.00000000000E+00 0. -1.
         -1   -1    0    0    0  501 -0.00000000000E+00 -0.00000000000E+00 -0.88134388732E+03  0.88134388732E+03  0.00000000000E+00 0.  1.
         23    2    1    2    0    0  0.20413916737E+03 -0.13436879094E+03 -0.75288486453E+03  0.80136630155E+03  0.12499823355E+03 0.  0.
         23    2    1    2    0    0 -0.20413916737E+03  0.13436879094E+03  0.59747825889E+02  0.26818443444E+03  0.92872582315E+02 0.  0.
          5    1    3    3  502    0 -0.85281155456E+01 -0.23201947717E+02 -0.27360398853E+02  0.37171770983E+02  0.47000000000E+01 0.  1.
         -5    1    3    3    0  502  0.21266728291E+03 -0.11116684322E+03 -0.72552446568E+03  0.76419453057E+03  0.47000000000E+01 0.  1.
        -11    1    4    4    0    0 -0.10703695393E+03  0.25214977462E+02 -0.98131660142E+00  0.10997121250E+03  0.00000000000E+00 0.  1.
         11    1    4    4    0    0 -0.97102213434E+02  0.10915381347E+03  0.60729142490E+02  0.15821322194E+03  0.00000000000E+00 0. -1.
<mgrwt>
<rscale>  0 0.27117898E+03</rscale>
<asrwt>0</asrwt>
<pdfrwt beam="1">  1        1 0.28954900E-01 0.27450379E+03</pdfrwt>
<pdfrwt beam="2">  1       -1 0.13559137E+00 0.27450379E+03</pdfrwt>
<totfact> 0.78258743E+01</totfact>
</mgrwt>
</event>
<event>
 8    1  0.1154424E-005  0.1489702E+03  0.7546771E-02  0.1210682E+00
         -2   -1    0    0    0  501 -0.00000000000E+00  0.00000000000E+00  0.61367072756E+03  0.61367072756E+03  0.00000000000E+00 0.  1.
          2   -1    0    0  501    0  0.00000000000E+00 -0.00000000000E+00 -0.41772005620E+02  0.41772005620E+02  0.00000000000E+00 0. -1.
         23    2    1    2    0    0 -0.75788437209E+02 -0.28685660752E+02  0.47820811155E+03  0.50087434149E+03  0.12500141464E+03 0.  0.
         23    2    1    2    0    0  0.75788437209E+02  0.28685660752E+02  0.93690610388E+02  0.15456839169E+03  0.92448379580E+02 0.  0.
          5    1    3    3  502    0 -0.80959948901E+02  0.28514846589E+02  0.34842819149E+03  0.35887589000E+03  0.47000000000E+01 0. -1.
         -5    1    3    3    0  502  0.51715116923E+01 -0.57200507341E+02  0.12977992006E+03  0.14199845149E+03  0.47000000000E+01 0. -1.
        -11    1    4    4    0    0  0.11136482571E+02  0.33599850791E+02 -0.57454045666E+01  0.35860575719E+02  0.00000000000E+00 0. -1.
         11    1    4    4    0    0  0.64651954638E+02 -0.49141900394E+01  0.99436014954E+02  0.11870781597E+03  0.00000000000E+00 0.  1.
<mgrwt>
<rscale>  0 0.14198581E+03</rscale>
<asrwt>0</asrwt>
<pdfrwt beam="2">  1        2 0.64264628E-02 0.14897016E+03</pdfrwt>
<pdfrwt beam="1">  1       -2 0.94410875E-01 0.14897016E+03</pdfrwt>
<totfact> 0.10793042E+03</totfact>
</mgrwt>
</event>
<event>
 8    1  0.1154424E-005  0.1746282E+03  0.7546771E-02  0.1179104E+00
          1   -1    0    0  501    0  0.00000000000E+00  0.00000000000E+00  0.40027077319E+03  0.40027077319E+03  0.00000000000E+00 0. -1.
         -1   -1    0    0    0  501 -0.00000000000E+00 -0.00000000000E+00 -0.68495119855E+02  0.68495119855E+02  0.00000000000E+00 0.  1.
         23    2    1    2    0    0 -0.90767904293E+02 -0.81434332300E+02  0.14029524602E+03  0.22400396878E+03  0.12499863617E+03 0.  0.
         23    2    1    2    0    0  0.90767904293E+02  0.81434332300E+02  0.19148040732E+03  0.24476192427E+03  0.91505684300E+02 0.  0.
          5    1    3    3  502    0 -0.48679211629E+02 -0.21764827441E+01 -0.89765169528E+01  0.49770177602E+02  0.47000000000E+01 0. -1.
         -5    1    3    3    0  502 -0.42088692664E+02 -0.79257849556E+02  0.14927176297E+03  0.17423379118E+03  0.47000000000E+01 0. -1.
        -11    1    4    4    0    0  0.35283118510E+02 -0.14651964973E+02  0.28791635809E+02  0.47838654056E+02  0.00000000000E+00 0.  1.
         11    1    4    4    0    0  0.55484785783E+02  0.96086297272E+02  0.16268877151E+03  0.19692327022E+03  0.00000000000E+00 0. -1.
<mgrwt>
<rscale>  0 0.16880057E+03</rscale>
<asrwt>0</asrwt>
<pdfrwt beam="1">  1        1 0.61580118E-01 0.17462824E+03</pdfrwt>
<pdfrwt beam="2">  1       -1 0.10537711E-01 0.17462824E+03</pdfrwt>
<totfact> 0.33323307E+03</totfact>
</mgrwt>
</event>
<event>
 8    1  0.1154424E-005  0.1362877E+03  0.7546771E-02  0.1228864E+00
         -2   -1    0    0    0  501 -0.00000000000E+00  0.00000000000E+00  0.98714543411E+02  0.98714543411E+02  0.00000000000E+00 0.  1.
          2   -1    0    0  501    0  0.00000000000E+00 -0.00000000000E+00 -0.22378181392E+03  0.22378181392E+03  0.00000000000E+00 0. -1.
         23    2    1    2    0    0 -0.38463804816E+02  0.38161329875E+02  0.23077920746E+02  0.13822785748E+03  0.12505438328E+03 0.  0.
         23    2    1    2    0    0  0.38463804816E+02 -0.38161329875E+02 -0.14814519125E+03  0.18426849985E+03  0.95247734708E+02 0.  0.
          5    1    3    3  502    0 -0.27629843058E+02 -0.44360234570E+02  0.34467611056E+01  0.52585252692E+02  0.47000000000E+01 0. -1.
         -5    1    3    3    0  502 -0.10833961758E+02  0.82521564445E+02  0.19631159641E+02  0.85642604786E+02  0.47000000000E+01 0. -1.
        -11    1    4    4    0    0  0.14321229956E+02 -0.55074863694E+02 -0.33805731465E+02  0.66190374816E+02  0.00000000000E+00 0.  1.
         11    1    4    4    0    0  0.24142574860E+02  0.16913533819E+02 -0.11433945979E+03  0.11807812503E+03  0.00000000000E+00 0. -1.
<mgrwt>
<rscale>  0 0.12905532E+03</rscale>
<asrwt>0</asrwt>
<pdfrwt beam="2">  1        2 0.34427971E-01 0.13628775E+03</pdfrwt>
<pdfrwt beam="1">  1       -2 0.15186853E-01 0.13628775E+03</pdfrwt>
<totfact> 0.48367765E+03</totfact>
</mgrwt>
</event>
<event>
 8    1  0.1154424E-005  0.2388588E+03  0.7546771E-02  0.1123316E+00
          1   -1    0    0  501    0  0.00000000000E+00  0.00000000000E+00  0.94576022673E+03  0.94576022673E+03  0.00000000000E+00 0. -1.
         -1   -1    0    0    0  501 -0.00000000000E+00 -0.00000000000E+00 -0.56837923907E+02  0.56837923907E+02  0.00000000000E+00 0.  1.
         23    2    1    2    0    0  0.26892270470E+02 -0.20177367038E+03  0.41470070016E+03  0.47857100540E+03  0.12497090953E+03 0.  0.
         23    2    1    2    0    0 -0.26892270470E+02  0.20177367038E+03  0.47422160266E+03  0.52402714523E+03  0.91008308612E+02 0.  0.
          5    1    3    3  502    0  0.14276488406E+02 -0.82865691780E+02  0.57805033069E+02  0.10214721163E+03  0.47000000000E+01 0.  1.
         -5    1    3    3    0  502  0.12615782064E+02 -0.11890797860E+03  0.35689566709E+03  0.37642379377E+03  0.47000000000E+01 0.  1.
        -11    1    4    4    0    0 -0.26794358425E+02  0.48268631259E+02  0.56503134298E+02  0.78996218850E+02  0.00000000000E+00 0.  1.
         11    1    4    4    0    0 -0.97912044404E-01  0.15350503913E+03  0.41771846837E+03  0.44503092638E+03  0.00000000000E+00 0. -1.
<mgrwt>
<rscale>  0 0.23478509E+03</rscale>
<asrwt>0</asrwt>
<pdfrwt beam="1">  1        1 0.14550156E+00 0.23885882E+03</pdfrwt>
<pdfrwt beam="2">  1       -1 0.87442966E-02 0.23885882E+03</pdfrwt>
<totfact> 0.13211967E+03</totfact>
</mgrwt>
</event>
<event>
 7    1  0.1154424E-005  0.1392937E+03  0.7546771E-02  0.1231724E+00
          2   -1    0    0  501    0  0.00000000000E+00  0.00000000000E+00  0.16454238238E+03  0.16454238238E+03  0.00000000000E+00 0. -1.
         -2   -1    0    0    0  501 -0.00000000000E+00 -0.00000000000E+00 -0.98801325712E+02  0.98801325712E+02  0.00000000000E+00 0.  1.
         23    2    1    2    0    0  0.28649095037E+02 -0.20109795852E+02  0.76915249348E+02  0.12360256482E+03  0.90202349809E+02 0.  0.
          5    1    1    2  502    0 -0.52673849736E+02 -0.40679698965E+02  0.16299955729E+02  0.68681517970E+02  0.47000000000E+01 0. -1.
         -5    1    1    2    0  502  0.24024754699E+02  0.60789494818E+02 -0.27474148405E+02  0.71059625310E+02  0.47000000000E+01 0.  1.
        -11    1    3    3    0    0  0.59185547549E+02 -0.27483308909E+02  0.54339149813E+02  0.84917633679E+02  0.00000000000E+00 0.  1.
         11    1    3    3    0    0 -0.30536452512E+02  0.73735130566E+01  0.22576099535E+02  0.38684931136E+02  0.00000000000E+00 0. -1.
<mgrwt>
<rscale>  0 0.12716497E+03</rscale>
<asrwt>0</asrwt>
<pdfrwt beam="1">  1        2 0.25314213E-01 0.13929366E+03</pdfrwt>
<pdfrwt beam="2">  1       -2 0.15200204E-01 0.13929366E+03</pdfrwt>
<totfact> 0.67538068E+03</totfact>
</mgrwt>
</event>
<event>
 7    1  0.1154424E-005  0.1689256E+03  0.7546771E-02  0.1193989E+00
         -2   -1    0    0    0  501 -0.00000000000E+00  0.00000000000E+00  0.34561821637E+03  0.34561821637E+03  0.00000000000E+00 0.  1.
          2   -1    0    0  501    0  0.00000000000E+00 -0.00000000000E+00 -0.76840346925E+02  0.76840346925E+02  0.00000000000E+00 0. -1.
         23    2    1    2    0    0  0.23042981113E+02 -0.77420734927E+02  0.21332603046E+02  0.12285044214E+03  0.90067763410E+02 0.  0.
          5    1    1    2  502    0  0.52567844113E+02 -0.24298131698E+01  0.45996774672E+02  0.70050521104E+02  0.47000000000E+01 0. -1.
         -5    1    1    2    0  502 -0.75610825226E+02  0.79850548097E+02  0.20144849173E+03  0.22955760005E+03  0.47000000000E+01 0.  1.
        -11    1    3    3    0    0  0.20743654219E+02  0.17782187057E+01 -0.23835399474E+02  0.31647867546E+02  0.00000000000E+00 0.  1.
         11    1    3    3    0    0  0.22993268946E+01 -0.79198953633E+02  0.45168002520E+02  0.91202574593E+02  0.00000000000E+00 0. -1.
<mgrwt>
<rscale>  0 0.15540097E+03</rscale>
<asrwt>0</asrwt>
<pdfrwt beam="2">  1        2 0.11821592E-01 0.16892562E+03</pdfrwt>
<pdfrwt beam="1">  1       -2 0.53172032E-01 0.16892562E+03</pdfrwt>
<totfact> 0.17289470E+03</totfact>
</mgrwt>
</event>
<event>
 8    1  0.1154424E-005  0.1257691E+03  0.7546771E-02  0.1246802E+00
         -2   -1    0    0    0  501 -0.00000000000E+00  0.00000000000E+00  0.12342125285E+02  0.12342125285E+02  0.00000000000E+00 0.  1.
          2   -1    0    0  501    0  0.00000000000E+00 -0.00000000000E+00 -0.10176868216E+04  0.10176868216E+04  0.00000000000E+00 0. -1.
         23    2    1    2    0    0  0.10619997536E+02 -0.88885506283E+01 -0.50563702363E+03  0.52104383092E+03  0.12500433352E+03 0.  0.
         23    2    1    2    0    0 -0.10619997536E+02  0.88885506283E+01 -0.49970767273E+03  0.50898511601E+03  0.95740793033E+02 0.  0.
          5    1    3    3  502    0 -0.52031430094E+02  0.20469980554E+02 -0.20808846337E+03  0.21552073777E+03  0.47000000000E+01 0.  1.
         -5    1    3    3    0  502  0.62651427630E+02 -0.29358531182E+02 -0.29754856026E+03  0.30552309315E+03  0.47000000000E+01 0.  1.
        -11    1    4    4    0    0  0.42220163389E+02  0.10109390835E+02 -0.25050792118E+03  0.25424193311E+03  0.00000000000E+00 0.  1.
         11    1    4    4    0    0 -0.52840160925E+02 -0.12208402071E+01 -0.24919975156E+03  0.25474318290E+03  0.00000000000E+00 0. -1.
<mgrwt>
<rscale>  0 0.11778201E+03</rscale>
<asrwt>0</asrwt>
<pdfrwt beam="2">  1        2 0.15656718E+00 0.12576913E+03</pdfrwt>
<pdfrwt beam="1">  1       -2 0.18987887E-02 0.12576913E+03</pdfrwt>
<totfact> 0.20267722E+04</totfact>
</mgrwt>
</event>
<event>
 8    1  0.1154424E-005  0.1369632E+03  0.7546771E-02  0.1234877E+00
         -2   -1    0    0    0  501 -0.00000000000E+00  0.00000000000E+00  0.32229880578E+02  0.32229880578E+02  0.00000000000E+00 0.  1.
          2   -1    0    0  501    0  0.00000000000E+00 -0.00000000000E+00 -0.47592003559E+03  0.47592003559E+03  0.00000000000E+00 0. -1.
         23    2    1    2    0    0  0.53640487767E+02  0.16001536204E+02 -0.16999345937E+03  0.21830411950E+03  0.12500224507E+03 0.  0.
         23    2    1    2    0    0 -0.53640487767E+02 -0.16001536204E+02 -0.27369669564E+03  0.28984579667E+03  0.77248647588E+02 0.  0.
          5    1    3    3  502    0  0.32338036985E+02  0.70796766821E+02 -0.98136738771E+02  0.12534289100E+03  0.47000000000E+01 0. -1.
         -5    1    3    3    0  502  0.21302450782E+02 -0.54795230617E+02 -0.71856720602E+02  0.92961228495E+02  0.47000000000E+01 0. -1.
        -11    1    4    4    0    0 -0.13319748147E+02 -0.40739068252E+02 -0.17810722335E+03  0.18319189497E+03  0.00000000000E+00 0.  1.
         11    1    4    4    0    0 -0.40320739621E+02  0.24737532048E+02 -0.95589472287E+02  0.10665390170E+03  0.00000000000E+00 0. -1.
<mgrwt>
<rscale>  0 0.12512303E+03</rscale>
<asrwt>0</asrwt>
<pdfrwt beam="2">  1        2 0.73218461E-01 0.13696318E+03</pdfrwt>
<pdfrwt beam="1">  1       -2 0.49584436E-02 0.13696318E+03</pdfrwt>
<totfact> 0.12381675E+04</totfact>
</mgrwt>
</event>
<event>
 8    1  0.1154424E-005  0.1648722E+03  0.7546771E-02  0.1191246E+00
          1   -1    0    0  501    0  0.00000000000E+00  0.00000000000E+00  0.78609141976E+03  0.78609141976E+03  0.00000000000E+00 0. -1.
         -1   -1    0    0    0  501 -0.00000000000E+00 -0.00000000000E+00 -0.35973426044E+02  0.35973426044E+02  0.00000000000E+00 0.  1.
         23    2    1    2    0    0  0.63471935801E+02 -0.86782535015E+02  0.22425776687E+03  0.27834221260E+03  0.12499178493E+03 0.  0.
         23    2    1    2    0    0 -0.63471935801E+02  0.86782535015E+02  0.52586022685E+03  0.54372263320E+03  0.86864426871E+02 0.  0.
          5    1    3    3  502    0  0.38460252682E+02  0.14088600860E+02  0.13536551777E+03  0.14150474590E+03  0.47000000000E+01 0.  1.
         -5    1    3    3    0  502  0.25011683119E+02 -0.10087113587E+03  0.88892249100E+02  0.13683746671E+03  0.47000000000E+01 0.  1.
        -11    1    4    4    0    0 -0.10286640612E+02  0.84326562028E+02  0.31787487532E+03  0.32903072866E+03  0.00000000000E+00 0.  1.
         11    1    4    4    0    0 -0.53185295189E+02  0.24559729871E+01  0.20798535153E+03  0.21469190455E+03  0.00000000000E+00 0. -1.
<mgrwt>
<rscale>  0 0.15776290E+03</rscale>
<asrwt>0</asrwt>
<pdfrwt beam="1">  1        1 0.12093713E+00 0.16487220E+03</pdfrwt>
<pdfrwt beam="2">  1       -1 0.55343739E-02 0.16487220E+03</pdfrwt>
<totfact> 0.35180768E+03</totfact>
</mgrwt>
</event>
<event>
 8    1  0.1154424E-005  0.1575753E+03  0.7546771E-02  0.1199574E+00
          1   -1    0    0  501    0  0.00000000000E+00  0.00000000000E+00  0.12579568910E+03  0.12579568910E+03  0.00000000000E+00 0. -1.
         -1   -1    0    0    0  501 -0.00000000000E+00 -0.00000000000E+00 -0.16987259141E+03  0.16987259141E+03  0.00000000000E+00 0.  1.
         23    2    1    2    0    0 -0.57449781139E+02 -0.76682590875E+02 -0.44455033664E+02  0.16372601941E+03  0.12509701163E+03 0.  0.
         23    2    1    2    0    0  0.57449781139E+02  0.76682590875E+02  0.37813135774E+00  0.13194226110E+03  0.90707883808E+02 0.  0.
          5    1    3    3  502    0 -0.85925875837E+02 -0.50559834549E+02 -0.65590137713E+02  0.11943077147E+03  0.47000000000E+01 0. -1.
         -5    1    3    3    0  502  0.28476094697E+02 -0.26122756326E+02  0.21135104049E+02  0.44295247944E+02  0.47000000000E+01 0. -1.
        -11    1    4    4    0    0  0.57878215471E+01  0.48310114760E+02 -0.37889876518E+02  0.61668539864E+02  0.00000000000E+00 0.  1.
         11    1    4    4    0    0  0.51661959592E+02  0.28372476115E+02  0.38268007876E+02  0.70273721238E+02  0.00000000000E+00 0. -1.
<mgrwt>
<rscale>  0 0.15073411E+03</rscale>
<asrwt>0</asrwt>
<pdfrwt beam="1">  1        1 0.19353183E-01 0.15757525E+03</pdfrwt>
<pdfrwt beam="2">  1       -1 0.26134245E-01 0.15757525E+03</pdfrwt>
<totfact> 0.33439144E+03</totfact>
</mgrwt>
</event>
<event>
 8    1  0.1154424E-005  0.1153424E+03  0.7546771E-02  0.1268901E+00
         -1   -1    0    0    0  501 -0.00000000000E+00  0.00000000000E+00  0.24838303467E+03  0.24838303467E+03  0.00000000000E+00 0.  1.
          1   -1    0    0  501    0  0.00000000000E+00 -0.00000000000E+00 -0.38845820882E+02  0.38845820882E+02  0.00000000000E+00 0. -1.
         23    2    1    2    0    0  0.55539759105E+00 -0.20442376113E+01  0.12161520542E+03  0.16761300957E+03  0.11532291799E+03 0.  0.
         23    2    1    2    0    0 -0.55539759105E+00  0.20442376113E+01  0.87922008368E+02  0.11961584598E+03  0.81075173019E+02 0.  0.
          5    1    3    3  502    0 -0.39005904170E+02  0.34043666431E+02  0.26479268632E+02  0.58341010032E+02  0.47000000000E+01 0. -1.
         -5    1    3    3    0  502  0.39561301761E+02 -0.36087904042E+02  0.95135936787E+02  0.10927199954E+03  0.47000000000E+01 0.  1.
        -11    1    4    4    0    0 -0.38204016493E+02 -0.59359202686E+01  0.25602858860E+02  0.46371202350E+02  0.00000000000E+00 0. -1.
         11    1    4    4    0    0  0.37648618902E+02  0.79801578799E+01  0.62319149508E+02  0.73244643630E+02  0.00000000000E+00 0.  1.
<mgrwt>
<rscale>  0 0.10562110E+03</rscale>
<asrwt>0</asrwt>
<pdfrwt beam="2">  1        1 0.59762803E-02 0.11534237E+03</pdfrwt>
<pdfrwt beam="1">  1       -1 0.38212774E-01 0.11534237E+03</pdfrwt>
<totfact> 0.81066579E+03</totfact>
</mgrwt>
</event>
<event>
 8    1  0.1154424E-005  0.1938871E+03  0.7546771E-02  0.1160249E+00
          2   -1    0    0  501    0  0.00000000000E+00  0.00000000000E+00  0.21474087009E+03  0.21474087009E+03  0.00000000000E+00 0. -1.
         -2   -1    0    0    0  501 -0.00000000000E+00 -0.00000000000E+00 -0.33362344869E+03  0.33362344869E+03  0.00000000000E+00 0.  1.
         23    2    1    2    0    0  0.14820006994E+03 -0.19854538903E+01 -0.26134168057E+03  0.32541002052E+03  0.12500001876E+03 0.  0.
         23    2    1    2    0    0 -0.14820006994E+03  0.19854538903E+01  0.14245910197E+03  0.22295429827E+03  0.86294962930E+02 0.  0.
          5    1    3    3  502    0  0.72824869441E+02 -0.59828511931E+02 -0.95731350491E+02  0.13442281769E+03  0.47000000000E+01 0. -1.
         -5    1    3    3    0  502  0.75375200497E+02  0.57843058040E+02 -0.16561033008E+03  0.19098720283E+03  0.47000000000E+01 0. -1.
        -11    1    4    4    0    0 -0.12544814453E+03  0.30732685920E+02  0.13234339663E+03  0.18492298284E+03  0.00000000000E+00 0. -1.
         11    1    4    4    0    0 -0.22751925406E+02 -0.28747232029E+02  0.10115705339E+02  0.38031315433E+02  0.00000000000E+00 0.  1.
<mgrwt>
<rscale>  0 0.18803166E+03</rscale>
<asrwt>0</asrwt>
<pdfrwt beam="1">  1        2 0.33037057E-01 0.19388710E+03</pdfrwt>
<pdfrwt beam="2">  1       -2 0.51326684E-01 0.19388710E+03</pdfrwt>
<totfact> 0.57472902E+02</totfact>
</mgrwt>
</event>
<event>
 7    1  0.1154424E-005  0.1394646E+03  0.7546771E-02  0.1232936E+00
         -1   -1    0    0    0  501 -0.00000000000E+00  0.00000000000E+00  0.27444544914E+03  0.27444544914E+03  0.00000000000E+00 0.  1.
          1   -1    0    0  501    0  0.00000000000E+00 -0.00000000000E+00 -0.68894763432E+02  0.68894763432E+02  0.00000000000E+00 0. -1.
         23    2    1    2    0    0  0.13194628651E+02 -0.18320916593E+02 -0.10970335541E+01  0.94033892459E+02  0.91276586474E+02 0.  0.
          5    1    1    2  502    0  0.33329689940E+02 -0.15146356283E+02  0.22555344554E+01  0.36979153260E+02  0.47000000000E+01 0. -1.
         -5    1    1    2    0  502 -0.46524318591E+02  0.33467272875E+02  0.20439218481E+03  0.21232716686E+03  0.47000000000E+01 0.  1.
        -11    1    3    3    0    0 -0.35774086404E+02 -0.23874315623E+02 -0.94854059653E+01  0.44042492332E+02  0.00000000000E+00 0.  1.
         11    1    3    3    0    0  0.48968715055E+02  0.55533990301E+01  0.83883724112E+01  0.49991400127E+02  0.00000000000E+00 0. -1.
<mgrwt>
<rscale>  0 0.12637512E+03</rscale>
<asrwt>0</asrwt>
<pdfrwt beam="2">  1        1 0.10599195E-01 0.13946455E+03</pdfrwt>
<pdfrwt beam="1">  1       -1 0.42222376E-01 0.13946455E+03</pdfrwt>
<totfact> 0.32039004E+03</totfact>
</mgrwt>
</event>
<event>
 8    1  0.1154424E-005  0.1638802E+03  0.7546771E-02  0.1192380E+00
         -2   -1    0    0    0  501 -0.00000000000E+00  0.00000000000E+00  0.37536035369E+02  0.37536035369E+02  0.00000000000E+00 0.  1.
          2   -1    0    0  501    0  0.00000000000E+00 -0.00000000000E+00 -0.62311270016E+03  0.62311270016E+03  0.00000000000E+00 0. -1.
         23    2    1    2    0    0 -0.73285870925E+02 -0.76557669453E+02 -0.26029800782E+03  0.30759026408E+03  0.12499928820E+03 0.  0.
         23    2    1    2    0    0  0.73285870925E+02  0.76557669453E+02 -0.32527865697E+03  0.35305847145E+03  0.87247830663E+02 0.  0.
          5    1    3    3  502    0 -0.87219262095E+02 -0.21917601705E+02 -0.86711821449E+02  0.12501444286E+03  0.47000000000E+01 0. -1.
         -5    1    3    3    0  502  0.13933391171E+02 -0.54640067748E+02 -0.17358618637E+03  0.18257582121E+03  0.47000000000E+01 0. -1.
        -11    1    4    4    0    0  0.65983713577E+02  0.95653323463E+02 -0.26351759937E+03  0.28800162139E+03  0.00000000000E+00 0.  1.
         11    1    4    4    0    0  0.73021573477E+01 -0.19095654009E+02 -0.61761057603E+02  0.65056850063E+02  0.00000000000E+00 0. -1.
<mgrwt>
<rscale>  0 0.15678038E+03</rscale>
<asrwt>0</asrwt>
<pdfrwt beam="2">  1        2 0.95863492E-01 0.16388019E+03</pdfrwt>
<pdfrwt beam="1">  1       -2 0.57747747E-02 0.16388019E+03</pdfrwt>
<totfact> 0.73565432E+03</totfact>
</mgrwt>
</event>
<event>
 8    1  0.1154424E-005  0.1276461E+03  0.7546771E-02  0.1243754E+00
         -2   -1    0    0    0  501 -0.00000000000E+00  0.00000000000E+00  0.16710362687E+03  0.16710362687E+03  0.00000000000E+00 0.  1.
          2   -1    0    0  501    0  0.00000000000E+00 -0.00000000000E+00 -0.76448226881E+02  0.76448226881E+02  0.00000000000E+00 0. -1.
         23    2    1    2    0    0  0.13326628800E+02  0.34254750318E+02  0.49727709589E+02  0.13699037066E+03  0.12223964004E+03 0.  0.
         23    2    1    2    0    0 -0.13326628800E+02 -0.34254750318E+02  0.40927690400E+02  0.10656148309E+03  0.91264926904E+02 0.  0.
          5    1    3    3  502    0  0.48164347473E+01  0.26969017497E+02 -0.38746743088E+02  0.47685700670E+02  0.47000000000E+01 0. -1.
         -5    1    3    3    0  502  0.85101940531E+01  0.72857328206E+01  0.88474452677E+02  0.89304669990E+02  0.47000000000E+01 0.  1.
        -11    1    4    4    0    0 -0.37235929663E+02 -0.46030696594E+02  0.18178288778E+01  0.59233807818E+02  0.00000000000E+00 0. -1.
         11    1    4    4    0    0  0.23909300863E+02  0.11775946277E+02  0.39109861523E+02  0.47327675273E+02  0.00000000000E+00 0.  1.
<mgrwt>
<rscale>  0 0.11960285E+03</rscale>
<asrwt>0</asrwt>
<pdfrwt beam="2">  1        2 0.11761266E-01 0.12764606E+03</pdfrwt>
<pdfrwt beam="1">  1       -2 0.25708250E-01 0.12764606E+03</pdfrwt>
<totfact> 0.66708678E+03</totfact>
</mgrwt>
</event>
<event>
 8    1  0.1154424E-005  0.1463279E+03  0.7546771E-02  0.1215506E+00
         -2   -1    0    0    0  501 -0.00000000000E+00  0.00000000000E+00  0.57626669655E+02  0.57626669655E+02  0.00000000000E+00 0.  1.
          2   -1    0    0  501    0  0.00000000000E+00 -0.00000000000E+00 -0.31772451506E+03  0.31772451506E+03  0.00000000000E+00 0. -1.
         23    2    1    2    0    0 -0.55606974401E+02  0.51959923051E+02 -0.10093500822E+03  0.17776314683E+03  0.12497956345E+03 0.  0.
         23    2    1    2    0    0  0.55606974401E+02 -0.51959923051E+02 -0.15916283718E+03  0.19758803788E+03  0.88973337408E+02 0.  0.
          5    1    3    3  502    0 -0.86180817869E+02  0.46563918119E+02 -0.10768208735E+03  0.14564633114E+03  0.47000000000E+01 0. -1.
         -5    1    3    3    0  502  0.30573843468E+02  0.53960049318E+01  0.67470791218E+01  0.32116815694E+02  0.47000000000E+01 0. -1.
        -11    1    4    4    0    0  0.79936838503E+02 -0.45185220138E+02 -0.12539877370E+03  0.15542346899E+03  0.00000000000E+00 0.  1.
         11    1    4    4    0    0 -0.24329864103E+02 -0.67747029125E+01 -0.33764063484E+02  0.42164568891E+02  0.00000000000E+00 0. -1.
<mgrwt>
<rscale>  0 0.13839425E+03</rscale>
<asrwt>0</asrwt>
<pdfrwt beam="2">  1        2 0.48880695E-01 0.14632792E+03</pdfrwt>
<pdfrwt beam="1">  1       -2 0.88656414E-02 0.14632792E+03</pdfrwt>
<totfact> 0.78922678E+03</totfact>
</mgrwt>
</event>
<event>
 8    1  0.1154424E-005  0.1282822E+03  0.7546771E-02  0.1243120E+00
          1   -1    0    0  501    0  0.00000000000E+00  0.00000000000E+00  0.14666430112E+02  0.14666430112E+02  0.00000000000E+00 0. -1.
         -1   -1    0    0    0  501 -0.00000000000E+00 -0.00000000000E+00 -0.90576670554E+03  0.90576670554E+03  0.00000000000E+00 0.  1.
         23    2    1    2    0    0  0.27657307045E+02  0.81529295819E+01 -0.58789393619E+03  0.60172718542E+03  0.12499971428E+03 0.  0.
         23    2    1    2    0    0 -0.27657307045E+02 -0.81529295819E+01 -0.30320633924E+03  0.31870595023E+03  0.93850954523E+02 0.  0.
          5    1    3    3  502    0  0.13925006207E+02 -0.29209803371E+01 -0.15111412205E+01  0.15060261345E+02  0.47000000000E+01 0. -1.
         -5    1    3    3    0  502  0.13732300838E+02  0.11073909919E+02 -0.58638279497E+03  0.58666692408E+03  0.47000000000E+01 0. -1.
        -11    1    4    4    0    0 -0.32791400446E+02  0.27967270415E+02 -0.25299583156E+03  0.25664047799E+03  0.00000000000E+00 0.  1.
         11    1    4    4    0    0  0.51340934004E+01 -0.36120199997E+02 -0.50210507677E+02  0.62065472237E+02  0.00000000000E+00 0. -1.
<mgrwt>
<rscale>  0 0.11998614E+03</rscale>
<asrwt>0</asrwt>
<pdfrwt beam="1">  1        1 0.22563731E-02 0.12828221E+03</pdfrwt>
<pdfrwt beam="2">  1       -1 0.13934877E+00 0.12828221E+03</pdfrwt>
<totfact> 0.22502872E+03</totfact>
</mgrwt>
</event>
<event>
 8    1  0.1154424E-005  0.2111687E+03  0.7546771E-02  0.1146238E+00
         -3   -1    0    0    0  501 -0.00000000000E+00  0.00000000000E+00  0.38448024863E+03  0.38448024863E+03  0.00000000000E+00 0.  1.
          3   -1    0    0  501    0  0.00000000000E+00 -0.00000000000E+00 -0.10371275930E+03  0.10371275930E+03  0.00000000000E+00 0. -1.
         23    2    1    2    0    0 -0.17014283246E+03 -0.43981827630E+01  0.18198591874E+03  0.27876706297E+03  0.12499709329E+03 0.  0.
         23    2    1    2    0    0  0.17014283246E+03  0.43981827630E+01  0.98781570593E+02  0.20942594496E+03  0.71648449277E+02 0.  0.
          5    1    3    3  502    0 -0.58186930702E+02  0.53451514223E+02  0.10325516514E+03  0.13010189240E+03  0.47000000000E+01 0.  1.
         -5    1    3    3    0  502 -0.11195590176E+03 -0.57849696986E+02  0.78730753598E+02  0.14866517058E+03  0.47000000000E+01 0.  1.
        -11    1    4    4    0    0  0.12870503043E+03 -0.21269924565E+02  0.93285868935E+02  0.16037346380E+03  0.00000000000E+00 0.  1.
         11    1    4    4    0    0  0.41437802034E+02  0.25668107328E+02  0.54957016582E+01  0.49052481160E+02  0.00000000000E+00 0. -1.
<mgrwt>
<rscale>  0 0.20420608E+03</rscale>
<asrwt>0</asrwt>
<pdfrwt beam="2">  1        3 0.15955809E-01 0.21116865E+03</pdfrwt>
<pdfrwt beam="1">  1       -3 0.59150807E-01 0.21116865E+03</pdfrwt>
<totfact> 0.23225215E+02</totfact>
</mgrwt>
</event>
<event>
 8    1  0.1154424E-005  0.1262064E+03  0.7546771E-02  0.1247993E+00
          2   -1    0    0  501    0  0.00000000000E+00  0.00000000000E+00  0.24376879693E+03  0.24376879693E+03  0.00000000000E+00 0. -1.
         -2   -1    0    0    0  501 -0.00000000000E+00 -0.00000000000E+00 -0.50777934234E+02  0.50777934234E+02  0.00000000000E+00 0.  1.
         23    2    1    2    0    0 -0.67101392944E+01 -0.16085973949E+02  0.87338774155E+02  0.15347998604E+03  0.12499704044E+03 0.  0.
         23    2    1    2    0    0  0.67101392944E+01  0.16085973949E+02  0.10565208854E+03  0.14106674512E+03  0.91835059961E+02 0.  0.
          5    1    3    3  502    0  0.40076155901E+02 -0.87043939215E+01 -0.12286202300E+02  0.43068614005E+02  0.47000000000E+01 0. -1.
         -5    1    3    3    0  502 -0.46786295196E+02 -0.73815800273E+01  0.99624976455E+02  0.11041137204E+03  0.47000000000E+01 0. -1.
        -11    1    4    4    0    0  0.56721628826E+01  0.46765378262E+02  0.99029986764E+02  0.10966363260E+03  0.00000000000E+00 0. -1.
         11    1    4    4    0    0  0.10379764118E+01 -0.30679404313E+02  0.66221017745E+01  0.31403112520E+02  0.00000000000E+00 0.  1.
<mgrwt>
<rscale>  0 0.11708037E+03</rscale>
<asrwt>0</asrwt>
<pdfrwt beam="1">  1        2 0.37502891E-01 0.12620636E+03</pdfrwt>
<pdfrwt beam="2">  1       -2 0.78119900E-02 0.12620636E+03</pdfrwt>
<totfact> 0.12578122E+04</totfact>
</mgrwt>
</event>
<event>
 8    1  0.1154424E-005  0.1403746E+03  0.7546771E-02  0.1223838E+00
         -2   -1    0    0    0  501 -0.00000000000E+00  0.00000000000E+00  0.14904006386E+02  0.14904006386E+02  0.00000000000E+00 0.  1.
          2   -1    0    0  501    0  0.00000000000E+00 -0.00000000000E+00 -0.10652823887E+04  0.10652823887E+04  0.00000000000E+00 0. -1.
         23    2    1    2    0    0 -0.30288072119E+02  0.56268665010E+02 -0.55909371465E+03  0.57644670743E+03  0.12498597831E+03 0.  0.
         23    2    1    2    0    0  0.30288072119E+02 -0.56268665010E+02 -0.49128466763E+03  0.50373968762E+03  0.91156559054E+02 0.  0.
          5    1    3    3  502    0 -0.16110557428E+02 -0.35566853826E+02 -0.26731537364E+03  0.27019280178E+03  0.47000000000E+01 0.  1.
         -5    1    3    3    0  502 -0.14177514691E+02  0.91835518836E+02 -0.29177834101E+03  0.30625390565E+03  0.47000000000E+01 0.  1.
        -11    1    4    4    0    0 -0.28057839027E+02 -0.20772406655E+02 -0.87273965333E+02  0.93997235247E+02  0.00000000000E+00 0.  1.
         11    1    4    4    0    0  0.58345911146E+02 -0.35496258355E+02 -0.40401070230E+03  0.40974245237E+03  0.00000000000E+00 0. -1.
<mgrwt>
<rscale>  0 0.13246881E+03</rscale>
<asrwt>0</asrwt>
<pdfrwt beam="2">  1        2 0.16388961E+00 0.14037459E+03</pdfrwt>
<pdfrwt beam="1">  1       -2 0.22929239E-02 0.14037459E+03</pdfrwt>
<totfact> 0.14561380E+04</totfact>
</mgrwt>
</event>
<event>
 8    1  0.1154424E-005  0.1369391E+03  0.7546771E-02  0.1230694E+00
          3   -1    0    0  501    0  0.00000000000E+00  0.00000000000E+00  0.97771238498E+02  0.97771238498E+02  0.00000000000E+00 0. -1.
         -3   -1    0    0    0  501 -0.00000000000E+00 -0.00000000000E+00 -0.14994100845E+03  0.14994100845E+03  0.00000000000E+00 0.  1.
         23    2    1    2    0    0 -0.55071227769E+02  0.97991410576E+01 -0.41812968425E+02  0.14318041852E+03  0.12499377835E+03 0.  0.
         23    2    1    2    0    0  0.55071227769E+02 -0.97991410576E+01 -0.10356801524E+02  0.10453182843E+03  0.87697072486E+02 0.  0.
          5    1    3    3  502    0  0.22736748419E+02  0.38125105685E+02  0.95207890591E+01  0.45642292191E+02  0.47000000000E+01 0. -1.
         -5    1    3    3    0  502 -0.77807976188E+02 -0.28325964627E+02 -0.51333757484E+02  0.97538126330E+02  0.47000000000E+01 0. -1.
        -11    1    4    4    0    0  0.73252599632E+02 -0.26953335669E+02 -0.16797980204E+01  0.78072065286E+02  0.00000000000E+00 0. -1.
         11    1    4    4    0    0 -0.18181371863E+02  0.17154194611E+02 -0.86770035037E+01  0.26459763139E+02  0.00000000000E+00 0.  1.
<mgrwt>
<rscale>  0 0.12784158E+03</rscale>
<asrwt>0</asrwt>
<pdfrwt beam="1">  1        3 0.15041729E-01 0.13693907E+03</pdfrwt>
<pdfrwt beam="2">  1       -3 0.23067847E-01 0.13693907E+03</pdfrwt>
<totfact> 0.14779821E+03</totfact>
</mgrwt>
</event>
<event>
 8    1  0.1154424E-005  0.1303645E+03  0.7546771E-02  0.1240743E+00
          2   -1    0    0  501    0  0.00000000000E+00  0.00000000000E+00  0.49075057475E+02  0.49075057475E+02  0.00000000000E+00 0. -1.
         -2   -1    0    0    0  501 -0.00000000000E+00 -0.00000000000E+00 -0.34271085923E+03  0.34271085923E+03  0.00000000000E+00 0.  1.
         23    2    1    2    0    0  0.98589362865E+01  0.35662682578E+02 -0.25481229145E+03  0.28622402772E+03  0.12500345843E+03 0.  0.
         23    2    1    2    0    0 -0.98589362865E+01 -0.35662682578E+02 -0.38823510304E+02  0.10556188898E+03  0.90923164811E+02 0.  0.
          5    1    3    3  502    0  0.42108308097E+02  0.72505323767E+01 -0.19904493375E+02  0.47370441068E+02  0.47000000000E+01 0.  1.
         -5    1    3    3    0  502 -0.32249371810E+02  0.28412150202E+02 -0.23490779807E+03  0.23885358665E+03  0.47000000000E+01 0.  1.
        -11    1    4    4    0    0 -0.46275591680E+02 -0.27126864998E+02 -0.41851870736E+02  0.68035845508E+02  0.00000000000E+00 0.  1.
         11    1    4    4    0    0  0.36416655393E+02 -0.85358175806E+01  0.30283604314E+01  0.37526043472E+02  0.00000000000E+00 0. -1.
<mgrwt>
<rscale>  0 0.12143860E+03</rscale>
<asrwt>0</asrwt>
<pdfrwt beam="1">  1        2 0.75500086E-02 0.13036445E+03</pdfrwt>
<pdfrwt beam="2">  1       -2 0.52724749E-01 0.13036445E+03</pdfrwt>
<totfact> 0.30201865E+03</totfact>
</mgrwt>
</event>
<event>
 8    1  0.1154424E-005  0.1354555E+03  0.7546771E-02  0.1232444E+00
          3   -1    0    0  501    0  0.00000000000E+00  0.00000000000E+00  0.35318837711E+02  0.35318837711E+02  0.00000000000E+00 0. -1.
         -3   -1    0    0    0  501 -0.00000000000E+00 -0.00000000000E+00 -0.54337428232E+03  0.54337428232E+03  0.00000000000E+00 0.  1.
         23    2    1    2    0    0  0.53906034487E+01  0.51901534584E+02 -0.42436741501E+03  0.44546144512E+03  0.12500147307E+03 0.  0.
         23    2    1    2    0    0 -0.53906034487E+01 -0.51901534584E+02 -0.83688029603E+02  0.13323167491E+03  0.89577703721E+02 0.  0.
          5    1    3    3  502    0 -0.47795320488E+02  0.22954843853E+02 -0.32249312203E+03  0.32685657600E+03  0.47000000000E+01 0. -1.
         -5    1    3    3    0  502  0.53185923937E+02  0.28946690731E+02 -0.10187429298E+03  0.11860486912E+03  0.47000000000E+01 0. -1.
        -11    1    4    4    0    0 -0.43868923423E+02 -0.35878429666E+02 -0.26751118934E+02  0.62668704485E+02  0.00000000000E+00 0. -1.
         11    1    4    4    0    0  0.38478319975E+02 -0.16023104918E+02 -0.56936910668E+02  0.70562970429E+02  0.00000000000E+00 0.  1.
<mgrwt>
<rscale>  0 0.12669468E+03</rscale>
<asrwt>0</asrwt>
<pdfrwt beam="1">  1        3 0.54336675E-02 0.13545551E+03</pdfrwt>
<pdfrwt beam="2">  1       -3 0.83596041E-01 0.13545551E+03</pdfrwt>
<totfact> 0.62549731E+02</totfact>
</mgrwt>
</event>
<event>
 8    1  0.1154424E-005  0.1635538E+03  0.7546771E-02  0.1191556E+00
          2   -1    0    0  501    0  0.00000000000E+00  0.00000000000E+00  0.35513129366E+03  0.35513129366E+03  0.00000000000E+00 0. -1.
         -2   -1    0    0    0  501 -0.00000000000E+00 -0.00000000000E+00 -0.21727201428E+03  0.21727201428E+03  0.00000000000E+00 0.  1.
         23    2    1    2    0    0 -0.96610092299E+00  0.10547425257E+03 -0.16879891742E+03  0.23503811956E+03  0.12499636723E+03 0.  0.
         23    2    1    2    0    0  0.96610092299E+00 -0.10547425257E+03  0.30665819680E+03  0.33736518838E+03  0.93006824289E+02 0.  0.
          5    1    3    3  502    0 -0.43981462293E+02 -0.50955356182E+01 -0.39896373212E+02  0.59784145926E+02  0.47000000000E+01 0. -1.
         -5    1    3    3    0  502  0.43015361370E+02  0.11056978818E+03 -0.12890254420E+03  0.17525397364E+03  0.47000000000E+01 0. -1.
        -11    1    4    4    0    0 -0.71857847859E+01 -0.47154767580E+02  0.34395054567E+02  0.58806695088E+02  0.00000000000E+00 0.  1.
         11    1    4    4    0    0  0.81518857089E+01 -0.58319484987E+02  0.27226314223E+03  0.27855849329E+03  0.00000000000E+00 0. -1.
<mgrwt>
<rscale>  0 0.15749357E+03</rscale>
<asrwt>0</asrwt>
<pdfrwt beam="1">  1        2 0.54635583E-01 0.16355379E+03</pdfrwt>
<pdfrwt beam="2">  1       -2 0.33426464E-01 0.16355379E+03</pdfrwt>
<totfact> 0.76091671E+02</totfact>
</mgrwt>
</event>
<event>
 8    1  0.1154424E-005  0.1259758E+03  0.7546771E-02  0.1249258E+00
         -2   -1    0    0    0  501 -0.00000000000E+00  0.00000000000E+00  0.47938525279E+02  0.47938525279E+02  0.00000000000E+00 0.  1.
          2   -1    0    0  501    0  0.00000000000E+00 -0.00000000000E+00 -0.29762046527E+03  0.29762046527E+03  0.00000000000E+00 0. -1.
         23    2    1    2    0    0  0.79482633019E+01  0.13477436089E+02 -0.70643069054E+02  0.14443114807E+03  0.12500038862E+03 0.  0.
         23    2    1    2    0    0 -0.79482633019E+01 -0.13477436089E+02 -0.17903887093E+03  0.20112784247E+03  0.90292167658E+02 0.  0.
          5    1    3    3  502    0 -0.39201236092E+02  0.47113471731E+02 -0.58930054153E+02  0.85154315288E+02  0.47000000000E+01 0.  1.
         -5    1    3    3    0  502  0.47149499394E+02 -0.33636035641E+02 -0.11713014901E+02  0.59276832783E+02  0.47000000000E+01 0.  1.
        -11    1    4    4    0    0  0.24755305835E+02  0.62388197324E+01 -0.93381300483E+01  0.27183611082E+02  0.00000000000E+00 0.  1.
         11    1    4    4    0    0 -0.32703569137E+02 -0.19716255822E+02 -0.16970074089E+03  0.17394423139E+03  0.00000000000E+00 0. -1.
<mgrwt>
<rscale>  0 0.11634137E+03</rscale>
<asrwt>0</asrwt>
<pdfrwt beam="2">  1        2 0.45787764E-01 0.12597584E+03</pdfrwt>
<pdfrwt beam="1">  1       -2 0.73751578E-02 0.12597584E+03</pdfrwt>
<totfact> 0.11119923E+04</totfact>
</mgrwt>
</event>
<event>
 8    1  0.1154424E-005  0.1390340E+03  0.7546771E-02  0.1219893E+00
         -1   -1    0    0    0  501 -0.00000000000E+00  0.00000000000E+00  0.56471571673E+03  0.56471571673E+03  0.00000000000E+00 0.  1.
          1   -1    0    0  501    0  0.00000000000E+00 -0.00000000000E+00 -0.21980365823E+03  0.21980365823E+03  0.00000000000E+00 0. -1.
         23    2    1    2    0    0  0.65980870533E+02 -0.53329062619E+02  0.53752030405E+03  0.55521033638E+03  0.11014978965E+03 0.  0.
         23    2    1    2    0    0 -0.65980870533E+02  0.53329062619E+02 -0.19260824556E+03  0.22930903858E+03  0.91034250253E+02 0.  0.
          5    1    3    3  502    0  0.60584302724E+02 -0.71925860717E+02  0.25234469672E+03  0.26933941995E+03  0.47000000000E+01 0. -1.
         -5    1    3    3    0  502  0.53965678088E+01  0.18596798098E+02  0.28517560734E+03  0.28587091644E+03  0.47000000000E+01 0.  1.
        -11    1    4    4    0    0 -0.35498604624E+02  0.77688472087E+02 -0.13295934487E+03  0.15803112672E+03  0.00000000000E+00 0.  1.
         11    1    4    4    0    0 -0.30482265909E+02 -0.24359409467E+02 -0.59648900694E+02  0.71277911856E+02  0.00000000000E+00 0. -1.
<mgrwt>
<rscale>  0 0.13523170E+03</rscale>
<asrwt>0</asrwt>
<pdfrwt beam="2">  1        1 0.33815948E-01 0.13903395E+03</pdfrwt>
<pdfrwt beam="1">  1       -1 0.86879341E-01 0.13903395E+03</pdfrwt>
<totfact> 0.18274602E+02</totfact>
</mgrwt>
</event>
<event>
 8    1  0.1154424E-005  0.1355583E+03  0.7546771E-02  0.1229826E+00
         -2   -1    0    0    0  501 -0.00000000000E+00  0.00000000000E+00  0.18473409956E+02  0.18473409956E+02  0.00000000000E+00 0.  1.
          2   -1    0    0  501    0  0.00000000000E+00 -0.00000000000E+00 -0.81116722433E+03  0.81116722433E+03  0.00000000000E+00 0. -1.
         23    2    1    2    0    0  0.31653934385E+02  0.41698770788E+02 -0.45096706947E+03  0.47090056029E+03  0.12504111677E+03 0.  0.
         23    2    1    2    0    0 -0.31653934385E+02 -0.41698770788E+02 -0.34172674490E+03  0.35874007400E+03  0.95794120191E+02 0.  0.
          5    1    3    3  502    0  0.74382035247E+02  0.52486328286E+02 -0.29563634405E+03  0.30937103896E+03  0.47000000000E+01 0. -1.
         -5    1    3    3    0  502 -0.42728100861E+02 -0.10787557498E+02 -0.15533072542E+03  0.16152952132E+03  0.47000000000E+01 0. -1.
        -11    1    4    4    0    0 -0.92566378392E+01  0.14547413238E+02 -0.70446713031E+01  0.18626324645E+02  0.00000000000E+00 0.  1.
         11    1    4    4    0    0 -0.22397296546E+02 -0.56246184027E+02 -0.33468207360E+03  0.34011374935E+03  0.00000000000E+00 0. -1.
<mgrwt>
<rscale>  0 0.12841524E+03</rscale>
<asrwt>0</asrwt>
<pdfrwt beam="2">  1        2 0.12479493E+00 0.13555825E+03</pdfrwt>
<pdfrwt beam="1">  1       -2 0.28420636E-02 0.13555825E+03</pdfrwt>
<totfact> 0.15252152E+04</totfact>
</mgrwt>
</event>
<event>
 8    1  0.1154424E-005  0.1320480E+03  0.7546771E-02  0.1235162E+00
          2   -1    0    0  501    0  0.00000000000E+00  0.00000000000E+00  0.13231250344E+03  0.13231250344E+03  0.00000000000E+00 0. -1.
         -2   -1    0    0    0  501 -0.00000000000E+00 -0.00000000000E+00 -0.10775445283E+03  0.10775445283E+03  0.00000000000E+00 0.  1.
         23    2    1    2    0    0  0.31002638214E+02 -0.29144625167E+02  0.31194069592E+01  0.13208486165E+03  0.12500442882E+03 0.  0.
         23    2    1    2    0    0 -0.31002638214E+02  0.29144625167E+02  0.21438643647E+02  0.10798209462E+03  0.96901726321E+02 0.  0.
          5    1    3    3  502    0  0.21499730018E+02 -0.76442278114E+02 -0.13820357432E+02  0.80738792124E+02  0.47000000000E+01 0. -1.
         -5    1    3    3    0  502  0.95029081967E+01  0.47297652946E+02  0.16939764391E+02  0.51346069529E+02  0.47000000000E+01 0. -1.
        -11    1    4    4    0    0  0.32590209153E+00  0.60945398093E+02  0.16000829108E+02  0.63011699652E+02  0.00000000000E+00 0.  1.
         11    1    4    4    0    0 -0.31328540306E+02 -0.31800772925E+02  0.54378145388E+01  0.44970394965E+02  0.00000000000E+00 0. -1.
<mgrwt>
<rscale>  0 0.12494063E+03</rscale>
<asrwt>0</asrwt>
<pdfrwt beam="1">  1        2 0.20355770E-01 0.13204802E+03</pdfrwt>
<pdfrwt beam="2">  1       -2 0.16577608E-01 0.13204802E+03</pdfrwt>
<totfact> 0.74388513E+03</totfact>
</mgrwt>
</event>
<event>
 8    1  0.1154424E-005  0.1678983E+03  0.7546771E-02  0.1186523E+00
          3   -1    0    0  501    0  0.00000000000E+00  0.00000000000E+00  0.66851818003E+02  0.66851818003E+02  0.00000000000E+00 0. -1.
         -3   -1    0    0    0  501 -0.00000000000E+00 -0.00000000000E+00 -0.47403121741E+03  0.47403121741E+03  0.00000000000E+00 0.  1.
         23    2    1    2    0    0 -0.44128401739E+02 -0.10304353049E+03 -0.34329200606E+03  0.38215082511E+03  0.12499826676E+03 0.  0.
         23    2    1    2    0    0  0.44128401739E+02  0.10304353049E+03 -0.63887393345E+02  0.15873221030E+03  0.92460967666E+02 0.  0.
          5    1    3    3  502    0 -0.52726396490E+02  0.94253961789E+01 -0.13329795758E+03  0.14373359550E+03  0.47000000000E+01 0. -1.
         -5    1    3    3    0  502  0.85979947518E+01 -0.11246892667E+03 -0.20999404848E+03  0.23841722961E+03  0.47000000000E+01 0. -1.
        -11    1    4    4    0    0  0.72355864314E+01  0.40210210861E+02 -0.74629510833E+02  0.85081012310E+02  0.00000000000E+00 0.  1.
         11    1    4    4    0    0  0.36892815307E+02  0.62833319629E+02  0.10742117488E+02  0.73651197988E+02  0.00000000000E+00 0. -1.
<mgrwt>
<rscale>  0 0.16194104E+03</rscale>
<asrwt>0</asrwt>
<pdfrwt beam="1">  1        3 0.10284895E-01 0.16789834E+03</pdfrwt>
<pdfrwt beam="2">  1       -3 0.72927881E-01 0.16789834E+03</pdfrwt>
<totfact> 0.30698443E+02</totfact>
</mgrwt>
</event>
<event>
 7    1  0.1154424E-005  0.4658293E+03  0.7546771E-02  0.1078462E+00
         -2   -1    0    0    0  501 -0.00000000000E+00  0.00000000000E+00  0.15626916329E+03  0.15626916329E+03  0.00000000000E+00 0.  1.
          2   -1    0    0  501    0  0.00000000000E+00 -0.00000000000E+00 -0.51943542431E+03  0.51943542431E+03  0.00000000000E+00 0. -1.
         23    2    1    2    0    0 -0.21056715031E+02  0.27219121294E+02 -0.10795066337E+03  0.14454367876E+03  0.89751119968E+02 0.  0.
          5    1    1    2  502    0  0.16635067602E+03  0.21412477854E+02 -0.32266901776E+03  0.36368726489E+03  0.47000000000E+01 0. -1.
         -5    1    1    2    0  502 -0.14529396099E+03 -0.48631599148E+02  0.67453420112E+02  0.16747364395E+03  0.47000000000E+01 0.  1.
        -11    1    3    3    0    0  0.32433279674E+02  0.16671746060E+01 -0.60289591784E+02  0.68480157557E+02  0.00000000000E+00 0.  1.
         11    1    3    3    0    0 -0.53489994705E+02  0.25551946688E+02 -0.47661071589E+02  0.76063521205E+02  0.00000000000E+00 0. -1.
<mgrwt>
<rscale>  0 0.31396144E+03</rscale>
<asrwt>0</asrwt>
<pdfrwt beam="2">  1        2 0.79913142E-01 0.46582927E+03</pdfrwt>
<pdfrwt beam="1">  1       -2 0.24041410E-01 0.46582927E+03</pdfrwt>
<totfact> 0.91006980E+02</totfact>
</mgrwt>
</event>
<event>
 8    1  0.1154424E-005  0.1398650E+03  0.7546771E-02  0.1228178E+00
          1   -1    0    0  501    0  0.00000000000E+00  0.00000000000E+00  0.11788787437E+03  0.11788787437E+03  0.00000000000E+00 0. -1.
         -1   -1    0    0    0  501 -0.00000000000E+00 -0.00000000000E+00 -0.13188817498E+03  0.13188817498E+03  0.00000000000E+00 0.  1.
         23    2    1    2    0    0 -0.28234666515E+02 -0.56040743181E+02 -0.36408594949E+02  0.14452613695E+03  0.12499782872E+03 0.  0.
         23    2    1    2    0    0  0.28234666515E+02  0.56040743181E+02  0.22408294338E+02  0.10524991240E+03  0.81471781105E+02 0.  0.
          5    1    3    3  502    0 -0.53614137306E+02 -0.85154437729E+02 -0.29879084879E+02  0.10507427705E+03  0.47000000000E+01 0. -1.
         -5    1    3    3    0  502  0.25379470791E+02  0.29113694547E+02 -0.65295100702E+01  0.39451859900E+02  0.47000000000E+01 0. -1.
        -11    1    4    4    0    0  0.14410519316E+02  0.48703333417E+02 -0.24071418943E+02  0.56205969103E+02  0.00000000000E+00 0.  1.
         11    1    4    4    0    0  0.13824147199E+02  0.73374097646E+01  0.46479713281E+02  0.49043943301E+02  0.00000000000E+00 0. -1.
<mgrwt>
<rscale>  0 0.12951467E+03</rscale>
<asrwt>0</asrwt>
<pdfrwt beam="1">  1        1 0.18136596E-01 0.13986500E+03</pdfrwt>
<pdfrwt beam="2">  1       -1 0.20290488E-01 0.13986500E+03</pdfrwt>
<totfact> 0.54549711E+03</totfact>
</mgrwt>
</event>
<event>
 8    1  0.1154424E-005  0.1317976E+03  0.7546771E-02  0.1237850E+00
         -2   -1    0    0    0  501 -0.00000000000E+00  0.00000000000E+00  0.21991289664E+02  0.21991289664E+02  0.00000000000E+00 0.  1.
          2   -1    0    0  501    0  0.00000000000E+00 -0.00000000000E+00 -0.67859369631E+03  0.67859369631E+03  0.00000000000E+00 0. -1.
         23    2    1    2    0    0  0.22385785285E+02 -0.35276945969E+02 -0.26145240757E+03  0.29279337168E+03  0.12500004312E+03 0.  0.
         23    2    1    2    0    0 -0.22385785285E+02  0.35276945969E+02 -0.39514999908E+03  0.40779161429E+03  0.91678201409E+02 0.  0.
          5    1    3    3  502    0 -0.43076035478E+02  0.18329069360E+02 -0.94918077559E+02  0.10593880811E+03  0.47000000000E+01 0.  1.
         -5    1    3    3    0  502  0.65461820763E+02 -0.53606015329E+02 -0.16653433001E+03  0.18685456357E+03  0.47000000000E+01 0.  1.
        -11    1    4    4    0    0  0.15221339145E+01 -0.25358528888E+02 -0.45437674714E+02  0.52057220080E+02  0.00000000000E+00 0.  1.
         11    1    4    4    0    0 -0.23907919200E+02  0.60635474857E+02 -0.34971232437E+03  0.35573439421E+03  0.00000000000E+00 0. -1.
<mgrwt>
<rscale>  0 0.12323707E+03</rscale>
<asrwt>0</asrwt>
<pdfrwt beam="2">  1        2 0.10439902E+00 0.13179756E+03</pdfrwt>
<pdfrwt beam="1">  1       -2 0.33832756E-02 0.13179756E+03</pdfrwt>
<totfact> 0.14618223E+04</totfact>
</mgrwt>
</event>
<event>
 8    1  0.1154424E-005  0.1944001E+03  0.7546771E-02  0.1159407E+00
         -1   -1    0    0    0  501 -0.00000000000E+00  0.00000000000E+00  0.62425883222E+03  0.62425883222E+03  0.00000000000E+00 0.  1.
          1   -1    0    0  501    0  0.00000000000E+00 -0.00000000000E+00 -0.55856741760E+02  0.55856741760E+02  0.00000000000E+00 0. -1.
         23    2    1    2    0    0 -0.68187795490E+02  0.13235239994E+03  0.35815612052E+03  0.40751345154E+03  0.12499869318E+03 0.  0.
         23    2    1    2    0    0  0.68187795490E+02 -0.13235239994E+03  0.21024596994E+03  0.27260212243E+03  0.89116867406E+02 0.  0.
          5    1    3    3  502    0 -0.28279940737E+02  0.12062458091E+02  0.21085913227E+03  0.21314061463E+03  0.47000000000E+01 0. -1.
         -5    1    3    3    0  502 -0.39907854753E+02  0.12028994185E+03  0.14729698825E+03  0.19437283692E+03  0.47000000000E+01 0. -1.
        -11    1    4    4    0    0  0.81078046988E+02 -0.75754447898E+02  0.10694462435E+03  0.15410885359E+03  0.00000000000E+00 0. -1.
         11    1    4    4    0    0 -0.12890251498E+02 -0.56597952046E+02  0.10330134559E+03  0.11849326884E+03  0.00000000000E+00 0.  1.
<mgrwt>
<rscale>  0 0.18895510E+03</rscale>
<asrwt>0</asrwt>
<pdfrwt beam="2">  1        1 0.85933453E-02 0.19440012E+03</pdfrwt>
<pdfrwt beam="1">  1       -1 0.96039816E-01 0.19440012E+03</pdfrwt>
<totfact> 0.86474179E+02</totfact>
</mgrwt>
</event>
<event>
 8    1  0.1154424E-005  0.1357014E+03  0.7546771E-02  0.1230217E+00
          4   -1    0    0  501    0  0.00000000000E+00  0.00000000000E+00  0.76170952886E+02  0.76170952886E+02  0.00000000000E+00 0.  1.
         -4   -1    0    0    0  501 -0.00000000000E+00 -0.00000000000E+00 -0.20244598118E+03  0.20244598118E+03  0.00000000000E+00 0. -1.
         23    2    1    2    0    0  0.33358329680E+02 -0.40935799962E+02 -0.96895769935E+02  0.16674432507E+03  0.12500544721E+03 0.  0.
         23    2    1    2    0    0 -0.33358329680E+02  0.40935799962E+02 -0.29379258354E+02  0.11187260899E+03  0.94147872754E+02 0.  0.
          5    1    3    3  502    0  0.15799211623E+02 -0.85301329892E+02 -0.53191975379E+02  0.10186956471E+03  0.47000000000E+01 0. -1.
         -5    1    3    3    0  502  0.17559118057E+02  0.44365529930E+02 -0.43703794556E+02  0.64874760358E+02  0.47000000000E+01 0. -1.
        -11    1    4    4    0    0  0.52618784310E+01  0.43940711339E+02 -0.50989148773E+02  0.67515677959E+02  0.00000000000E+00 0.  1.
         11    1    4    4    0    0 -0.38620208111E+02 -0.30049113773E+01  0.21609890419E+02  0.44356931035E+02  0.00000000000E+00 0. -1.
<mgrwt>
<rscale>  0 0.12815630E+03</rscale>
<asrwt>0</asrwt>
<pdfrwt beam="1">  1        4 0.11718608E-01 0.13570144E+03</pdfrwt>
<pdfrwt beam="2">  1       -4 0.31145535E-01 0.13570144E+03</pdfrwt>
<totfact> 0.94636178E+02</totfact>
</mgrwt>
</event>
<event>
 8    1  0.1154424E-005  0.1324470E+03  0.7546771E-02  0.1239061E+00
         -4   -1    0    0    0  501 -0.00000000000E+00  0.00000000000E+00  0.70523231566E+02  0.70523231566E+02  0.00000000000E+00 0. -1.
          4   -1    0    0  501    0  0.00000000000E+00 -0.00000000000E+00 -0.21290490718E+03  0.21290490718E+03  0.00000000000E+00 0.  1.
         23    2    1    2    0    0  0.24282554338E+02  0.36374318827E+02 -0.31388010832E+02  0.13611544123E+03  0.12501788912E+03 0.  0.
         23    2    1    2    0    0 -0.24282554338E+02 -0.36374318827E+02 -0.11099366478E+03  0.14731269752E+03  0.86421662294E+02 0.  0.
          5    1    3    3  502    0  0.43741572889E+02  0.35670505436E+02 -0.71539174603E+02  0.91245019917E+02  0.47000000000E+01 0.  1.
         -5    1    3    3    0  502 -0.19459018551E+02  0.70381339112E+00  0.40151163771E+02  0.44870421308E+02  0.47000000000E+01 0.  1.
        -11    1    4    4    0    0 -0.21964272593E+02  0.44571500284E+01 -0.10329343425E+03  0.10569687325E+03  0.00000000000E+00 0.  1.
         11    1    4    4    0    0 -0.23182817452E+01 -0.40831468856E+02 -0.77002305353E+01  0.41615824267E+02  0.00000000000E+00 0. -1.
<mgrwt>
<rscale>  0 0.12248002E+03</rscale>
<asrwt>0</asrwt>
<pdfrwt beam="2">  1        4 0.32754600E-01 0.13244699E+03</pdfrwt>
<pdfrwt beam="1">  1       -4 0.10849728E-01 0.13244699E+03</pdfrwt>
<totfact> 0.97525984E+02</totfact>
</mgrwt>
</event>
<event>
 8    1  0.1154424E-005  0.1774700E+03  0.7546771E-02  0.1175753E+00
          1   -1    0    0  501    0  0.00000000000E+00  0.00000000000E+00  0.19544165698E+03  0.19544165698E+03  0.00000000000E+00 0. -1.
         -1   -1    0    0    0  501 -0.00000000000E+00 -0.00000000000E+00 -0.14607518684E+03  0.14607518684E+03  0.00000000000E+00 0.  1.
         23    2    1    2    0    0  0.90460537559E+02  0.87664420260E+02  0.72624199101E+00  0.17747147867E+03  0.12500975514E+03 0.  0.
         23    2    1    2    0    0 -0.90460537559E+02 -0.87664420260E+02  0.48640228150E+02  0.16404536515E+03  0.93149614048E+02 0.  0.
          5    1    3    3  502    0 -0.26163201439E+02  0.11536998471E+02  0.22163245260E+02  0.36481706152E+02  0.47000000000E+01 0. -1.
         -5    1    3    3    0  502  0.11662373900E+03  0.76127421789E+02 -0.21437003269E+02  0.14098977252E+03  0.47000000000E+01 0. -1.
        -11    1    4    4    0    0 -0.90747844887E+02 -0.10488503855E+03  0.38018694084E+02  0.14381051339E+03  0.00000000000E+00 0. -1.
         11    1    4    4    0    0  0.28730732815E+00  0.17220618286E+02  0.10621534066E+02  0.20234851756E+02  0.00000000000E+00 0.  1.
<mgrwt>
<rscale>  0 0.17202402E+03</rscale>
<asrwt>0</asrwt>
<pdfrwt beam="1">  1        1 0.30067947E-01 0.17746999E+03</pdfrwt>
<pdfrwt beam="2">  1       -1 0.22473106E-01 0.17746999E+03</pdfrwt>
<totfact> 0.24671136E+03</totfact>
</mgrwt>
</event>
<event>
 8    1  0.1154424E-005  0.1533485E+03  0.7546771E-02  0.1206328E+00
          1   -1    0    0  501    0  0.00000000000E+00  0.00000000000E+00  0.47316824245E+03  0.47316824245E+03  0.00000000000E+00 0. -1.
         -1   -1    0    0    0  501 -0.00000000000E+00 -0.00000000000E+00 -0.57026558064E+02  0.57026558064E+02  0.00000000000E+00 0.  1.
         23    2    1    2    0    0 -0.48158356242E+02 -0.74638093090E+02  0.82021145669E+02  0.17390585302E+03  0.12500282062E+03 0.  0.
         23    2    1    2    0    0  0.48158356242E+02  0.74638093090E+02  0.33412053871E+03  0.35628894749E+03  0.86111599087E+02 0.  0.
          5    1    3    3  502    0 -0.28016353785E+02 -0.29409952521E+02 -0.30415470499E+02  0.50961281699E+02  0.47000000000E+01 0. -1.
         -5    1    3    3    0  502 -0.20142002457E+02 -0.45228140570E+02  0.11243661617E+03  0.12294457132E+03  0.47000000000E+01 0. -1.
        -11    1    4    4    0    0  0.94266479958E+01  0.47048016584E+02  0.28068883215E+03  0.28476059779E+03  0.00000000000E+00 0. -1.
         11    1    4    4    0    0  0.38731708246E+02  0.27590076506E+02  0.53431706563E+02  0.71528349705E+02  0.00000000000E+00 0.  1.
<mgrwt>
<rscale>  0 0.14533323E+03</rscale>
<asrwt>0</asrwt>
<pdfrwt beam="1">  1        1 0.72795112E-01 0.15334855E+03</pdfrwt>
<pdfrwt beam="2">  1       -1 0.87733169E-02 0.15334855E+03</pdfrwt>
<totfact> 0.35402922E+03</totfact>
</mgrwt>
</event>
<event>
 8    1  0.1154424E-005  0.1328492E+03  0.7546771E-02  0.1236715E+00
          2   -1    0    0  501    0  0.00000000000E+00  0.00000000000E+00  0.38399002314E+03  0.38399002314E+03  0.00000000000E+00 0. -1.
         -2   -1    0    0    0  501 -0.00000000000E+00 -0.00000000000E+00 -0.36716307098E+02  0.36716307098E+02  0.00000000000E+00 0.  1.
         23    2    1    2    0    0 -0.24438821753E+02  0.37748796629E+02  0.15893095049E+03  0.20714233195E+03  0.12500668385E+03 0.  0.
         23    2    1    2    0    0  0.24438821753E+02 -0.37748796629E+02  0.18834276555E+03  0.21356399829E+03  0.90079722314E+02 0.  0.
          5    1    3    3  502    0 -0.25532208492E+02 -0.39864217626E+02  0.95867660971E+02  0.10702218432E+03  0.47000000000E+01 0.  1.
         -5    1    3    3    0  502  0.10933867389E+01  0.77613014256E+02  0.63063289518E+02  0.10012014763E+03  0.47000000000E+01 0.  1.
        -11    1    4    4    0    0  0.11201485663E+02 -0.12356734133E+01 -0.77402522452E+01  0.13671564456E+02  0.00000000000E+00 0.  1.
         11    1    4    4    0    0  0.13237336090E+02 -0.36513123216E+02  0.19608301780E+03  0.19989243383E+03  0.00000000000E+00 0. -1.
<mgrwt>
<rscale>  0 0.12395258E+03</rscale>
<asrwt>0</asrwt>
<pdfrwt beam="1">  1        2 0.59075386E-01 0.13284916E+03</pdfrwt>
<pdfrwt beam="2">  1       -2 0.56486629E-02 0.13284916E+03</pdfrwt>
<totfact> 0.12789539E+04</totfact>
</mgrwt>
</event>
<event>
 8    1  0.1154424E-005  0.1393382E+03  0.7546771E-02  0.1225461E+00
          1   -1    0    0  501    0  0.00000000000E+00  0.00000000000E+00  0.13327601172E+03  0.13327601172E+03  0.00000000000E+00 0. -1.
         -1   -1    0    0    0  501 -0.00000000000E+00 -0.00000000000E+00 -0.11911903187E+03  0.11911903187E+03  0.00000000000E+00 0.  1.
         23    2    1    2    0    0 -0.54501400886E+02 -0.28598540742E+02 -0.10125769428E+02  0.13970567314E+03  0.12500745845E+03 0.  0.
         23    2    1    2    0    0  0.54501400886E+02  0.28598540742E+02  0.24282749274E+02  0.11268937045E+03  0.91219313026E+02 0.  0.
          5    1    3    3  502    0 -0.23472589090E+02  0.45045517938E+02  0.19122664907E+02  0.54477770127E+02  0.47000000000E+01 0. -1.
         -5    1    3    3    0  502 -0.31028811796E+02 -0.73644058680E+02 -0.29248434335E+02  0.85227903009E+02  0.47000000000E+01 0. -1.
        -11    1    4    4    0    0  0.67783386526E+02  0.50419552715E+02  0.17794278865E+02  0.86332816155E+02  0.00000000000E+00 0. -1.
         11    1    4    4    0    0 -0.13281985640E+02 -0.21821011973E+02  0.64884704085E+01  0.26356554295E+02  0.00000000000E+00 0.  1.
<mgrwt>
<rscale>  0 0.13135371E+03</rscale>
<asrwt>0</asrwt>
<pdfrwt beam="1">  1        1 0.20504002E-01 0.13933824E+03</pdfrwt>
<pdfrwt beam="2">  1       -1 0.18326005E-01 0.13933824E+03</pdfrwt>
<totfact> 0.54899781E+03</totfact>
</mgrwt>
</event>
<event>
 8    1  0.1359906E-005  0.1627281E+03  0.7546771E-02  0.1192774E+00
         -2   -1    0    0    0  501 -0.00000000000E+00  0.00000000000E+00  0.17037915174E+02  0.17037915174E+02  0.00000000000E+00 0.  1.
          2   -1    0    0  501    0  0.00000000000E+00 -0.00000000000E+00 -0.13948324570E+04  0.13948324570E+04  0.00000000000E+00 0. -1.
         23    2    1    2    0    0  0.90175768728E+02 -0.52184029403E+02 -0.59603823618E+03  0.61785273433E+03  0.12500232056E+03 0.  0.
         23    2    1    2    0    0 -0.90175768728E+02  0.52184029403E+02 -0.78175630567E+03  0.79401763786E+03  0.92012203513E+02 0.  0.
          5    1    3    3  502    0  0.37090755304E+02 -0.89275123935E+02 -0.32228900015E+03  0.33650863511E+03  0.47000000000E+01 0.  1.
         -5    1    3    3    0  502  0.53085013424E+02  0.37091094532E+02 -0.27374923602E+03  0.28134409922E+03  0.47000000000E+01 0.  1.
        -11    1    4    4    0    0 -0.10989970742E+02  0.58301003203E+02 -0.35806340414E+03  0.36294515814E+03  0.00000000000E+00 0.  1.
         11    1    4    4    0    0 -0.79185797986E+02 -0.61169737996E+01 -0.42369290153E+03  0.43107247973E+03  0.00000000000E+00 0. -1.
<mgrwt>
<rscale>  0 0.15644107E+03</rscale>
<asrwt>0</asrwt>
<pdfrwt beam="2">  1        2 0.21458957E+00 0.16272806E+03</pdfrwt>
<pdfrwt beam="1">  1       -2 0.26212182E-02 0.16272806E+03</pdfrwt>
<totfact> 0.79232633E+03</totfact>
</mgrwt>
</event>
<event>
 8    1  0.1154424E-005  0.2267456E+03  0.7546771E-02  0.1131956E+00
         -2   -1    0    0    0  501 -0.00000000000E+00  0.00000000000E+00  0.59600614502E+02  0.59600614502E+02  0.00000000000E+00 0.  1.
          2   -1    0    0  501    0  0.00000000000E+00 -0.00000000000E+00 -0.98987062651E+03  0.98987062651E+03  0.00000000000E+00 0. -1.
         23    2    1    2    0    0 -0.17628544401E+03 -0.68617687808E+02 -0.25080314834E+03  0.33810620485E+03  0.12501456591E+03 0.  0.
         23    2    1    2    0    0  0.17628544401E+03  0.68617687808E+02 -0.67946686367E+03  0.71136503617E+03  0.92628564732E+02 0.  0.
          5    1    3    3  502    0 -0.49149690952E+02 -0.83578844170E+02 -0.12805399130E+03  0.16068923424E+03  0.47000000000E+01 0.  1.
         -5    1    3    3    0  502 -0.12713575306E+03  0.14961156362E+02 -0.12274915704E+03  0.17741697061E+03  0.47000000000E+01 0.  1.
        -11    1    4    4    0    0  0.26243162839E+02  0.37672631434E+02 -0.27597586945E+03  0.27976885330E+03  0.00000000000E+00 0.  1.
         11    1    4    4    0    0  0.15004228117E+03  0.30945056374E+02 -0.40349099422E+03  0.43159618287E+03  0.00000000000E+00 0. -1.
<mgrwt>
<rscale>  0 0.22260467E+03</rscale>
<asrwt>0</asrwt>
<pdfrwt beam="2">  1        2 0.15228780E+00 0.22674564E+03</pdfrwt>
<pdfrwt beam="1">  1       -2 0.91693247E-02 0.22674564E+03</pdfrwt>
<totfact> 0.20259244E+03</totfact>
</mgrwt>
</event>
<event>
 8    1  0.1154424E-005  0.1262317E+03  0.7546771E-02  0.1241597E+00
          2   -1    0    0  501    0  0.00000000000E+00  0.00000000000E+00  0.25140780361E+03  0.25140780361E+03  0.00000000000E+00 0. -1.
         -2   -1    0    0    0  501 -0.00000000000E+00 -0.00000000000E+00 -0.11513613981E+03  0.11513613981E+03  0.00000000000E+00 0.  1.
         23    2    1    2    0    0  0.55423673325E+02  0.94113692306E+00 -0.62720174148E+02  0.14095485743E+03  0.11340979801E+03 0.  0.
         23    2    1    2    0    0 -0.55423673325E+02 -0.94113692306E+00  0.19899183795E+03  0.22558908599E+03  0.90664297497E+02 0.  0.
          5    1    3    3  502    0 -0.24236190257E+02 -0.15051916818E+02  0.11202655718E+02  0.31008750591E+02  0.47000000000E+01 0. -1.
         -5    1    3    3    0  502  0.79659863583E+02  0.15993053741E+02 -0.73922829866E+02  0.10994610684E+03  0.47000000000E+01 0.  1.
        -11    1    4    4    0    0 -0.17621367939E+02  0.92045717720E+01 -0.27639875254E+01  0.20071780603E+02  0.00000000000E+00 0.  1.
         11    1    4    4    0    0 -0.37802305387E+02 -0.10145708695E+02  0.20175582548E+03  0.20551730538E+03  0.00000000000E+00 0. -1.
<mgrwt>
<rscale>  0 0.12091386E+03</rscale>
<asrwt>0</asrwt>
<pdfrwt beam="1">  1        2 0.38678123E-01 0.12623174E+03</pdfrwt>
<pdfrwt beam="2">  1       -2 0.17713252E-01 0.12623174E+03</pdfrwt>
<totfact> 0.33001065E+03</totfact>
</mgrwt>
</event>
<event>
 8    1  0.1154424E-005  0.1560054E+03  0.7546771E-02  0.1201406E+00
         -4   -1    0    0    0  501 -0.00000000000E+00  0.00000000000E+00  0.16626718382E+03  0.16626718382E+03  0.00000000000E+00 0. -1.
          4   -1    0    0  501    0  0.00000000000E+00 -0.00000000000E+00 -0.13127708723E+03  0.13127708723E+03  0.00000000000E+00 0.  1.
         23    2    1    2    0    0  0.89560772243E+02  0.26212067279E+02  0.54872416898E+02  0.16537435738E+03  0.12501796490E+03 0.  0.
         23    2    1    2    0    0 -0.89560772243E+02 -0.26212067279E+02 -0.19882320307E+02  0.13216991367E+03  0.91462424099E+02 0.  0.
          5    1    3    3  502    0  0.96861135368E+01  0.58455425053E+02 -0.60791993948E+01  0.59748675122E+02  0.47000000000E+01 0. -1.
         -5    1    3    3    0  502  0.79874658706E+02 -0.32243357774E+02  0.60951616293E+02  0.10562568226E+03  0.47000000000E+01 0. -1.
        -11    1    4    4    0    0 -0.68835799488E+02  0.24960376333E+02  0.76474952472E+00  0.73225490914E+02  0.00000000000E+00 0. -1.
         11    1    4    4    0    0 -0.20724972755E+02 -0.51172443612E+02 -0.20647069832E+02  0.58944422752E+02  0.00000000000E+00 0.  1.
<mgrwt>
<rscale>  0 0.14924348E+03</rscale>
<asrwt>0</asrwt>
<pdfrwt beam="2">  1        4 0.20196475E-01 0.15600544E+03</pdfrwt>
<pdfrwt beam="1">  1       -4 0.25579567E-01 0.15600544E+03</pdfrwt>
<totfact> 0.54183635E+02</totfact>
</mgrwt>
</event>
<event>
 7    1  0.1154424E-005  0.1753283E+03  0.7546771E-02  0.1187503E+00
          2   -1    0    0  501    0  0.00000000000E+00  0.00000000000E+00  0.98968718996E+03  0.98968718996E+03  0.00000000000E+00 0. -1.
         -2   -1    0    0    0  501 -0.00000000000E+00 -0.00000000000E+00 -0.33198309308E+02  0.33198309308E+02  0.00000000000E+00 0.  1.
         23    2    1    2    0    0 -0.10949345659E+02 -0.84100828934E+02  0.70706548498E+03  0.71800513753E+03  0.91634818065E+02 0.  0.
          5    1    1    2  502    0  0.71939932921E+02  0.27928707702E+01  0.12298901180E+03  0.14258871308E+03  0.47000000000E+01 0. -1.
         -5    1    1    2    0  502 -0.60990587262E+02  0.81307958164E+02  0.12643438388E+03  0.16229164866E+03  0.47000000000E+01 0.  1.
        -11    1    3    3    0    0  0.31095137290E+02 -0.38696472203E+00  0.18774541133E+03  0.19030343344E+03  0.00000000000E+00 0.  1.
         11    1    3    3    0    0 -0.42044482949E+02 -0.83713864212E+02  0.51932007365E+03  0.52770170409E+03  0.00000000000E+00 0. -1.
<mgrwt>
<rscale>  0 0.16106232E+03</rscale>
<asrwt>0</asrwt>
<pdfrwt beam="1">  1        2 0.15225954E+00 0.17532828E+03</pdfrwt>
<pdfrwt beam="2">  1       -2 0.51074330E-02 0.17532828E+03</pdfrwt>
<totfact> 0.49745137E+03</totfact>
</mgrwt>
</event>
<event>
 8    1  0.1154424E-005  0.1563466E+03  0.7546771E-02  0.1198144E+00
          1   -1    0    0  501    0  0.00000000000E+00  0.00000000000E+00  0.27397501361E+03  0.27397501361E+03  0.00000000000E+00 0. -1.
         -1   -1    0    0    0  501 -0.00000000000E+00 -0.00000000000E+00 -0.96189228731E+02  0.96189228731E+02  0.00000000000E+00 0.  1.
         23    2    1    2    0    0  0.32864055960E+02  0.87970690284E+02  0.16798128570E+02  0.15724641766E+03  0.12500148087E+03 0.  0.
         23    2    1    2    0    0 -0.32864055960E+02 -0.87970690284E+02  0.16098765631E+03  0.21291782468E+03  0.10294700608E+03 0.  0.
          5    1    3    3  502    0  0.22226203767E+02  0.19338599951E+02  0.65712966148E+02  0.72168341411E+02  0.47000000000E+01 0. -1.
         -5    1    3    3    0  502  0.10637852193E+02  0.68632090332E+02 -0.48914837579E+02  0.85078076248E+02  0.47000000000E+01 0. -1.
        -11    1    4    4    0    0 -0.74225451652E+00 -0.10360468542E+03  0.11842992450E+03  0.15735351538E+03  0.00000000000E+00 0. -1.
         11    1    4    4    0    0 -0.32121801443E+02  0.15633995141E+02  0.42557731804E+02  0.55564309303E+02  0.00000000000E+00 0.  1.
<mgrwt>
<rscale>  0 0.15191093E+03</rscale>
<asrwt>0</asrwt>
<pdfrwt beam="1">  1        1 0.42150002E-01 0.15634660E+03</pdfrwt>
<pdfrwt beam="2">  1       -1 0.14798343E-01 0.15634660E+03</pdfrwt>
<totfact> 0.31456938E+03</totfact>
</mgrwt>
</event>
<event>
 8    1  0.1154424E-005  0.1349973E+03  0.7546771E-02  0.1229608E+00
         -4   -1    0    0    0  501 -0.00000000000E+00  0.00000000000E+00  0.13655920417E+03  0.13655920417E+03  0.00000000000E+00 0. -1.
          4   -1    0    0  501    0  0.00000000000E+00 -0.00000000000E+00 -0.12371451554E+03  0.12371451554E+03  0.00000000000E+00 0.  1.
         23    2    1    2    0    0  0.31321611638E+02  0.40244067369E+02  0.48826357876E+02  0.14355590037E+03  0.12499461986E+03 0.  0.
         23    2    1    2    0    0 -0.31321611638E+02 -0.40244067369E+02 -0.35981669243E+02  0.11671781935E+03  0.98629308614E+02 0.  0.
          5    1    3    3  502    0 -0.24839678556E+02  0.44127563039E+02 -0.19883371289E+02  0.54604852389E+02  0.47000000000E+01 0.  1.
         -5    1    3    3    0  502  0.56161290193E+02 -0.38834956705E+01  0.68709729165E+02  0.88951047980E+02  0.47000000000E+01 0.  1.
        -11    1    4    4    0    0 -0.17335968494E+02 -0.68032146327E+02 -0.14242854643E+01  0.70220633196E+02  0.00000000000E+00 0.  1.
         11    1    4    4    0    0 -0.13985643143E+02  0.27788078958E+02 -0.34557383779E+02  0.46497186151E+02  0.00000000000E+00 0. -1.
<mgrwt>
<rscale>  0 0.12856037E+03</rscale>
<asrwt>0</asrwt>
<pdfrwt beam="2">  1        4 0.19033002E-01 0.13499735E+03</pdfrwt>
<pdfrwt beam="1">  1       -4 0.21009108E-01 0.13499735E+03</pdfrwt>
<totfact> 0.84050539E+02</totfact>
</mgrwt>
</event>
<event>
 8    1  0.1154424E-005  0.1611572E+03  0.7546771E-02  0.1195006E+00
          2   -1    0    0  501    0  0.00000000000E+00  0.00000000000E+00  0.27086566969E+03  0.27086566969E+03  0.00000000000E+00 0. -1.
         -2   -1    0    0    0  501 -0.00000000000E+00 -0.00000000000E+00 -0.12051406014E+03  0.12051406014E+03  0.00000000000E+00 0.  1.
         23    2    1    2    0    0  0.48331482777E+02 -0.89512269488E+02 -0.31432775344E+02  0.16419400432E+03  0.12499309210E+03 0.  0.
         23    2    1    2    0    0 -0.48331482777E+02  0.89512269488E+02  0.18178438489E+03  0.22718572552E+03  0.90660976571E+02 0.  0.
          5    1    3    3  502    0  0.69638583608E+02 -0.16159732285E+02 -0.47549119942E+02  0.85986499415E+02  0.47000000000E+01 0. -1.
         -5    1    3    3    0  502 -0.21307100831E+02 -0.73352537203E+02  0.16116344598E+02  0.78207504903E+02  0.47000000000E+01 0. -1.
        -11    1    4    4    0    0 -0.38749515618E+02  0.10581974599E+03  0.12994210391E+03  0.17200085456E+03  0.00000000000E+00 0.  1.
         11    1    4    4    0    0 -0.95819671584E+01 -0.16307476506E+02  0.51842280985E+02  0.55184870956E+02  0.00000000000E+00 0. -1.
<mgrwt>
<rscale>  0 0.15453696E+03</rscale>
<asrwt>0</asrwt>
<pdfrwt beam="1">  1        2 0.41671641E-01 0.16115723E+03</pdfrwt>
<pdfrwt beam="2">  1       -2 0.18540625E-01 0.16115723E+03</pdfrwt>
<totfact> 0.28566430E+03</totfact>
</mgrwt>
</event>
