<event>
 8    1  0.6945825E-009  0.1292161E+03  0.7561462E-02  0.1228623E+00
         -1   -1    0    0    0  501 -0.00000000000E+00  0.00000000000E+00  0.14695446630E+03  0.14695446630E+03  0.00000000000E+00 0.  1.
          1   -1    0    0  501    0  0.00000000000E+00 -0.00000000000E+00 -0.16415395824E+03  0.16415395824E+03  0.00000000000E+00 0. -1.
         25    2    1    2    0    0  0.10448551150E+03  0.13401386611E+02 -0.36959047825E+02  0.16765921168E+03  0.12508725262E+03 0.  0.
         23    2    1    2    0    0 -0.10448551150E+03 -0.13401386611E+02  0.19759555883E+02  0.14344921287E+03  0.95343680163E+02 0.  0.
          5    1    3    3  502    0  0.12631136870E+03  0.76284477700E+01 -0.55409547793E+02  0.13820436124E+03  0.41800000000E+01 0. -1.
         -5    1    3    3    0  502 -0.21825857201E+02  0.57729388408E+01  0.18450499967E+02  0.29454850440E+02  0.41800000000E+01 0. -1.
        -11    1    4    4    0    0 -0.32137991683E+02 -0.17129756988E+02  0.52545472761E+02  0.63932040414E+02  0.00000000000E+00 0. -1.
         11    1    4    4    0    0 -0.72347519819E+02  0.37283703770E+01 -0.32785916878E+02  0.79517172454E+02  0.00000000000E+00 0.  1.
</event>
<event>
 8    1  0.6945825E-009  0.1122145E+03  0.7561462E-02  0.1256523E+00
         -1   -1    0    0    0  501 -0.00000000000E+00  0.00000000000E+00  0.37132151688E+02  0.37132151688E+02  0.00000000000E+00 0.  1.
          1   -1    0    0  501    0  0.00000000000E+00 -0.00000000000E+00 -0.42089223715E+03  0.42089223715E+03  0.00000000000E+00 0. -1.
         25    2    1    2    0    0 -0.47750255164E+02  0.98923306990E+01 -0.14494280384E+03  0.19756975056E+03  0.12508974729E+03 0.  0.
         23    2    1    2    0    0  0.47750255164E+02 -0.98923306990E+01 -0.23881728162E+03  0.26045463828E+03  0.91787687206E+02 0.  0.
          5    1    3    3  502    0 -0.13806243127E+01 -0.53275007800E+02 -0.41196606243E+02  0.67489001664E+02  0.41800000000E+01 0. -1.
         -5    1    3    3    0  502 -0.46369630851E+02  0.63167338499E+02 -0.10374619760E+03  0.13008074890E+03  0.41800000000E+01 0. -1.
        -11    1    4    4    0    0  0.72430794398E+01  0.32835170190E+02 -0.35983660441E+02  0.49248699677E+02  0.00000000000E+00 0. -1.
         11    1    4    4    0    0  0.40507175724E+02 -0.42727500889E+02 -0.20283362118E+03  0.21120593860E+03  0.00000000000E+00 0.  1.
</event>
<event>
 8    1  0.6945825E-009  0.1199283E+03  0.7561462E-02  0.1243215E+00
          1   -1    0    0  501    0  0.00000000000E+00  0.00000000000E+00  0.10039596147E+03  0.10039596147E+03  0.00000000000E+00 0. -1.
         -1   -1    0    0    0  501 -0.00000000000E+00 -0.00000000000E+00 -0.16992933505E+03  0.16992933505E+03  0.00000000000E+00 0.  1.
         25    2    1    2    0    0  0.45907557657E+02 -0.54561878666E+02 -0.52806343542E+02  0.15336805433E+03  0.12509495480E+03 0.  0.
         23    2    1    2    0    0 -0.45907557657E+02  0.54561878666E+02 -0.16727030037E+02  0.11695724220E+03  0.91184979658E+02 0.  0.
          5    1    3    3  502    0 -0.61700939964E+01 -0.69565042031E+02  0.95881769277E+01  0.70617070666E+02  0.41800000000E+01 0. -1.
         -5    1    3    3    0  502  0.52077651653E+02  0.15003163365E+02 -0.62394520470E+02  0.82750983664E+02  0.41800000000E+01 0. -1.
        -11    1    4    4    0    0  0.45674074143E+01 -0.22751511262E+02 -0.62565929507E+01  0.24034088927E+02  0.00000000000E+00 0. -1.
         11    1    4    4    0    0 -0.50474965071E+02  0.77313389928E+02 -0.10470437087E+02  0.92923153271E+02  0.00000000000E+00 0.  1.
</event>
<event>
 8    1  0.6945825E-009  0.6214292E+02  0.7561462E-02  0.1389053E+00
          1   -1    0    0  501    0  0.00000000000E+00  0.00000000000E+00  0.13624523063E+03  0.13624523063E+03  0.00000000000E+00 0. -1.
         -1   -1    0    0    0  501 -0.00000000000E+00 -0.00000000000E+00 -0.11243706540E+03  0.11243706540E+03  0.00000000000E+00 0.  1.
         25    2    1    2    0    0 -0.39431199212E+02 -0.36230590244E+02 -0.17222394352E+02  0.13715440031E+03  0.12508894243E+03 0.  0.
         23    2    1    2    0    0  0.39431199212E+02  0.36230590244E+02  0.41030559585E+02  0.11152789571E+03  0.88811539571E+02 0.  0.
          5    1    3    3  502    0 -0.34603619784E+02 -0.25313774008E+02 -0.70377928557E+02  0.82514985819E+02  0.41800000000E+01 0.  1.
         -5    1    3    3    0  502 -0.48275794288E+01 -0.10916816236E+02  0.53155534205E+02  0.54639414496E+02  0.41800000000E+01 0.  1.
        -11    1    4    4    0    0 -0.44857515448E+01  0.21915529400E+02 -0.23320529480E+02  0.32315004116E+02  0.00000000000E+00 0.  1.
         11    1    4    4    0    0  0.43916950757E+02  0.14315060844E+02  0.64351089065E+02  0.79212891594E+02  0.00000000000E+00 0. -1.
</event>
<event>
 8    1  0.6945825E-009  0.2023798E+03  0.7561462E-02  0.1147747E+00
         -2   -1    0    0    0  501 -0.00000000000E+00  0.00000000000E+00  0.55892212681E+02  0.55892212681E+02  0.00000000000E+00 0. -1.
          2   -1    0    0  501    0  0.00000000000E+00 -0.00000000000E+00 -0.91760339913E+03  0.91760339913E+03  0.00000000000E+00 0.  1.
         25    2    1    2    0    0 -0.18856178122E+03 -0.51080693239E+02 -0.51428557166E+03  0.56418285058E+03  0.12509139505E+03 0.  0.
         23    2    1    2    0    0  0.18856178122E+03  0.51080693239E+02 -0.34742561479E+03  0.40931276123E+03  0.93099925521E+02 0.  0.
          5    1    3    3  502    0 -0.85073128338E+02 -0.37679758635E+02 -0.98828526107E+02  0.13580040997E+03  0.41800000000E+01 0. -1.
         -5    1    3    3    0  502 -0.10348865289E+03 -0.13400934604E+02 -0.41545704555E+03  0.42838244061E+03  0.41800000000E+01 0. -1.
        -11    1    4    4    0    0  0.15436916407E+03  0.11377496335E+02 -0.20032539762E+03  0.25315914199E+03  0.00000000000E+00 0.  1.
         11    1    4    4    0    0  0.34192617158E+02  0.39703196904E+02 -0.14710021717E+03  0.15615361924E+03  0.00000000000E+00 0. -1.
</event>
<event>
 8    1  0.6945825E-009  0.1507345E+03  0.7561462E-02  0.1199573E+00
          2   -1    0    0  501    0  0.00000000000E+00  0.00000000000E+00  0.72782090613E+02  0.72782090613E+02  0.00000000000E+00 0.  1.
         -2   -1    0    0    0  501 -0.00000000000E+00 -0.00000000000E+00 -0.31506841918E+03  0.31506841918E+03  0.00000000000E+00 0. -1.
         25    2    1    2    0    0  0.73490520444E+02 -0.74767635117E+02 -0.14204003499E+03  0.21636498716E+03  0.12508948906E+03 0.  0.
         23    2    1    2    0    0 -0.73490520444E+02  0.74767635117E+02 -0.10024629357E+03  0.17148552263E+03  0.91470810861E+02 0.  0.
          5    1    3    3  502    0  0.25507525285E+02 -0.10376065873E+03 -0.95945694489E+02  0.14366612975E+03  0.41800000000E+01 0. -1.
         -5    1    3    3    0  502  0.47982995158E+02  0.28993023614E+02 -0.46094340503E+02  0.72698857412E+02  0.41800000000E+01 0. -1.
        -11    1    4    4    0    0 -0.48208608519E+02 -0.10537552536E+02 -0.27057121397E+02  0.56277862140E+02  0.00000000000E+00 0.  1.
         11    1    4    4    0    0 -0.25281911925E+02  0.85305187653E+02 -0.73189172176E+02  0.11520766049E+03  0.00000000000E+00 0. -1.
</event>
<event>
 8    1  0.6945825E-009  0.1155308E+03  0.7561462E-02  0.1250657E+00
         -2   -1    0    0    0  501 -0.00000000000E+00  0.00000000000E+00  0.22334258272E+02  0.22334258272E+02  0.00000000000E+00 0.  1.
          2   -1    0    0  501    0  0.00000000000E+00 -0.00000000000E+00 -0.70170570468E+03  0.70170570468E+03  0.00000000000E+00 0. -1.
         25    2    1    2    0    0 -0.34591198191E+01 -0.53185247959E+02 -0.47441030231E+03  0.49350663837E+03  0.12507210346E+03 0.  0.
         23    2    1    2    0    0  0.34591198191E+01  0.53185247959E+02 -0.20496114410E+03  0.23053332459E+03  0.91081870005E+02 0.  0.
          5    1    3    3  502    0  0.78222941026E+01  0.39147167148E+02 -0.19170246455E+03  0.19585963417E+03  0.41800000000E+01 0.  1.
         -5    1    3    3    0  502 -0.11281413922E+02 -0.92332415107E+02 -0.28270783776E+03  0.29764700420E+03  0.41800000000E+01 0.  1.
        -11    1    4    4    0    0 -0.31786947844E+02  0.53878609570E+02 -0.16885917383E+03  0.18007424915E+03  0.00000000000E+00 0. -1.
         11    1    4    4    0    0  0.35246067663E+02 -0.69336161090E+00 -0.36101970273E+02  0.50459075433E+02  0.00000000000E+00 0.  1.
</event>
<event>
 8    1  0.6945825E-009  0.1444581E+03  0.7561462E-02  0.1207453E+00
          2   -1    0    0  501    0  0.00000000000E+00  0.00000000000E+00  0.22941838985E+03  0.22941838985E+03  0.00000000000E+00 0. -1.
         -2   -1    0    0    0  501 -0.00000000000E+00 -0.00000000000E+00 -0.97320480687E+02  0.97320480687E+02  0.00000000000E+00 0.  1.
         25    2    1    2    0    0  0.78355690160E+02  0.53618678673E+02  0.10870688632E+03  0.19099366622E+03  0.12508723564E+03 0.  0.
         23    2    1    2    0    0 -0.78355690160E+02 -0.53618678673E+02  0.23391022848E+02  0.13574520432E+03  0.94154360833E+02 0.  0.
          5    1    3    3  502    0  0.11185665900E+03  0.50949681280E+02  0.81308901600E+02  0.14743266959E+03  0.41800000000E+01 0. -1.
         -5    1    3    3    0  502 -0.33500968837E+02  0.26689973931E+01  0.27397984717E+02  0.43560996621E+02  0.41800000000E+01 0. -1.
        -11    1    4    4    0    0  0.10653250318E+02 -0.40763961800E+02 -0.23588366676E+01  0.42199009875E+02  0.00000000000E+00 0.  1.
         11    1    4    4    0    0 -0.89008940477E+02 -0.12854716873E+02  0.25749859516E+02  0.93546194449E+02  0.00000000000E+00 0. -1.
</event>
<event>
 8    1  0.6945825E-009  0.1024324E+03  0.7561462E-02  0.1275263E+00
         -2   -1    0    0    0  501 -0.00000000000E+00  0.00000000000E+00  0.29043183943E+02  0.29043183943E+02  0.00000000000E+00 0.  1.
          2   -1    0    0  501    0  0.00000000000E+00 -0.00000000000E+00 -0.49642140075E+03  0.49642140075E+03  0.00000000000E+00 0. -1.
         25    2    1    2    0    0 -0.13853535867E+02  0.34849720700E+02 -0.32104434225E+03  0.34658791962E+03  0.12508913962E+03 0.  0.
         23    2    1    2    0    0  0.13853535867E+02 -0.34849720700E+02 -0.14633387456E+03  0.17887666507E+03  0.95795798315E+02 0.  0.
          5    1    3    3  502    0  0.32484040448E+02 -0.33274068613E+02 -0.92596642614E+02  0.10370143273E+03  0.41800000000E+01 0.  1.
         -5    1    3    3    0  502 -0.46337576315E+02  0.68123789313E+02 -0.22844769964E+03  0.24288648690E+03  0.41800000000E+01 0.  1.
        -11    1    4    4    0    0  0.39874874992E+02 -0.28151028454E+02 -0.14383452981E+03  0.15189094122E+03  0.00000000000E+00 0. -1.
         11    1    4    4    0    0 -0.26021339125E+02 -0.66986922456E+01 -0.24993447486E+01  0.26985723852E+02  0.00000000000E+00 0.  1.
</event>
<event>
 8    1  0.6945825E-009  0.1258299E+03  0.7561462E-02  0.1233778E+00
          1   -1    0    0  501    0  0.00000000000E+00  0.00000000000E+00  0.45684374985E+02  0.45684374985E+02  0.00000000000E+00 0. -1.
         -1   -1    0    0    0  501 -0.00000000000E+00 -0.00000000000E+00 -0.54323457080E+03  0.54323457080E+03  0.00000000000E+00 0.  1.
         25    2    1    2    0    0 -0.99570153543E+02 -0.45688576297E+02 -0.20971532898E+03  0.26763681484E+03  0.12508910411E+03 0.  0.
         23    2    1    2    0    0  0.99570153543E+02  0.45688576297E+02 -0.28783486684E+03  0.32128213095E+03  0.91496642664E+02 0.  0.
          5    1    3    3  502    0 -0.11277696978E+02  0.10210967954E+01 -0.15143540843E+03  0.15191571483E+03  0.41800000000E+01 0. -1.
         -5    1    3    3    0  502 -0.88292456565E+02 -0.46709673092E+02 -0.58279920551E+02  0.11572110000E+03  0.41800000000E+01 0. -1.
        -11    1    4    4    0    0 -0.15194169135E+02  0.13742951681E+02 -0.70778736112E+02  0.73684197643E+02  0.00000000000E+00 0. -1.
         11    1    4    4    0    0  0.11476432268E+03  0.31945624615E+02 -0.21705613072E+03  0.24759793330E+03  0.00000000000E+00 0.  1.
</event>
<event>
 8    1  0.6945825E-009  0.1686972E+03  0.7561462E-02  0.1179213E+00
         -3   -1    0    0    0  501 -0.00000000000E+00  0.00000000000E+00  0.47065277002E+02  0.47065277002E+02  0.00000000000E+00 0.  1.
          3   -1    0    0  501    0  0.00000000000E+00 -0.00000000000E+00 -0.78553794099E+03  0.78553794099E+03  0.00000000000E+00 0. -1.
         25    2    1    2    0    0 -0.13778054560E+03  0.29956361685E+02 -0.54064985908E+03  0.57256187154E+03  0.12507583409E+03 0.  0.
         23    2    1    2    0    0  0.13778054560E+03 -0.29956361685E+02 -0.19782280491E+03  0.26004134645E+03  0.92772718894E+02 0.  0.
          5    1    3    3  502    0 -0.66677584713E+02  0.63445889431E+02 -0.16716467437E+03  0.19087373300E+03  0.41800000000E+01 0.  1.
         -5    1    3    3    0  502 -0.71102960882E+02 -0.33489527746E+02 -0.37348518470E+03  0.38168813855E+03  0.41800000000E+01 0.  1.
        -11    1    4    4    0    0  0.98634589710E+02  0.22434124221E+02 -0.99004030373E+02  0.14154105499E+03  0.00000000000E+00 0.  1.
         11    1    4    4    0    0  0.39145955885E+02 -0.52390485906E+02 -0.98818774537E+02  0.11850029146E+03  0.00000000000E+00 0. -1.
</event>
<event>
 8    1  0.6945825E-009  0.2359739E+03  0.7561462E-02  0.1122504E+00
         -1   -1    0    0    0  501 -0.00000000000E+00  0.00000000000E+00  0.36477724651E+02  0.36477724651E+02  0.00000000000E+00 0.  1.
          1   -1    0    0  501    0  0.00000000000E+00 -0.00000000000E+00 -0.17128689163E+04  0.17128689163E+04  0.00000000000E+00 0. -1.
         25    2    1    2    0    0  0.13166596893E+02  0.21474397709E+03 -0.63274098364E+03  0.67992498756E+03  0.12509397008E+03 0.  0.
         23    2    1    2    0    0 -0.13166596893E+02 -0.21474397709E+03 -0.10436502080E+04  0.10694216534E+04  0.90380203050E+02 0.  0.
          5    1    3    3  502    0 -0.45730553762E+02  0.11020011487E+03 -0.22288940041E+03  0.25284878105E+03  0.41800000000E+01 0. -1.
         -5    1    3    3    0  502  0.58897150655E+02  0.10454386223E+03 -0.40985158324E+03  0.42707620651E+03  0.41800000000E+01 0. -1.
        -11    1    4    4    0    0 -0.51060916603E+02 -0.12989804160E+03 -0.67077108968E+03  0.68513836060E+03  0.00000000000E+00 0.  1.
         11    1    4    4    0    0  0.37894319710E+02 -0.84845935492E+02 -0.37287911834E+03  0.38428329281E+03  0.00000000000E+00 0. -1.
</event>
<event>
 8    1  0.6945825E-009  0.1275542E+03  0.7561462E-02  0.1231131E+00
         -1   -1    0    0    0  501 -0.00000000000E+00  0.00000000000E+00  0.87066565136E+02  0.87066565136E+02  0.00000000000E+00 0.  1.
          1   -1    0    0  501    0  0.00000000000E+00 -0.00000000000E+00 -0.24672856460E+03  0.24672856460E+03  0.00000000000E+00 0. -1.
         25    2    1    2    0    0 -0.22545779941E+02 -0.87939081750E+02 -0.12978787563E+03  0.20182579243E+03  0.12508862272E+03 0.  0.
         23    2    1    2    0    0  0.22545779941E+02  0.87939081750E+02 -0.29874123831E+02  0.13196933731E+03  0.91004661547E+02 0.  0.
          5    1    3    3  502    0 -0.57816586652E+02 -0.59431929582E+02 -0.23640441836E+02  0.86320651273E+02  0.41800000000E+01 0. -1.
         -5    1    3    3    0  502  0.35270806711E+02 -0.28507152168E+02 -0.10614743380E+03  0.11550514115E+03  0.41800000000E+01 0. -1.
        -11    1    4    4    0    0  0.50494527238E+02  0.22292228806E+02 -0.15911906781E+01  0.55219313958E+02  0.00000000000E+00 0.  1.
         11    1    4    4    0    0 -0.27948747298E+02  0.65646852944E+02 -0.28282933152E+02  0.76750023353E+02  0.00000000000E+00 0. -1.
</event>
<event>
 8    1  0.6945825E-009  0.1098366E+03  0.7561462E-02  0.1260873E+00
          1   -1    0    0  501    0  0.00000000000E+00  0.00000000000E+00  0.86786218354E+03  0.86786218354E+03  0.00000000000E+00 0. -1.
         -1   -1    0    0    0  501 -0.00000000000E+00 -0.00000000000E+00 -0.30287662740E+02  0.30287662740E+02  0.00000000000E+00 0.  1.
         25    2    1    2    0    0 -0.17474382565E+02  0.84978542467E+02  0.67866879632E+03  0.69553269569E+03  0.12509072289E+03 0.  0.
         23    2    1    2    0    0  0.17474382565E+02 -0.84978542467E+02  0.15890572448E+03  0.20261715058E+03  0.90972378848E+02 0.  0.
          5    1    3    3  502    0 -0.52475990528E+02  0.42481688689E+02  0.15703690136E+03  0.17098679553E+03  0.41800000000E+01 0.  1.
         -5    1    3    3    0  502  0.35001607963E+02  0.42496853778E+02  0.52163189496E+03  0.52454590017E+03  0.41800000000E+01 0.  1.
        -11    1    4    4    0    0  0.29950829041E+02 -0.75254537391E+02  0.16643600926E+03  0.18509792742E+03  0.00000000000E+00 0. -1.
         11    1    4    4    0    0 -0.12476446476E+02 -0.97240050767E+01 -0.75302847790E+01  0.17519223164E+02  0.00000000000E+00 0.  1.
</event>
<event>
 8    1  0.6945825E-009  0.9650521E+02  0.7561462E-02  0.1287822E+00
          3   -1    0    0  501    0  0.00000000000E+00  0.00000000000E+00  0.21768339898E+02  0.21768339898E+02  0.00000000000E+00 0. -1.
         -3   -1    0    0    0  501 -0.00000000000E+00 -0.00000000000E+00 -0.78908310340E+03  0.78908310340E+03  0.00000000000E+00 0.  1.
         25    2    1    2    0    0 -0.31698589076E+02 -0.63933031553E+02 -0.49768190439E+03  0.51809923003E+03  0.12508917270E+03 0.  0.
         23    2    1    2    0    0  0.31698589076E+02  0.63933031553E+02 -0.26963285911E+03  0.29275221327E+03  0.88936756110E+02 0.  0.
          5    1    3    3  502    0  0.35192196142E+02 -0.22103540923E+02 -0.58572298073E+02  0.71939166607E+02  0.41800000000E+01 0.  1.
         -5    1    3    3    0  502 -0.66890785218E+02 -0.41829490630E+02 -0.43910960631E+03  0.44616006342E+03  0.41800000000E+01 0.  1.
        -11    1    4    4    0    0  0.29711315774E+02  0.49971036948E+02 -0.27226776266E+03  0.27840546224E+03  0.00000000000E+00 0.  1.
         11    1    4    4    0    0  0.19872733021E+01  0.13961994605E+02  0.26349035462E+01  0.14346751034E+02  0.00000000000E+00 0. -1.
</event>
<event>
 8    1  0.6945825E-009  0.1164973E+03  0.7561462E-02  0.1248990E+00
         -2   -1    0    0    0  501 -0.00000000000E+00  0.00000000000E+00  0.14231160473E+03  0.14231160473E+03  0.00000000000E+00 0.  1.
          2   -1    0    0  501    0  0.00000000000E+00 -0.00000000000E+00 -0.15746037596E+03  0.15746037596E+03  0.00000000000E+00 0. -1.
         25    2    1    2    0    0 -0.39657918293E+02 -0.87417143747E+02  0.21232441668E+02  0.15909841530E+03  0.12508789577E+03 0.  0.
         23    2    1    2    0    0  0.39657918293E+02  0.87417143747E+02 -0.36381212902E+02  0.14067356540E+03  0.96181868586E+02 0.  0.
          5    1    3    3  502    0 -0.93310669525E+01 -0.92085198928E+02  0.59317160670E+02  0.11001250212E+03  0.41800000000E+01 0.  1.
         -5    1    3    3    0  502 -0.30326851340E+02  0.46680551811E+01 -0.38084719002E+02  0.49085913181E+02  0.41800000000E+01 0.  1.
        -11    1    4    4    0    0  0.41020199799E+02  0.27368895295E+02 -0.58639834228E+02  0.76618166119E+02  0.00000000000E+00 0. -1.
         11    1    4    4    0    0 -0.13622815056E+01  0.60048248452E+02  0.22258621326E+02  0.64055399276E+02  0.00000000000E+00 0.  1.
</event>
<event>
 8    1  0.6945825E-009  0.3121920E+03  0.7561462E-02  0.1079300E+00
          2   -1    0    0  501    0  0.00000000000E+00  0.00000000000E+00  0.30006299984E+03  0.30006299984E+03  0.00000000000E+00 0. -1.
         -2   -1    0    0    0  501 -0.00000000000E+00 -0.00000000000E+00 -0.35362428529E+03  0.35362428529E+03  0.00000000000E+00 0.  1.
         25    2    1    2    0    0  0.43661772904E+02  0.30108170501E+03  0.16591301581E+02  0.32936207675E+03  0.12509021868E+03 0.  0.
         23    2    1    2    0    0 -0.43661772904E+02 -0.30108170501E+03 -0.70152587034E+02  0.32432520837E+03  0.87800408951E+02 0.  0.
          5    1    3    3  502    0  0.52750921777E+02  0.27068264467E+03 -0.24938870261E+02  0.27693171274E+03  0.41800000000E+01 0. -1.
         -5    1    3    3    0  502 -0.90891488724E+01  0.30399060347E+02  0.41530171842E+02  0.52430364012E+02  0.41800000000E+01 0. -1.
        -11    1    4    4    0    0  0.16723345352E+02 -0.18474058799E+03 -0.44522850137E+02  0.19076435546E+03  0.00000000000E+00 0. -1.
         11    1    4    4    0    0 -0.60385118256E+02 -0.11634111703E+03 -0.25629736897E+02  0.13356085291E+03  0.00000000000E+00 0.  1.
</event>
<event>
 8    1  0.6945825E-009  0.5396320E+02  0.7561462E-02  0.1425067E+00
          3   -1    0    0  501    0  0.00000000000E+00  0.00000000000E+00  0.14734312968E+03  0.14734312968E+03  0.00000000000E+00 0.  1.
         -3   -1    0    0    0  501 -0.00000000000E+00 -0.00000000000E+00 -0.87546434152E+02  0.87546434152E+02  0.00000000000E+00 0. -1.
         25    2    1    2    0    0 -0.20809319302E+02  0.54935548671E+01 -0.51512941980E+01  0.12703426319E+03  0.12509181139E+03 0.  0.
         23    2    1    2    0    0  0.20809319302E+02 -0.54935548671E+01  0.64947989729E+02  0.10785530065E+03  0.83374562025E+02 0.  0.
          5    1    3    3  502    0  0.14596834601E+02 -0.22597800742E+02  0.49195499887E+02  0.56226308681E+02  0.41800000000E+01 0.  1.
         -5    1    3    3    0  502 -0.35406153902E+02  0.28091355609E+02 -0.54346794085E+02  0.70807954507E+02  0.41800000000E+01 0.  1.
        -11    1    4    4    0    0  0.12694234828E+02  0.11085646953E+02  0.81401552981E+02  0.83127901417E+02  0.00000000000E+00 0.  1.
         11    1    4    4    0    0  0.81150844733E+01 -0.16579201820E+02 -0.16453563252E+02  0.24727399230E+02  0.00000000000E+00 0. -1.
</event>
<event>
 8    1  0.6945825E-009  0.9573926E+02  0.7561462E-02  0.1289520E+00
          3   -1    0    0  501    0  0.00000000000E+00  0.00000000000E+00  0.27480413138E+02  0.27480413138E+02  0.00000000000E+00 0. -1.
         -3   -1    0    0    0  501 -0.00000000000E+00 -0.00000000000E+00 -0.55183397808E+03  0.55183397808E+03  0.00000000000E+00 0.  1.
         25    2    1    2    0    0  0.15293525680E+01  0.53793838205E+02 -0.36881584193E+03  0.39314932043E+03  0.12508056182E+03 0.  0.
         23    2    1    2    0    0 -0.15293525680E+01 -0.53793838205E+02 -0.15553772301E+03  0.18616507079E+03  0.87001921556E+02 0.  0.
          5    1    3    3  502    0  0.14440700353E+02 -0.19813260544E+02 -0.25935733631E+03  0.26054711554E+03  0.41800000000E+01 0.  1.
         -5    1    3    3    0  502 -0.12911347785E+02  0.73607098749E+02 -0.10945850563E+03  0.13260220489E+03  0.41800000000E+01 0.  1.
        -11    1    4    4    0    0 -0.33160265792E+01 -0.72696850465E+02 -0.14944934095E+03  0.16622555042E+03  0.00000000000E+00 0.  1.
         11    1    4    4    0    0  0.17866740112E+01  0.18903012261E+02 -0.60883820549E+01  0.19939520370E+02  0.00000000000E+00 0. -1.
</event>
<event>
 8    1  0.6945825E-009  0.2203481E+03  0.7561462E-02  0.1133624E+00
         -2   -1    0    0    0  501 -0.00000000000E+00  0.00000000000E+00  0.26205257899E+02  0.26205257899E+02  0.00000000000E+00 0.  1.
          2   -1    0    0  501    0  0.00000000000E+00 -0.00000000000E+00 -0.19690206515E+04  0.19690206515E+04  0.00000000000E+00 0. -1.
         25    2    1    2    0    0 -0.76973269537E+02  0.18215032284E+03 -0.11056222863E+04  0.11301115710E+04  0.12509156040E+03 0.  0.
         23    2    1    2    0    0  0.76973269537E+02 -0.18215032284E+03 -0.83719310723E+03  0.86511433839E+03  0.91798122837E+02 0.  0.
          5    1    3    3  502    0  0.26149349625E+02  0.24852077757E+01 -0.11185959209E+03  0.11497828267E+03  0.41800000000E+01 0.  1.
         -5    1    3    3    0  502 -0.10312261916E+03  0.17966511506E+03 -0.99376269425E+03  0.10151332883E+04  0.41800000000E+01 0.  1.
        -11    1    4    4    0    0  0.79330862822E+02 -0.11500031662E+03 -0.67932231936E+03  0.69353966880E+03  0.00000000000E+00 0. -1.
         11    1    4    4    0    0 -0.23575932847E+01 -0.67150006217E+02 -0.15787078787E+03  0.17157466958E+03  0.00000000000E+00 0.  1.
</event>
<event>
 8    1  0.6945825E-009  0.1159466E+03  0.7561462E-02  0.1249938E+00
          1   -1    0    0  501    0  0.00000000000E+00  0.00000000000E+00  0.20213699136E+03  0.20213699136E+03  0.00000000000E+00 0. -1.
         -1   -1    0    0    0  501 -0.00000000000E+00 -0.00000000000E+00 -0.96676061072E+02  0.96676061072E+02  0.00000000000E+00 0.  1.
         25    2    1    2    0    0 -0.82527310722E+02  0.14761489464E+02  0.78646184817E+02  0.16988501579E+03  0.12508811940E+03 0.  0.
         23    2    1    2    0    0  0.82527310722E+02 -0.14761489464E+02  0.26814745474E+02  0.12892803665E+03  0.94205888741E+02 0.  0.
          5    1    3    3  502    0 -0.94797488867E+02  0.50985131650E+02  0.38794694523E+02  0.11449256861E+03  0.41800000000E+01 0. -1.
         -5    1    3    3    0  502  0.12270178145E+02 -0.36223642186E+02  0.39851490294E+02  0.55392447171E+02  0.41800000000E+01 0. -1.
        -11    1    4    4    0    0  0.60490937986E+02 -0.26361922652E+01 -0.29425367985E+02  0.67319799235E+02  0.00000000000E+00 0.  1.
         11    1    4    4    0    0  0.22036372736E+02 -0.12125297199E+02  0.56240113459E+02  0.61608237415E+02  0.00000000000E+00 0. -1.
</event>
<event>
 8    1  0.6945825E-009  0.9088851E+02  0.7561462E-02  0.1300714E+00
         -1   -1    0    0    0  501 -0.00000000000E+00  0.00000000000E+00  0.44676696243E+02  0.44676696243E+02  0.00000000000E+00 0.  1.
          1   -1    0    0  501    0  0.00000000000E+00 -0.00000000000E+00 -0.31348538909E+03  0.31348538909E+03  0.00000000000E+00 0. -1.
         25    2    1    2    0    0 -0.25431051215E+02 -0.25387454105E+02 -0.20090599576E+03  0.23937845598E+03  0.12509022689E+03 0.  0.
         23    2    1    2    0    0  0.25431051215E+02  0.25387454105E+02 -0.67902697088E+02  0.11878362935E+03  0.90595326250E+02 0.  0.
          5    1    3    3  502    0 -0.41134038327E+02  0.23431677989E+02 -0.17583256626E+03  0.18214174809E+03  0.41800000000E+01 0.  1.
         -5    1    3    3    0  502  0.15702987112E+02 -0.48819132094E+02 -0.25073429500E+02  0.57236707885E+02  0.41800000000E+01 0.  1.
        -11    1    4    4    0    0 -0.11265599850E+02 -0.20893064177E+02  0.57010528717E+01  0.24411797855E+02  0.00000000000E+00 0.  1.
         11    1    4    4    0    0  0.36696651066E+02  0.46280518282E+02 -0.73603749960E+02  0.94371831497E+02  0.00000000000E+00 0. -1.
</event>
<event>
 8    1  0.6945825E-009  0.1827428E+03  0.7561462E-02  0.1165175E+00
          1   -1    0    0  501    0  0.00000000000E+00  0.00000000000E+00  0.29146270232E+03  0.29146270232E+03  0.00000000000E+00 0. -1.
         -1   -1    0    0    0  501 -0.00000000000E+00 -0.00000000000E+00 -0.26138194070E+03  0.26138194070E+03  0.00000000000E+00 0.  1.
         25    2    1    2    0    0  0.96169037471E+02 -0.13472935462E+03  0.20786930907E+03  0.29369132854E+03  0.12507783195E+03 0.  0.
         23    2    1    2    0    0 -0.96169037471E+02  0.13472935462E+03 -0.17778854744E+03  0.25915331448E+03  0.90283941207E+02 0.  0.
          5    1    3    3  502    0  0.11128090211E+03 -0.10603664362E+03  0.21073191427E+03  0.26086897296E+03  0.41800000000E+01 0.  1.
         -5    1    3    3    0  502 -0.15111864637E+02 -0.28692710996E+02 -0.28626052022E+01  0.32822355578E+02  0.41800000000E+01 0.  1.
        -11    1    4    4    0    0 -0.10371371364E+03  0.10212543051E+03 -0.17177711887E+03  0.22515220745E+03  0.00000000000E+00 0.  1.
         11    1    4    4    0    0  0.75446761694E+01  0.32603924105E+02 -0.60114285767E+01  0.34001107028E+02  0.00000000000E+00 0. -1.
</event>
<event>
 8    1  0.6945825E-009  0.1019919E+03  0.7561462E-02  0.1276162E+00
         -2   -1    0    0    0  501 -0.00000000000E+00  0.00000000000E+00  0.56660632715E+02  0.56660632715E+02  0.00000000000E+00 0.  1.
          2   -1    0    0  501    0  0.00000000000E+00 -0.00000000000E+00 -0.30534879286E+03  0.30534879286E+03  0.00000000000E+00 0. -1.
         25    2    1    2    0    0  0.63491618845E+02 -0.32311409528E+02 -0.15474841218E+03  0.21135135240E+03  0.12508840969E+03 0.  0.
         23    2    1    2    0    0 -0.63491618845E+02  0.32311409528E+02 -0.93939747971E+02  0.15065807318E+03  0.93797472866E+02 0.  0.
          5    1    3    3  502    0  0.85553260185E+02  0.43762040350E+01 -0.52840862080E+02  0.10073797990E+03  0.41800000000E+01 0.  1.
         -5    1    3    3    0  502 -0.22061641340E+02 -0.36687613563E+02 -0.10190755010E+03  0.11061337249E+03  0.41800000000E+01 0.  1.
        -11    1    4    4    0    0 -0.58534184813E+02  0.19877168621E+02 -0.11214923279E+03  0.12805781131E+03  0.00000000000E+00 0. -1.
         11    1    4    4    0    0 -0.49574340311E+01  0.12434240907E+02  0.18209484815E+02  0.22600261865E+02  0.00000000000E+00 0.  1.
</event>
<event>
 8    1  0.6945825E-009  0.8396795E+02  0.7561462E-02  0.1318154E+00
         -2   -1    0    0    0  501 -0.00000000000E+00  0.00000000000E+00  0.97229494806E+02  0.97229494806E+02  0.00000000000E+00 0.  1.
          2   -1    0    0  501    0  0.00000000000E+00 -0.00000000000E+00 -0.14615245677E+03  0.14615245677E+03  0.00000000000E+00 0. -1.
         25    2    1    2    0    0  0.33289138644E+01  0.20046236963E+02 -0.75092463700E+02  0.14730675758E+03  0.12508984548E+03 0.  0.
         23    2    1    2    0    0 -0.33289138644E+01 -0.20046236963E+02  0.26169501739E+02  0.96075193988E+02  0.90181299584E+02 0.  0.
          5    1    3    3  502    0 -0.11295260015E+02 -0.25978214984E+02 -0.91701091893E+02  0.96067753211E+02  0.41800000000E+01 0.  1.
         -5    1    3    3    0  502  0.14624173879E+02  0.46024451948E+02  0.16608628193E+02  0.51239004374E+02  0.41800000000E+01 0.  1.
        -11    1    4    4    0    0 -0.45922662911E+02 -0.12240067219E+02  0.22598295343E+02  0.52625024150E+02  0.00000000000E+00 0.  1.
         11    1    4    4    0    0  0.42593749046E+02 -0.78061697439E+01  0.35712063954E+01  0.43450169839E+02  0.00000000000E+00 0. -1.
</event>
<event>
 8    1  0.6945825E-009  0.1403164E+03  0.7561462E-02  0.1212904E+00
         -4   -1    0    0    0  501 -0.00000000000E+00  0.00000000000E+00  0.11157707404E+03  0.11157707404E+03  0.00000000000E+00 0.  1.
          4   -1    0    0  501    0  0.00000000000E+00 -0.00000000000E+00 -0.36698400256E+03  0.36698400256E+03  0.00000000000E+00 0. -1.
         25    2    1    2    0    0 -0.11652657428E+03  0.24869924933E+02 -0.27650948245E+03  0.32604038147E+03  0.12509148968E+03 0.  0.
         23    2    1    2    0    0  0.11652657428E+03 -0.24869924933E+02  0.21102553924E+02  0.15252069513E+03  0.92845511373E+02 0.  0.
          5    1    3    3  502    0 -0.26668407686E+02 -0.41493514253E+02 -0.14619922619E+03  0.15435220061E+03  0.41800000000E+01 0. -1.
         -5    1    3    3    0  502 -0.89858166591E+02  0.66363439186E+02 -0.13031025625E+03  0.17168818087E+03  0.41800000000E+01 0. -1.
        -11    1    4    4    0    0  0.59650775615E+02 -0.16211244491E+02 -0.35940805358E+02  0.71503573122E+02  0.00000000000E+00 0. -1.
         11    1    4    4    0    0  0.56875798662E+02 -0.86586804419E+01  0.57043359281E+02  0.81017122008E+02  0.00000000000E+00 0.  1.
</event>
<event>
 8    1  0.6945825E-009  0.7943187E+02  0.7561462E-02  0.1330671E+00
         -2   -1    0    0    0  501 -0.00000000000E+00  0.00000000000E+00  0.34932518994E+02  0.34932518994E+02  0.00000000000E+00 0. -1.
          2   -1    0    0  501    0  0.00000000000E+00 -0.00000000000E+00 -0.38885077118E+03  0.38885077118E+03  0.00000000000E+00 0.  1.
         25    2    1    2    0    0  0.15201873658E+02  0.34869206117E+02 -0.15820732671E+03  0.20523894379E+03  0.12508599972E+03 0.  0.
         23    2    1    2    0    0 -0.15201873658E+02 -0.34869206117E+02 -0.19571092547E+03  0.21854434638E+03  0.89509253641E+02 0.  0.
          5    1    3    3  502    0  0.40680360702E+02 -0.14203902668E+01 -0.15530734272E+03  0.16060744802E+03  0.41800000000E+01 0.  1.
         -5    1    3    3    0  502 -0.25478487044E+02  0.36289596383E+02 -0.28999839868E+01  0.44631495772E+02  0.41800000000E+01 0.  1.
        -11    1    4    4    0    0  0.58908985898E+01 -0.48132137700E+02 -0.18530151798E+03  0.19154126953E+03  0.00000000000E+00 0.  1.
         11    1    4    4    0    0 -0.21092772248E+02  0.13262931584E+02 -0.10409407494E+02  0.27003076855E+02  0.00000000000E+00 0. -1.
</event>
<event>
 8    1  0.6945825E-009  0.1631352E+03  0.7561462E-02  0.1185202E+00
         -1   -1    0    0    0  501 -0.00000000000E+00  0.00000000000E+00  0.61325156797E+02  0.61325156797E+02  0.00000000000E+00 0.  1.
          1   -1    0    0  501    0  0.00000000000E+00 -0.00000000000E+00 -0.49058350550E+03  0.49058350550E+03  0.00000000000E+00 0. -1.
         25    2    1    2    0    0 -0.57975529033E+02  0.12124794675E+03 -0.24606050654E+03  0.30700937038E+03  0.12508698599E+03 0.  0.
         23    2    1    2    0    0  0.57975529033E+02 -0.12124794675E+03 -0.18319784216E+03  0.24489929191E+03  0.91389207517E+02 0.  0.
          5    1    3    3  502    0 -0.94647123615E+02  0.10943515986E+03 -0.19815475529E+03  0.24539134391E+03  0.41800000000E+01 0. -1.
         -5    1    3    3    0  502  0.36671594581E+02  0.11812786893E+02 -0.47905751252E+02  0.61618026472E+02  0.41800000000E+01 0. -1.
        -11    1    4    4    0    0  0.30858528850E+02 -0.10850640441E+03 -0.82279687107E+02  0.13962748838E+03  0.00000000000E+00 0.  1.
         11    1    4    4    0    0  0.27117000184E+02 -0.12741542338E+02 -0.10091815505E+03  0.10527180353E+03  0.00000000000E+00 0. -1.
</event>
<event>
 8    1  0.6945825E-009  0.1137615E+03  0.7561462E-02  0.1253759E+00
          1   -1    0    0  501    0  0.00000000000E+00  0.00000000000E+00  0.51822520107E+03  0.51822520107E+03  0.00000000000E+00 0. -1.
         -1   -1    0    0    0  501 -0.00000000000E+00 -0.00000000000E+00 -0.29662772082E+02  0.29662772082E+02  0.00000000000E+00 0.  1.
         25    2    1    2    0    0  0.35060687741E+02 -0.33497452855E+02  0.34227591561E+03  0.36762504522E+03  0.12507613798E+03 0.  0.
         23    2    1    2    0    0 -0.35060687741E+02  0.33497452855E+02  0.14628651338E+03  0.18026292793E+03  0.93507475735E+02 0.  0.
          5    1    3    3  502    0  0.42819751990E+02  0.38348572959E+02  0.19787657180E+03  0.20609889441E+03  0.41800000000E+01 0. -1.
         -5    1    3    3    0  502 -0.77590642498E+01 -0.71846025813E+02  0.14439934381E+03  0.16152615081E+03  0.41800000000E+01 0. -1.
        -11    1    4    4    0    0  0.16859352484E+02  0.41664759561E+02  0.34243372609E+02  0.56504853978E+02  0.00000000000E+00 0.  1.
         11    1    4    4    0    0 -0.51920040225E+02 -0.81673067063E+01  0.11204314077E+03  0.12375807395E+03  0.00000000000E+00 0. -1.
</event>
<event>
 8    1  0.6945825E-009  0.1068812E+03  0.7561462E-02  0.1266457E+00
          1   -1    0    0  501    0  0.00000000000E+00  0.00000000000E+00  0.84777681695E+02  0.84777681695E+02  0.00000000000E+00 0. -1.
         -1   -1    0    0    0  501 -0.00000000000E+00 -0.00000000000E+00 -0.19143808000E+03  0.19143808000E+03  0.00000000000E+00 0.  1.
         25    2    1    2    0    0 -0.53318684923E+02  0.33906424484E+02 -0.81748719592E+02  0.16224404045E+03  0.12509095780E+03 0.  0.
         23    2    1    2    0    0  0.53318684923E+02 -0.33906424484E+02 -0.24911678715E+02  0.11397172125E+03  0.91522859028E+02 0.  0.
          5    1    3    3  502    0  0.10000058036E+02  0.63193771070E+02 -0.15539288699E+02  0.65972689471E+02  0.41800000000E+01 0. -1.
         -5    1    3    3    0  502 -0.63318742959E+02 -0.29287346585E+02 -0.66209430893E+02  0.96271350978E+02  0.41800000000E+01 0. -1.
        -11    1    4    4    0    0 -0.68479681213E+01 -0.15326331920E+02 -0.44875676566E+02  0.47912602359E+02  0.00000000000E+00 0.  1.
         11    1    4    4    0    0  0.60166653044E+02 -0.18580092565E+02  0.19963997852E+02  0.66059118889E+02  0.00000000000E+00 0. -1.
</event>
<event>
 8    1  0.6945825E-009  0.1288363E+03  0.7561462E-02  0.1229193E+00
         -1   -1    0    0    0  501 -0.00000000000E+00  0.00000000000E+00  0.40322412956E+02  0.40322412956E+02  0.00000000000E+00 0.  1.
          1   -1    0    0  501    0  0.00000000000E+00 -0.00000000000E+00 -0.80770842067E+03  0.80770842067E+03  0.00000000000E+00 0. -1.
         25    2    1    2    0    0 -0.15369164540E+02 -0.11035488337E+03 -0.61709907065E+03  0.63943283493E+03  0.12509466769E+03 0.  0.
         23    2    1    2    0    0  0.15369164540E+02  0.11035488337E+03 -0.15028693707E+03  0.20859799870E+03  0.92263481985E+02 0.  0.
          5    1    3    3  502    0  0.21653786674E+02 -0.54627286582E+02 -0.50785966971E+03  0.51126504226E+03  0.41800000000E+01 0.  1.
         -5    1    3    3    0  502 -0.37022951215E+02 -0.55727596784E+02 -0.10923940094E+03  0.12816779267E+03  0.41800000000E+01 0.  1.
        -11    1    4    4    0    0  0.41614203231E+02  0.87633669298E+02 -0.14351763077E+03  0.17323022902E+03  0.00000000000E+00 0. -1.
         11    1    4    4    0    0 -0.26245038690E+02  0.22721214068E+02 -0.67693063015E+01  0.35367769683E+02  0.00000000000E+00 0.  1.
</event>
<event>
 8    1  0.6945825E-009  0.9361639E+02  0.7561462E-02  0.1294323E+00
         -1   -1    0    0    0  501 -0.00000000000E+00  0.00000000000E+00  0.11250815984E+03  0.11250815984E+03  0.00000000000E+00 0.  1.
          1   -1    0    0  501    0  0.00000000000E+00 -0.00000000000E+00 -0.11443226524E+03  0.11443226524E+03  0.00000000000E+00 0. -1.
         25    2    1    2    0    0  0.32085406409E+02  0.10538577514E+02  0.20742386144E+02  0.13121659220E+03  0.12508801927E+03 0.  0.
         23    2    1    2    0    0 -0.32085406409E+02 -0.10538577514E+02 -0.22666491549E+02  0.95723832882E+02  0.86653028926E+02 0.  0.
          5    1    3    3  502    0 -0.26512443494E+02 -0.37791153264E+02 -0.12785946492E+02  0.48083612102E+02  0.41800000000E+01 0.  1.
         -5    1    3    3    0  502  0.58597849903E+02  0.48329730778E+02  0.33528332636E+02  0.83132980096E+02  0.41800000000E+01 0.  1.
        -11    1    4    4    0    0  0.14022086426E+02 -0.12321309256E+02 -0.41795082956E+02  0.45774037716E+02  0.00000000000E+00 0. -1.
         11    1    4    4    0    0 -0.46107492835E+02  0.17827317424E+01  0.19128591406E+02  0.49949795167E+02  0.00000000000E+00 0.  1.
</event>
<event>
 8    1  0.6945825E-009  0.9538471E+02  0.7561462E-02  0.1290312E+00
          1   -1    0    0  501    0  0.00000000000E+00  0.00000000000E+00  0.30195774231E+02  0.30195774231E+02  0.00000000000E+00 0. -1.
         -1   -1    0    0    0  501 -0.00000000000E+00 -0.00000000000E+00 -0.51294665518E+03  0.51294665518E+03  0.00000000000E+00 0.  1.
         25    2    1    2    0    0  0.18670072951E+02 -0.19882714266E+01 -0.39643164816E+03  0.41612325676E+03  0.12509191942E+03 0.  0.
         23    2    1    2    0    0 -0.18670072951E+02  0.19882714266E+01 -0.86319232786E+02  0.12701917265E+03  0.91270671220E+02 0.  0.
          5    1    3    3  502    0  0.59681192364E+02  0.20258005025E+02 -0.11860990998E+03  0.13438011250E+03  0.41800000000E+01 0.  1.
         -5    1    3    3    0  502 -0.41011119413E+02 -0.22246276452E+02 -0.27782173819E+03  0.28174314426E+03  0.41800000000E+01 0.  1.
        -11    1    4    4    0    0 -0.19179576966E+02 -0.37050297613E+02 -0.12569148758E+02  0.43572516869E+02  0.00000000000E+00 0. -1.
         11    1    4    4    0    0  0.50950401507E+00  0.39038569040E+02 -0.73750084028E+02  0.83446655781E+02  0.00000000000E+00 0.  1.
</event>
<event>
 8    1  0.6945825E-009  0.2282769E+03  0.7561462E-02  0.1127858E+00
          3   -1    0    0  501    0  0.00000000000E+00  0.00000000000E+00  0.26611685135E+03  0.26611685135E+03  0.00000000000E+00 0. -1.
         -3   -1    0    0    0  501 -0.00000000000E+00 -0.00000000000E+00 -0.25580348122E+03  0.25580348122E+03  0.00000000000E+00 0.  1.
         25    2    1    2    0    0 -0.16996008217E+03  0.12143130896E+03  0.11778012113E+03  0.27047468532E+03  0.12510957653E+03 0.  0.
         23    2    1    2    0    0  0.16996008217E+03 -0.12143130896E+03 -0.10746675100E+03  0.25144564725E+03  0.89687338148E+02 0.  0.
          5    1    3    3  502    0 -0.39863103710E+02 -0.13826101438E+02  0.61134045412E+02  0.74398064671E+02  0.41800000000E+01 0. -1.
         -5    1    3    3    0  502 -0.13009697846E+03  0.13525741039E+03  0.56646075721E+02  0.19607662065E+03  0.41800000000E+01 0. -1.
        -11    1    4    4    0    0  0.49412330651E+02  0.74458077683E+01 -0.33155404322E+02  0.59969152983E+02  0.00000000000E+00 0.  1.
         11    1    4    4    0    0  0.12054775152E+03 -0.12887711672E+03 -0.74311346678E+02  0.19147649426E+03  0.00000000000E+00 0. -1.
</event>
<event>
 8    1  0.6945825E-009  0.1040585E+03  0.7561462E-02  0.1271986E+00
          1   -1    0    0  501    0  0.00000000000E+00  0.00000000000E+00  0.41111542024E+03  0.41111542024E+03  0.00000000000E+00 0. -1.
         -1   -1    0    0    0  501 -0.00000000000E+00 -0.00000000000E+00 -0.45939296767E+02  0.45939296767E+02  0.00000000000E+00 0.  1.
         25    2    1    2    0    0  0.53584867908E+02 -0.35168306389E+02  0.29074951771E+03  0.32294024239E+03  0.12508785019E+03 0.  0.
         23    2    1    2    0    0 -0.53584867908E+02  0.35168306389E+02  0.74426605766E+02  0.13411447462E+03  0.91319356182E+02 0.  0.
          5    1    3    3  502    0 -0.23699421869E+02  0.31320809820E+00  0.47439361050E+01  0.24530349081E+02  0.41800000000E+01 0. -1.
         -5    1    3    3    0  502  0.77284289777E+02 -0.35481514487E+02  0.28600558161E+03  0.29840989331E+03  0.41800000000E+01 0. -1.
        -11    1    4    4    0    0 -0.66878321885E+02  0.46486848976E+02  0.81551032125E+02  0.11525757201E+03  0.00000000000E+00 0. -1.
         11    1    4    4    0    0  0.13293453977E+02 -0.11318542587E+02 -0.71244263590E+01  0.18856902606E+02  0.00000000000E+00 0.  1.
</event>
<event>
 8    1  0.6945825E-009  0.1067946E+03  0.7561462E-02  0.1266624E+00
          1   -1    0    0  501    0  0.00000000000E+00  0.00000000000E+00  0.28383787313E+03  0.28383787313E+03  0.00000000000E+00 0. -1.
         -1   -1    0    0    0  501 -0.00000000000E+00 -0.00000000000E+00 -0.51957304837E+02  0.51957304837E+02  0.00000000000E+00 0.  1.
         25    2    1    2    0    0  0.53787102075E+02 -0.73009033329E+01  0.12912716335E+03  0.18779066161E+03  0.12508058496E+03 0.  0.
         23    2    1    2    0    0 -0.53787102075E+02  0.73009033329E+01  0.10275340494E+03  0.14800451635E+03  0.91655436798E+02 0.  0.
          5    1    3    3  502    0  0.47877643907E+02  0.53841845527E+02  0.51260049810E+02  0.88522755393E+02  0.41800000000E+01 0. -1.
         -5    1    3    3    0  502  0.59094581678E+01 -0.61142748860E+02  0.77867113542E+02  0.99267906220E+02  0.41800000000E+01 0. -1.
        -11    1    4    4    0    0  0.85677944549E+01 -0.11846281257E+02 -0.10021104296E+02  0.17724672430E+02  0.00000000000E+00 0.  1.
         11    1    4    4    0    0 -0.62354896530E+02  0.19147184590E+02  0.11277450923E+03  0.13027984392E+03  0.00000000000E+00 0. -1.
</event>
<event>
 8    1  0.6945825E-009  0.1148241E+03  0.7561462E-02  0.1251888E+00
          1   -1    0    0  501    0  0.00000000000E+00  0.00000000000E+00  0.78849955149E+02  0.78849955149E+02  0.00000000000E+00 0. -1.
         -1   -1    0    0    0  501 -0.00000000000E+00 -0.00000000000E+00 -0.18722768004E+03  0.18722768004E+03  0.00000000000E+00 0.  1.
         25    2    1    2    0    0 -0.13793917098E+02  0.38452624311E+02 -0.94189973912E+02  0.16182452726E+03  0.12508617019E+03 0.  0.
         23    2    1    2    0    0  0.13793917098E+02 -0.38452624311E+02 -0.14187750974E+02  0.10425310792E+03  0.94860643935E+02 0.  0.
          5    1    3    3  502    0  0.52729846623E+02 -0.83984687713E+00 -0.27225812305E+02  0.59496716912E+02  0.41800000000E+01 0. -1.
         -5    1    3    3    0  502 -0.66523763721E+02  0.39292471188E+02 -0.66964161608E+02  0.10232781035E+03  0.41800000000E+01 0. -1.
        -11    1    4    4    0    0  0.34479891150E+02  0.18251425533E+02 -0.19585494707E+02  0.43652823856E+02  0.00000000000E+00 0.  1.
         11    1    4    4    0    0 -0.20685974052E+02 -0.56704049844E+02  0.53977437333E+01  0.60600284063E+02  0.00000000000E+00 0. -1.
</event>
<event>
 8    1  0.6945825E-009  0.1179909E+03  0.7561462E-02  0.1246449E+00
         -2   -1    0    0    0  501 -0.00000000000E+00  0.00000000000E+00  0.88681982869E+02  0.88681982869E+02  0.00000000000E+00 0.  1.
          2   -1    0    0  501    0  0.00000000000E+00 -0.00000000000E+00 -0.22794386351E+03  0.22794386351E+03  0.00000000000E+00 0. -1.
         25    2    1    2    0    0  0.84554441296E+02 -0.26450690007E+02 -0.10721766844E+03  0.18705732956E+03  0.12508286682E+03 0.  0.
         23    2    1    2    0    0 -0.84554441296E+02  0.26450690007E+02 -0.32044212206E+02  0.12956851682E+03  0.88949853686E+02 0.  0.
          5    1    3    3  502    0 -0.92069971217E+00 -0.50429093364E+02 -0.78983166738E+02  0.93807004928E+02  0.41800000000E+01 0. -1.
         -5    1    3    3    0  502  0.85475141008E+02  0.23978403357E+02 -0.28234501699E+02  0.93250324632E+02  0.41800000000E+01 0. -1.
        -11    1    4    4    0    0 -0.78170856402E+02  0.35148381945E+02 -0.56624295150E+02  0.10272488669E+03  0.00000000000E+00 0. -1.
         11    1    4    4    0    0 -0.63835848937E+01 -0.86976919385E+01  0.24580082944E+02  0.26843630132E+02  0.00000000000E+00 0.  1.
</event>
<event>
 8    1  0.6945825E-009  0.2678349E+03  0.7561462E-02  0.1102525E+00
          2   -1    0    0  501    0  0.00000000000E+00  0.00000000000E+00  0.98642757345E+03  0.98642757345E+03  0.00000000000E+00 0. -1.
         -2   -1    0    0    0  501 -0.00000000000E+00 -0.00000000000E+00 -0.88848420313E+02  0.88848420313E+02  0.00000000000E+00 0.  1.
         25    2    1    2    0    0 -0.16602180100E+03  0.20932127723E+03  0.57426488387E+03  0.64560594405E+03  0.12509293602E+03 0.  0.
         23    2    1    2    0    0  0.16602180100E+03 -0.20932127723E+03  0.32331426926E+03  0.42967004971E+03  0.93303801629E+02 0.  0.
          5    1    3    3  502    0 -0.11702663885E+03  0.13638525763E+03  0.49706049967E+03  0.52856672751E+03  0.41800000000E+01 0. -1.
         -5    1    3    3    0  502 -0.48995162150E+02  0.72936019601E+02  0.77204384202E+02  0.11703921654E+03  0.41800000000E+01 0. -1.
        -11    1    4    4    0    0  0.14748301643E+03 -0.19514841250E+03  0.23825129853E+03  0.34146423574E+03  0.00000000000E+00 0.  1.
         11    1    4    4    0    0  0.18538784568E+02 -0.14172864727E+02  0.85062970733E+02  0.88205813968E+02  0.00000000000E+00 0. -1.
</event>
<event>
 8    1  0.6945825E-009  0.1012241E+03  0.7561462E-02  0.1277743E+00
          1   -1    0    0  501    0  0.00000000000E+00  0.00000000000E+00  0.24143469629E+02  0.24143469629E+02  0.00000000000E+00 0. -1.
         -1   -1    0    0    0  501 -0.00000000000E+00 -0.00000000000E+00 -0.60914655455E+03  0.60914655455E+03  0.00000000000E+00 0.  1.
         25    2    1    2    0    0  0.28856560332E+02 -0.38931713098E+02 -0.40187157761E+03  0.42366829067E+03  0.12508267777E+03 0.  0.
         23    2    1    2    0    0 -0.28856560332E+02  0.38931713098E+02 -0.18313150732E+03  0.20962173351E+03  0.89753790044E+02 0.  0.
          5    1    3    3  502    0 -0.66446355508E+01  0.29895232428E+02 -0.27575702394E+02  0.41421828376E+02  0.41800000000E+01 0. -1.
         -5    1    3    3    0  502  0.35501195883E+02 -0.68826945525E+02 -0.37429587521E+03  0.38224646230E+03  0.41800000000E+01 0. -1.
        -11    1    4    4    0    0 -0.50671589440E+02  0.48518704961E+02 -0.16617172516E+03  0.18037382557E+03  0.00000000000E+00 0.  1.
         11    1    4    4    0    0  0.21815029108E+02 -0.95869918637E+01 -0.16959782158E+02  0.29247907939E+02  0.00000000000E+00 0. -1.
</event>
<event>
 8    1  0.6945825E-009  0.1234108E+03  0.7561462E-02  0.1237574E+00
         -2   -1    0    0    0  501 -0.00000000000E+00  0.00000000000E+00  0.69721347224E+02  0.69721347224E+02  0.00000000000E+00 0. -1.
          2   -1    0    0  501    0  0.00000000000E+00 -0.00000000000E+00 -0.26200340322E+03  0.26200340322E+03  0.00000000000E+00 0.  1.
         25    2    1    2    0    0  0.51644691274E+02 -0.61780144771E+02 -0.10220603826E+03  0.18049282861E+03  0.12509047325E+03 0.  0.
         23    2    1    2    0    0 -0.51644691274E+02  0.61780144771E+02 -0.90076017741E+02  0.15123192184E+03  0.90958478359E+02 0.  0.
          5    1    3    3  502    0 -0.31334512369E+02 -0.45108413517E+02 -0.11327002209E+02  0.56235167062E+02  0.41800000000E+01 0. -1.
         -5    1    3    3    0  502  0.82979203643E+02 -0.16671731254E+02 -0.90879036048E+02  0.12425766155E+03  0.41800000000E+01 0. -1.
        -11    1    4    4    0    0 -0.69436898089E+02  0.46756178606E+02 -0.33708342701E+02  0.90243423149E+02  0.00000000000E+00 0. -1.
         11    1    4    4    0    0  0.17792206815E+02  0.15023966165E+02 -0.56367675039E+02  0.60988498686E+02  0.00000000000E+00 0.  1.
</event>
<event>
 8    1  0.6945825E-009  0.2844250E+03  0.7561462E-02  0.1093296E+00
         -1   -1    0    0    0  501 -0.00000000000E+00  0.00000000000E+00  0.18838979509E+03  0.18838979509E+03  0.00000000000E+00 0.  1.
          1   -1    0    0  501    0  0.00000000000E+00 -0.00000000000E+00 -0.47172545061E+03  0.47172545061E+03  0.00000000000E+00 0. -1.
         25    2    1    2    0    0 -0.20099479351E+03  0.18202331902E+03 -0.75695752595E+02  0.30806977320E+03  0.12508294254E+03 0.  0.
         23    2    1    2    0    0  0.20099479351E+03 -0.18202331902E+03 -0.20763990292E+03  0.35204547249E+03  0.85383193502E+02 0.  0.
          5    1    3    3  502    0 -0.34844314248E+02 -0.46443875832E+01  0.19740516005E+02  0.40532171711E+02  0.41800000000E+01 0.  1.
         -5    1    3    3    0  502 -0.16615047926E+03  0.18666770660E+03 -0.95436268600E+02  0.26753760149E+03  0.41800000000E+01 0.  1.
        -11    1    4    4    0    0  0.81963406335E+02 -0.23480730386E+02 -0.74612154422E+02  0.11329747687E+03  0.00000000000E+00 0. -1.
         11    1    4    4    0    0  0.11903138717E+03 -0.15854258863E+03 -0.13302774850E+03  0.23874799562E+03  0.00000000000E+00 0.  1.
</event>
<event>
 8    1  0.6945825E-009  0.1048625E+03  0.7561462E-02  0.1270391E+00
          1   -1    0    0  501    0  0.00000000000E+00  0.00000000000E+00  0.19208125871E+03  0.19208125871E+03  0.00000000000E+00 0. -1.
         -1   -1    0    0    0  501 -0.00000000000E+00 -0.00000000000E+00 -0.90668097633E+02  0.90668097633E+02  0.00000000000E+00 0.  1.
         25    2    1    2    0    0  0.53459370217E+02 -0.28544837075E+02  0.86250856831E+02  0.16357740416E+03  0.12508255218E+03 0.  0.
         23    2    1    2    0    0 -0.53459370217E+02  0.28544837075E+02  0.15162304250E+02  0.11917195219E+03  0.10148569717E+03 0.  0.
          5    1    3    3  502    0  0.53256055404E+01  0.43262136158E+02  0.36533780805E+01  0.43940801890E+02  0.41800000000E+01 0. -1.
         -5    1    3    3    0  502  0.48133764677E+02 -0.71806973233E+02  0.82597478751E+02  0.11963660227E+03  0.41800000000E+01 0. -1.
        -11    1    4    4    0    0  0.97979708366E+01  0.86672451572E+01 -0.34129504070E+02  0.36550573446E+02  0.00000000000E+00 0.  1.
         11    1    4    4    0    0 -0.63257341054E+02  0.19877591918E+02  0.49291808321E+02  0.82621378742E+02  0.00000000000E+00 0. -1.
</event>
<event>
 8    1  0.6945825E-009  0.1288586E+03  0.7561462E-02  0.1229159E+00
          2   -1    0    0  501    0  0.00000000000E+00  0.00000000000E+00  0.80653376611E+03  0.80653376611E+03  0.00000000000E+00 0. -1.
         -2   -1    0    0    0  501 -0.00000000000E+00 -0.00000000000E+00 -0.28851580816E+02  0.28851580816E+02  0.00000000000E+00 0.  1.
         25    2    1    2    0    0  0.74270152860E+02 -0.53532086295E+02  0.26270546843E+03  0.30502969399E+03  0.12508881326E+03 0.  0.
         23    2    1    2    0    0 -0.74270152860E+02  0.53532086295E+02  0.51497671686E+03  0.53035565294E+03  0.87717500080E+02 0.  0.
          5    1    3    3  502    0  0.80157857308E+02  0.66268879952E+01  0.84183045960E+02  0.11650517310E+03  0.41800000000E+01 0.  1.
         -5    1    3    3    0  502 -0.58877044474E+01 -0.60158974290E+02  0.17852242247E+03  0.18852452089E+03  0.41800000000E+01 0.  1.
        -11    1    4    4    0    0 -0.16758961217E+02 -0.18137693962E+02  0.43620304309E+02  0.50125539113E+02  0.00000000000E+00 0.  1.
         11    1    4    4    0    0 -0.57511191643E+02  0.71669780257E+02  0.47135641256E+03  0.48023011382E+03  0.00000000000E+00 0. -1.
</event>
<event>
 8    1  0.6945825E-009  0.1327482E+03  0.7561462E-02  0.1223434E+00
          1   -1    0    0  501    0  0.00000000000E+00  0.00000000000E+00  0.10663694348E+04  0.10663694348E+04  0.00000000000E+00 0. -1.
         -1   -1    0    0    0  501 -0.00000000000E+00 -0.00000000000E+00 -0.18359755636E+02  0.18359755636E+02  0.00000000000E+00 0.  1.
         25    2    1    2    0    0 -0.88356389991E+02  0.33389708843E+01  0.59857096394E+03  0.61786056397E+03  0.12508587955E+03 0.  0.
         23    2    1    2    0    0  0.88356389991E+02 -0.33389708843E+01  0.44943871519E+03  0.46686862643E+03  0.90294824061E+02 0.  0.
          5    1    3    3  502    0 -0.86058406663E+02 -0.45548876736E+02  0.30452306894E+03  0.31973820767E+03  0.41800000000E+01 0. -1.
         -5    1    3    3    0  502 -0.22979833280E+01  0.48887847621E+02  0.29404789500E+03  0.29812235630E+03  0.41800000000E+01 0. -1.
        -11    1    4    4    0    0  0.28860230441E+02 -0.39781534012E+02  0.11226054372E+03  0.12254759494E+03  0.00000000000E+00 0.  1.
         11    1    4    4    0    0  0.59496159550E+02  0.36442563128E+02  0.33717817147E+03  0.34432103149E+03  0.00000000000E+00 0. -1.
</event>
<event>
 8    1  0.6945825E-009  0.1354084E+03  0.7561462E-02  0.1219644E+00
          2   -1    0    0  501    0  0.00000000000E+00  0.00000000000E+00  0.23969196187E+03  0.23969196187E+03  0.00000000000E+00 0. -1.
         -2   -1    0    0    0  501 -0.00000000000E+00 -0.00000000000E+00 -0.10427034369E+03  0.10427034369E+03  0.00000000000E+00 0.  1.
         25    2    1    2    0    0 -0.15361855934E+02 -0.85405181687E+02 -0.65628165665E+01  0.15238483817E+03  0.12509211273E+03 0.  0.
         23    2    1    2    0    0  0.15361855934E+02  0.85405181687E+02  0.14198443475E+03  0.19157746738E+03  0.94933211366E+02 0.  0.
          5    1    3    3  502    0  0.38971954082E+02  0.20169597397E+01  0.22640739462E+02  0.45309566484E+02  0.41800000000E+01 0.  1.
         -5    1    3    3    0  502 -0.54333810016E+02 -0.87422141427E+02 -0.29203556029E+02  0.10707527169E+03  0.41800000000E+01 0.  1.
        -11    1    4    4    0    0 -0.38435528786E+02  0.53930457506E+02  0.76150413375E+02  0.10091912394E+03  0.00000000000E+00 0.  1.
         11    1    4    4    0    0  0.53797384720E+02  0.31474724182E+02  0.65834021375E+02  0.90658343441E+02  0.00000000000E+00 0. -1.
</event>
<event>
 8    1  0.6945825E-009  0.1726472E+03  0.7561462E-02  0.1175115E+00
         -2   -1    0    0    0  501 -0.00000000000E+00  0.00000000000E+00  0.39764301457E+02  0.39764301457E+02  0.00000000000E+00 0.  1.
          2   -1    0    0  501    0  0.00000000000E+00 -0.00000000000E+00 -0.99338533115E+03  0.99338533115E+03  0.00000000000E+00 0. -1.
         25    2    1    2    0    0  0.73003062568E+02  0.14628201596E+03 -0.59619770392E+03  0.63073483343E+03  0.12508737988E+03 0.  0.
         23    2    1    2    0    0 -0.73003062568E+02 -0.14628201596E+03 -0.35742332577E+03  0.40241479918E+03  0.86361805514E+02 0.  0.
          5    1    3    3  502    0  0.27571678547E+02  0.31902453323E+02 -0.37651933802E+03  0.37889609168E+03  0.41800000000E+01 0.  1.
         -5    1    3    3    0  502  0.45431384020E+02  0.11437956264E+03 -0.21967836590E+03  0.25183874175E+03  0.41800000000E+01 0.  1.
        -11    1    4    4    0    0 -0.24877785037E+02 -0.12448684000E+03 -0.20530484875E+03  0.24138342619E+03  0.00000000000E+00 0.  1.
         11    1    4    4    0    0 -0.48125277531E+02 -0.21795175963E+02 -0.15211847702E+03  0.16103137298E+03  0.00000000000E+00 0. -1.
</event>
<event>
 8    1  0.6945825E-009  0.2413406E+03  0.7561462E-02  0.1118903E+00
          2   -1    0    0  501    0  0.00000000000E+00  0.00000000000E+00  0.24924749270E+03  0.24924749270E+03  0.00000000000E+00 0. -1.
         -2   -1    0    0    0  501 -0.00000000000E+00 -0.00000000000E+00 -0.27107598082E+03  0.27107598082E+03  0.00000000000E+00 0.  1.
         25    2    1    2    0    0 -0.22779814747E+03 -0.41387488373E+02  0.36235132763E+02  0.26564191804E+03  0.12509086134E+03 0.  0.
         23    2    1    2    0    0  0.22779814747E+03  0.41387488373E+02 -0.58063620884E+02  0.25468155548E+03  0.88805351450E+02 0.  0.
          5    1    3    3  502    0 -0.72004863948E+02 -0.50971258467E+02  0.61288180100E+02  0.10750108391E+03  0.41800000000E+01 0. -1.
         -5    1    3    3    0  502 -0.15579328352E+03  0.95837700938E+01 -0.25053047338E+02  0.15814083413E+03  0.41800000000E+01 0. -1.
        -11    1    4    4    0    0  0.14753087804E+03  0.53724790432E+02 -0.71231142664E+02  0.17241110396E+03  0.00000000000E+00 0.  1.
         11    1    4    4    0    0  0.80267269427E+02 -0.12337302059E+02  0.13167521780E+02  0.82270451520E+02  0.00000000000E+00 0. -1.
</event>
<event>
 8    1  0.6945825E-009  0.1114725E+03  0.7561462E-02  0.1257867E+00
          2   -1    0    0  501    0  0.00000000000E+00  0.00000000000E+00  0.23538061108E+03  0.23538061108E+03  0.00000000000E+00 0. -1.
         -2   -1    0    0    0  501 -0.00000000000E+00 -0.00000000000E+00 -0.11280346924E+03  0.11280346924E+03  0.00000000000E+00 0.  1.
         25    2    1    2    0    0  0.78536509954E+02 -0.66489751145E+02 -0.26141103328E+01  0.16199505211E+03  0.12508674163E+03 0.  0.
         23    2    1    2    0    0 -0.78536509954E+02  0.66489751145E+02  0.12519125217E+03  0.18618902821E+03  0.91676792050E+02 0.  0.
          5    1    3    3  502    0  0.24158185353E+02 -0.48177120342E+02  0.57408462563E+02  0.78853388119E+02  0.41800000000E+01 0. -1.
         -5    1    3    3    0  502  0.54378324602E+02 -0.18312630803E+02 -0.60022572896E+02  0.83141663987E+02  0.41800000000E+01 0. -1.
        -11    1    4    4    0    0 -0.43680851342E+02  0.62532004693E+02  0.25374346385E+02  0.80387348752E+02  0.00000000000E+00 0.  1.
         11    1    4    4    0    0 -0.34855658612E+02  0.39577464519E+01  0.99816905788E+02  0.10580167945E+03  0.00000000000E+00 0. -1.
</event>
<event>
 8    1  0.6945825E-009  0.1101994E+03  0.7561462E-02  0.1260201E+00
          2   -1    0    0  501    0  0.00000000000E+00  0.00000000000E+00  0.16924492613E+03  0.16924492613E+03  0.00000000000E+00 0.  1.
         -2   -1    0    0    0  501 -0.00000000000E+00 -0.00000000000E+00 -0.86720144895E+02  0.86720144895E+02  0.00000000000E+00 0. -1.
         25    2    1    2    0    0  0.35212715241E+02  0.30727427127E+02  0.63060404430E+02  0.14767675394E+03  0.12509076286E+03 0.  0.
         23    2    1    2    0    0 -0.35212715241E+02 -0.30727427127E+02  0.19464376804E+02  0.10828831709E+03  0.95725584673E+02 0.  0.
          5    1    3    3  502    0  0.74207472809E+02 -0.12278374314E+02  0.35787662175E+02  0.83401059108E+02  0.41800000000E+01 0. -1.
         -5    1    3    3    0  502 -0.38994757568E+02  0.43005801441E+02  0.27272742255E+02  0.64275694827E+02  0.41800000000E+01 0. -1.
        -11    1    4    4    0    0 -0.52562279768E+02 -0.41034792859E+02 -0.15000816127E+02  0.68349630313E+02  0.00000000000E+00 0. -1.
         11    1    4    4    0    0  0.17349564527E+02  0.10307365732E+02  0.34465192930E+02  0.39938686776E+02  0.00000000000E+00 0.  1.
</event>
<event>
 8    1  0.6945825E-009  0.1823170E+03  0.7561462E-02  0.1165579E+00
          1   -1    0    0  501    0  0.00000000000E+00  0.00000000000E+00  0.24963756314E+03  0.24963756314E+03  0.00000000000E+00 0. -1.
         -1   -1    0    0    0  501 -0.00000000000E+00 -0.00000000000E+00 -0.16367256140E+03  0.16367256140E+03  0.00000000000E+00 0.  1.
         25    2    1    2    0    0 -0.15290902895E+03 -0.70122499961E+02  0.24160220600E+02  0.21101092172E+03  0.12507420473E+03 0.  0.
         23    2    1    2    0    0  0.15290902895E+03  0.70122499961E+02  0.61804781143E+02  0.20229920283E+03  0.93844554227E+02 0.  0.
          5    1    3    3  502    0 -0.14947643391E+03 -0.58159572809E+02  0.61192749918E+02  0.17172001994E+03  0.41800000000E+01 0. -1.
         -5    1    3    3    0  502 -0.34325950350E+01 -0.11962927152E+02 -0.37032529319E+02  0.39290901777E+02  0.41800000000E+01 0. -1.
        -11    1    4    4    0    0  0.10519020243E+03  0.90888437303E+02  0.33247433150E+02  0.14293732380E+03  0.00000000000E+00 0.  1.
         11    1    4    4    0    0  0.47718826515E+02 -0.20765937342E+02  0.28557347993E+02  0.59361879031E+02  0.00000000000E+00 0. -1.
</event>
<event>
 8    1  0.6945825E-009  0.1106060E+03  0.7561462E-02  0.1259452E+00
         -2   -1    0    0    0  501 -0.00000000000E+00  0.00000000000E+00  0.26820394348E+02  0.26820394348E+02  0.00000000000E+00 0. -1.
          2   -1    0    0  501    0  0.00000000000E+00 -0.00000000000E+00 -0.71170827422E+03  0.71170827422E+03  0.00000000000E+00 0.  1.
         25    2    1    2    0    0  0.52135519901E+02  0.60231557152E+02 -0.28989055616E+03  0.32562267166E+03  0.12509051457E+03 0.  0.
         23    2    1    2    0    0 -0.52135519901E+02 -0.60231557152E+02 -0.39499732371E+03  0.41290599691E+03  0.90125044423E+02 0.  0.
          5    1    3    3  502    0  0.71545300091E+02  0.51017586750E+02 -0.94881112415E+02  0.12938864717E+03  0.41800000000E+01 0.  1.
         -5    1    3    3    0  502 -0.19409780191E+02  0.92139704021E+01 -0.19500944375E+03  0.19623402449E+03  0.41800000000E+01 0.  1.
        -11    1    4    4    0    0 -0.30939241595E+02  0.14141110928E+02 -0.58821352007E+02  0.67949680946E+02  0.00000000000E+00 0. -1.
         11    1    4    4    0    0 -0.21196278306E+02 -0.74372668081E+02 -0.33617597171E+03  0.34495631597E+03  0.00000000000E+00 0.  1.
</event>
<event>
 8    1  0.6945825E-009  0.1187108E+03  0.7561462E-02  0.1245239E+00
         -1   -1    0    0    0  501 -0.00000000000E+00  0.00000000000E+00  0.14083606937E+03  0.14083606937E+03  0.00000000000E+00 0.  1.
          1   -1    0    0  501    0  0.00000000000E+00 -0.00000000000E+00 -0.17450459236E+03  0.17450459236E+03  0.00000000000E+00 0. -1.
         25    2    1    2    0    0 -0.45068711648E+02  0.65737911705E+02  0.62282487283E+02  0.16087102218E+03  0.12509083000E+03 0.  0.
         23    2    1    2    0    0  0.45068711648E+02 -0.65737911705E+02 -0.95951010268E+02  0.15446963955E+03  0.91113178882E+02 0.  0.
          5    1    3    3  502    0 -0.75131113343E+02  0.48354101888E+02  0.81461627757E+02  0.12098046354E+03  0.41800000000E+01 0.  1.
         -5    1    3    3    0  502  0.30062401695E+02  0.17383809816E+02 -0.19179140474E+02  0.39890558642E+02  0.41800000000E+01 0.  1.
        -11    1    4    4    0    0  0.51226625850E+02 -0.44677699319E+01 -0.16612822126E+02  0.54038079380E+02  0.00000000000E+00 0.  1.
         11    1    4    4    0    0 -0.61579142021E+01 -0.61270141773E+02 -0.79338188142E+02  0.10043156017E+03  0.00000000000E+00 0. -1.
</event>
<event>
 8    1  0.6945825E-009  0.1676631E+03  0.7561462E-02  0.1180307E+00
          2   -1    0    0  501    0  0.00000000000E+00  0.00000000000E+00  0.86099264575E+03  0.86099264575E+03  0.00000000000E+00 0.  1.
         -2   -1    0    0    0  501 -0.00000000000E+00 -0.00000000000E+00 -0.37795205717E+02  0.37795205717E+02  0.00000000000E+00 0. -1.
         25    2    1    2    0    0  0.87714576144E+02 -0.11211382983E+03  0.39402188283E+03  0.43722323360E+03  0.12509018402E+03 0.  0.
         23    2    1    2    0    0 -0.87714576144E+02  0.11211382983E+03  0.42917555719E+03  0.46156461786E+03  0.92665418923E+02 0.  0.
          5    1    3    3  502    0  0.10800191039E+03 -0.11458110263E+03  0.38187357687E+03  0.41308369956E+03  0.41800000000E+01 0. -1.
         -5    1    3    3    0  502 -0.20287334247E+02  0.24672727964E+01  0.12148305960E+02  0.24139534039E+02  0.41800000000E+01 0. -1.
        -11    1    4    4    0    0 -0.29675323464E+02 -0.11351204263E+01  0.28476835031E+02  0.41144178865E+02  0.00000000000E+00 0. -1.
         11    1    4    4    0    0 -0.58039252680E+02  0.11324895026E+03  0.40069872216E+03  0.42042043900E+03  0.00000000000E+00 0.  1.
</event>
<event>
 8    1  0.6945825E-009  0.1317832E+03  0.7561462E-02  0.1224833E+00
          1   -1    0    0  501    0  0.00000000000E+00  0.00000000000E+00  0.34304066973E+02  0.34304066973E+02  0.00000000000E+00 0. -1.
         -1   -1    0    0    0  501 -0.00000000000E+00 -0.00000000000E+00 -0.61996761260E+03  0.61996761260E+03  0.00000000000E+00 0.  1.
         25    2    1    2    0    0 -0.82551658580E+02  0.49973810349E+02 -0.28459279618E+03  0.32550323169E+03  0.12508851327E+03 0.  0.
         23    2    1    2    0    0  0.82551658580E+02 -0.49973810349E+02 -0.30107074945E+03  0.32876844788E+03  0.90182803754E+02 0.  0.
          5    1    3    3  502    0 -0.18715566440E+02  0.64881801038E+02 -0.23107129198E+03  0.24077237156E+03  0.41800000000E+01 0.  1.
         -5    1    3    3    0  502 -0.63836092140E+02 -0.14907990688E+02 -0.53521504200E+02  0.84730860127E+02  0.41800000000E+01 0.  1.
        -11    1    4    4    0    0  0.15640498352E+02 -0.60500058024E+02 -0.17208625341E+03  0.18308074946E+03  0.00000000000E+00 0.  1.
         11    1    4    4    0    0  0.66911160228E+02  0.10526247674E+02 -0.12898449604E+03  0.14568769843E+03  0.00000000000E+00 0. -1.
</event>
<event>
 8    1  0.6945825E-009  0.1021742E+03  0.7561462E-02  0.1275789E+00
          2   -1    0    0  501    0  0.00000000000E+00  0.00000000000E+00  0.42597267198E+03  0.42597267198E+03  0.00000000000E+00 0.  1.
         -2   -1    0    0    0  501 -0.00000000000E+00 -0.00000000000E+00 -0.37801129630E+02  0.37801129630E+02  0.00000000000E+00 0. -1.
         25    2    1    2    0    0  0.26694509302E+02  0.49312754283E+02  0.15331861093E+03  0.20566378968E+03  0.12508658348E+03 0.  0.
         23    2    1    2    0    0 -0.26694509302E+02 -0.49312754283E+02  0.23485293143E+03  0.25811001193E+03  0.91216962781E+02 0.  0.
          5    1    3    3  502    0 -0.22015785303E+02  0.42868818647E+02  0.41437198573E+01  0.48549698547E+02  0.41800000000E+01 0.  1.
         -5    1    3    3    0  502  0.48710294605E+02  0.64439356354E+01  0.14917489107E+03  0.15711409113E+03  0.41800000000E+01 0.  1.
        -11    1    4    4    0    0 -0.54062656535E+02 -0.46233878850E+01  0.10816737239E+03  0.12101374714E+03  0.00000000000E+00 0. -1.
         11    1    4    4    0    0  0.27368147233E+02 -0.44689366398E+02  0.12668555903E+03  0.13709626479E+03  0.00000000000E+00 0.  1.
</event>
<event>
 8    1  0.6945825E-009  0.8212852E+02  0.7561462E-02  0.1323117E+00
         -1   -1    0    0    0  501 -0.00000000000E+00  0.00000000000E+00  0.21275645227E+03  0.21275645227E+03  0.00000000000E+00 0.  1.
          1   -1    0    0  501    0  0.00000000000E+00 -0.00000000000E+00 -0.57447880450E+02  0.57447880450E+02  0.00000000000E+00 0. -1.
         25    2    1    2    0    0  0.20660855355E+02 -0.46827338419E+00  0.84968233345E+02  0.15262705593E+03  0.12509327440E+03 0.  0.
         23    2    1    2    0    0 -0.20660855355E+02  0.46827338419E+00  0.70340338472E+02  0.11757727679E+03  0.91921502250E+02 0.  0.
          5    1    3    3  502    0  0.19335822264E+02  0.32394415854E+02 -0.19748521240E+02  0.42787249180E+02  0.41800000000E+01 0. -1.
         -5    1    3    3    0  502  0.13250330901E+01 -0.32862689238E+02  0.10471675459E+03  0.10983980675E+03  0.41800000000E+01 0. -1.
        -11    1    4    4    0    0 -0.62485571519E+01  0.45467617424E+02  0.25835612642E+02  0.52667139483E+02  0.00000000000E+00 0. -1.
         11    1    4    4    0    0 -0.14412298203E+02 -0.44999344040E+02  0.44504725830E+02  0.64910137303E+02  0.00000000000E+00 0.  1.
</event>
<event>
 8    1  0.6945825E-009  0.1029307E+03  0.7561462E-02  0.1274251E+00
         -2   -1    0    0    0  501 -0.00000000000E+00  0.00000000000E+00  0.34754332368E+02  0.34754332368E+02  0.00000000000E+00 0.  1.
          2   -1    0    0  501    0  0.00000000000E+00 -0.00000000000E+00 -0.44353617565E+03  0.44353617565E+03  0.00000000000E+00 0. -1.
         25    2    1    2    0    0  0.33287798417E+02  0.48045738784E+02 -0.25313442103E+03  0.28834206091E+03  0.12509052098E+03 0.  0.
         23    2    1    2    0    0 -0.33287798417E+02 -0.48045738784E+02 -0.15564742225E+03  0.18994844711E+03  0.91857617904E+02 0.  0.
          5    1    3    3  502    0  0.60568084997E+02 -0.18403235962E+02 -0.90700197325E+02  0.11068500444E+03  0.41800000000E+01 0.  1.
         -5    1    3    3    0  502 -0.27280286580E+02  0.66448974746E+02 -0.16243422370E+03  0.17765705646E+03  0.41800000000E+01 0.  1.
        -11    1    4    4    0    0 -0.14904827293E+02  0.38663234527E+01  0.79509382591E+01  0.17329736088E+02  0.00000000000E+00 0.  1.
         11    1    4    4    0    0 -0.18382971123E+02 -0.51912062237E+02 -0.16359836051E+03  0.17261871102E+03  0.00000000000E+00 0. -1.
</event>
<event>
 8    1  0.6945825E-009  0.1279357E+03  0.7561462E-02  0.1230551E+00
          2   -1    0    0  501    0  0.00000000000E+00  0.00000000000E+00  0.89805761841E+02  0.89805761841E+02  0.00000000000E+00 0. -1.
         -2   -1    0    0    0  501 -0.00000000000E+00 -0.00000000000E+00 -0.23835404917E+03  0.23835404917E+03  0.00000000000E+00 0.  1.
         25    2    1    2    0    0  0.64404475796E+02  0.51072152741E+02 -0.18112887703E+02  0.15077199725E+03  0.12509123537E+03 0.  0.
         23    2    1    2    0    0 -0.64404475796E+02 -0.51072152741E+02 -0.13043539963E+03  0.17738781377E+03  0.87731076067E+02 0.  0.
          5    1    3    3  502    0 -0.34495681602E+02  0.33417668097E+02  0.19095742587E+01  0.48247398522E+02  0.41800000000E+01 0.  1.
         -5    1    3    3    0  502  0.98900157398E+02  0.17654484643E+02 -0.20022461962E+02  0.10252459873E+03  0.41800000000E+01 0.  1.
        -11    1    4    4    0    0 -0.55876878244E+02 -0.55518569688E+00 -0.10770927510E+03  0.12134175578E+03  0.00000000000E+00 0.  1.
         11    1    4    4    0    0 -0.85275975516E+01 -0.50516967044E+02 -0.22726124527E+02  0.56046057982E+02  0.00000000000E+00 0. -1.
</event>
<event>
 8    1  0.6945825E-009  0.1602927E+03  0.7561462E-02  0.1188367E+00
         -1   -1    0    0    0  501 -0.00000000000E+00  0.00000000000E+00  0.69014944587E+02  0.69014944587E+02  0.00000000000E+00 0.  1.
          1   -1    0    0  501    0  0.00000000000E+00 -0.00000000000E+00 -0.47579390440E+03  0.47579390440E+03  0.00000000000E+00 0. -1.
         25    2    1    2    0    0 -0.13892942296E+03  0.17232948259E+02 -0.26778343370E+03  0.32703513223E+03  0.12508257784E+03 0.  0.
         23    2    1    2    0    0  0.13892942296E+03 -0.17232948259E+02 -0.13899552611E+03  0.21777371675E+03  0.92234897724E+02 0.  0.
          5    1    3    3  502    0 -0.31742604696E+02 -0.40189680135E+02 -0.14645903956E+03  0.15521123030E+03  0.41800000000E+01 0.  1.
         -5    1    3    3    0  502 -0.10718681827E+03  0.57422628394E+02 -0.12132439414E+03  0.17182390194E+03  0.41800000000E+01 0.  1.
        -11    1    4    4    0    0  0.13268374518E+03 -0.38243655731E+01 -0.75772344374E+02  0.15284322092E+03  0.00000000000E+00 0.  1.
         11    1    4    4    0    0  0.62456777819E+01 -0.13408582686E+02 -0.63223181739E+02  0.64930495839E+02  0.00000000000E+00 0. -1.
</event>
<event>
 8    1  0.6945825E-009  0.1506308E+03  0.7561462E-02  0.1199700E+00
         -2   -1    0    0    0  501 -0.00000000000E+00  0.00000000000E+00  0.72869248583E+02  0.72869248583E+02  0.00000000000E+00 0. -1.
          2   -1    0    0  501    0  0.00000000000E+00 -0.00000000000E+00 -0.41757822461E+03  0.41757822461E+03  0.00000000000E+00 0.  1.
         25    2    1    2    0    0  0.81075753099E+01 -0.12505441791E+03 -0.10761054732E+03  0.20720007206E+03  0.12508996664E+03 0.  0.
         23    2    1    2    0    0 -0.81075753099E+01  0.12505441791E+03 -0.23709842871E+03  0.28324740113E+03  0.91154183302E+02 0.  0.
          5    1    3    3  502    0 -0.43978566914E+02 -0.34597527281E+02  0.15154538582E+01  0.56132630815E+02  0.41800000000E+01 0.  1.
         -5    1    3    3    0  502  0.52086142224E+02 -0.90456890625E+02 -0.10912600117E+03  0.15106744125E+03  0.41800000000E+01 0.  1.
        -11    1    4    4    0    0  0.16361036744E+02  0.35509097227E+01 -0.12175669134E+01  0.16786153591E+02  0.00000000000E+00 0. -1.
         11    1    4    4    0    0 -0.24468612054E+02  0.12150350818E+03 -0.23588086180E+03  0.26646124754E+03  0.00000000000E+00 0.  1.
</event>
<event>
 8    1  0.6945825E-009  0.1546703E+03  0.7561462E-02  0.1194849E+00
          1   -1    0    0  501    0  0.00000000000E+00  0.00000000000E+00  0.56419172666E+03  0.56419172666E+03  0.00000000000E+00 0. -1.
         -1   -1    0    0    0  501 -0.00000000000E+00 -0.00000000000E+00 -0.52958687445E+02  0.52958687445E+02  0.00000000000E+00 0.  1.
         25    2    1    2    0    0 -0.95237472977E+01  0.13231585007E+03  0.30376908226E+03  0.35428904354E+03  0.12508750974E+03 0.  0.
         23    2    1    2    0    0  0.95237472977E+01 -0.13231585007E+03  0.20746395695E+03  0.26286137056E+03  0.91959886673E+02 0.  0.
          5    1    3    3  502    0  0.30205008641E+02  0.77615581863E+02  0.26143666472E+03  0.27441414532E+03  0.41800000000E+01 0. -1.
         -5    1    3    3    0  502 -0.39728755938E+02  0.54700268208E+02  0.42332417548E+02  0.79874898222E+02  0.41800000000E+01 0. -1.
        -11    1    4    4    0    0 -0.32375460406E+02 -0.19320609628E+02  0.73919549542E+02  0.82979251608E+02  0.00000000000E+00 0. -1.
         11    1    4    4    0    0  0.41899207703E+02 -0.11299524044E+03  0.13354440741E+03  0.17988211896E+03  0.00000000000E+00 0.  1.
</event>
<event>
 8    1  0.6945825E-009  0.1175296E+03  0.7561462E-02  0.1247229E+00
         -2   -1    0    0    0  501 -0.00000000000E+00  0.00000000000E+00  0.84591416853E+02  0.84591416853E+02  0.00000000000E+00 0. -1.
          2   -1    0    0  501    0  0.00000000000E+00 -0.00000000000E+00 -0.23406116193E+03  0.23406116193E+03  0.00000000000E+00 0.  1.
         25    2    1    2    0    0  0.33299764486E+02 -0.60989047577E+02 -0.13955742543E+03  0.19988495650E+03  0.12509669301E+03 0.  0.
         23    2    1    2    0    0 -0.33299764486E+02  0.60989047577E+02 -0.99123196485E+01  0.11876762229E+03  0.95806867102E+02 0.  0.
          5    1    3    3  502    0 -0.32727311449E+02 -0.14521684109E+02 -0.10668476608E+03  0.11261024792E+03  0.41800000000E+01 0.  1.
         -5    1    3    3    0  502  0.66027075934E+02 -0.46467363468E+02 -0.32872659354E+02  0.87274708576E+02  0.41800000000E+01 0.  1.
        -11    1    4    4    0    0  0.23092902158E+02  0.57152197738E+02 -0.85205282278E+01  0.62227447622E+02  0.00000000000E+00 0. -1.
         11    1    4    4    0    0 -0.56392666644E+02  0.38368498392E+01 -0.13917914207E+01  0.56540174666E+02  0.00000000000E+00 0.  1.
</event>
<event>
 8    1  0.6945825E-009  0.1298459E+03  0.7561462E-02  0.1227685E+00
         -2   -1    0    0    0  501 -0.00000000000E+00  0.00000000000E+00  0.41649183634E+02  0.41649183634E+02  0.00000000000E+00 0.  1.
          2   -1    0    0  501    0  0.00000000000E+00 -0.00000000000E+00 -0.88447450869E+03  0.88447450869E+03  0.00000000000E+00 0. -1.
         25    2    1    2    0    0  0.87405580135E+02  0.13077326168E+02 -0.75760328831E+03  0.77292807613E+03  0.12507724216E+03 0.  0.
         23    2    1    2    0    0 -0.87405580135E+02 -0.13077326168E+02 -0.85222036747E+02  0.15319561620E+03  0.91626139158E+02 0.  0.
          5    1    3    3  502    0  0.44741945541E+02 -0.46131578354E+02 -0.52941114748E+03  0.53331379102E+03  0.41800000000E+01 0. -1.
         -5    1    3    3    0  502  0.42663634594E+02  0.59208904523E+02 -0.22819214083E+03  0.23961428511E+03  0.41800000000E+01 0. -1.
        -11    1    4    4    0    0 -0.54278534924E+02  0.34429196381E+02 -0.23196985457E+02  0.68334684101E+02  0.00000000000E+00 0.  1.
         11    1    4    4    0    0 -0.33127045211E+02 -0.47506522549E+02 -0.62025051289E+02  0.84860932098E+02  0.00000000000E+00 0. -1.
</event>
<event>
 8    1  0.6945825E-009  0.1089032E+03  0.7561462E-02  0.1262615E+00
         -2   -1    0    0    0  501 -0.00000000000E+00  0.00000000000E+00  0.75932684803E+02  0.75932684803E+02  0.00000000000E+00 0.  1.
          2   -1    0    0  501    0  0.00000000000E+00 -0.00000000000E+00 -0.29980298173E+03  0.29980298173E+03  0.00000000000E+00 0. -1.
         25    2    1    2    0    0 -0.37043658065E+00 -0.60217305233E+02 -0.17505675191E+02  0.13992927094E+03  0.12508993216E+03 0.  0.
         23    2    1    2    0    0  0.37043658065E+00  0.60217305233E+02 -0.20636462173E+03  0.23580639560E+03  0.96912527712E+02 0.  0.
          5    1    3    3  502    0 -0.34894532435E+02 -0.71230799475E+02 -0.47634401798E+02  0.92617297642E+02  0.41800000000E+01 0.  1.
         -5    1    3    3    0  502  0.34524095855E+02  0.11013494242E+02  0.30128726607E+02  0.47311973294E+02  0.41800000000E+01 0.  1.
        -11    1    4    4    0    0  0.33636025197E+02  0.59823574826E+02 -0.81312395626E+02  0.10640464265E+03  0.00000000000E+00 0.  1.
         11    1    4    4    0    0 -0.33265588616E+02  0.39373040707E+00 -0.12505222611E+03  0.12940175294E+03  0.00000000000E+00 0. -1.
</event>
<event>
 8    1  0.6945825E-009  0.1743991E+03  0.7561462E-02  0.1173336E+00
          1   -1    0    0  501    0  0.00000000000E+00  0.00000000000E+00  0.44994998237E+02  0.44994998237E+02  0.00000000000E+00 0. -1.
         -1   -1    0    0    0  501 -0.00000000000E+00 -0.00000000000E+00 -0.91307282273E+03  0.91307282273E+03  0.00000000000E+00 0.  1.
         25    2    1    2    0    0 -0.38446655007E+02 -0.13597587719E+03 -0.67524140994E+03  0.70111672790E+03  0.12508445140E+03 0.  0.
         23    2    1    2    0    0  0.38446655007E+02  0.13597587719E+03 -0.19283641456E+03  0.25695109308E+03  0.94182785013E+02 0.  0.
          5    1    3    3  502    0 -0.81054149068E+02 -0.63727066432E+02 -0.32718598904E+03  0.34307296294E+03  0.41800000000E+01 0.  1.
         -5    1    3    3    0  502  0.42607494061E+02 -0.72248810762E+02 -0.34805542090E+03  0.35804376495E+03  0.41800000000E+01 0.  1.
        -11    1    4    4    0    0 -0.18397513296E+02  0.53366065763E+01 -0.56882149691E+02  0.60021053129E+02  0.00000000000E+00 0.  1.
         11    1    4    4    0    0  0.56844168303E+02  0.13063927062E+03 -0.13595426487E+03  0.19693003995E+03  0.00000000000E+00 0. -1.
</event>
<event>
 8    1  0.6945825E-009  0.1468848E+03  0.7561462E-02  0.1204354E+00
         -1   -1    0    0    0  501 -0.00000000000E+00  0.00000000000E+00  0.61303691553E+02  0.61303691553E+02  0.00000000000E+00 0.  1.
          1   -1    0    0  501    0  0.00000000000E+00 -0.00000000000E+00 -0.40807210853E+03  0.40807210853E+03  0.00000000000E+00 0. -1.
         25    2    1    2    0    0  0.10255007746E+03 -0.49814737954E+02 -0.18711228529E+03  0.25229314645E+03  0.12507117147E+03 0.  0.
         23    2    1    2    0    0 -0.10255007746E+03  0.49814737954E+02 -0.15965613168E+03  0.21708265364E+03  0.92934232776E+02 0.  0.
          5    1    3    3  502    0  0.28663626123E+02  0.33269133812E+02 -0.10536685382E+03  0.11422821460E+03  0.41800000000E+01 0.  1.
         -5    1    3    3    0  502  0.73886451334E+02 -0.83083871766E+02 -0.81745431469E+02  0.13806493184E+03  0.41800000000E+01 0.  1.
        -11    1    4    4    0    0 -0.58256174506E+01  0.40840135382E+02 -0.17283016245E+02  0.44727587988E+02  0.00000000000E+00 0. -1.
         11    1    4    4    0    0 -0.96724460007E+02  0.89746025719E+01 -0.14237311544E+03  0.17235506565E+03  0.00000000000E+00 0.  1.
</event>
<event>
 8    1  0.6945825E-009  0.3253053E+03  0.7561462E-02  0.1073233E+00
          1   -1    0    0  501    0  0.00000000000E+00  0.00000000000E+00  0.62112241195E+03  0.62112241195E+03  0.00000000000E+00 0. -1.
         -1   -1    0    0    0  501 -0.00000000000E+00 -0.00000000000E+00 -0.20270542358E+03  0.20270542358E+03  0.00000000000E+00 0.  1.
         25    2    1    2    0    0  0.10619159138E+03 -0.28917342941E+03  0.52356074067E+02  0.33658001255E+03  0.12508804898E+03 0.  0.
         23    2    1    2    0    0 -0.10619159138E+03  0.28917342941E+03  0.36606091430E+03  0.48724782298E+03  0.92260076249E+02 0.  0.
          5    1    3    3  502    0 -0.20885661615E+02 -0.11200356656E+03  0.25836801676E+02  0.11690176433E+03  0.41800000000E+01 0.  1.
         -5    1    3    3    0  502  0.12707725299E+03 -0.17716986285E+03  0.26519272391E+02  0.21967824822E+03  0.41800000000E+01 0.  1.
        -11    1    4    4    0    0 -0.32895177339E+02  0.20188406699E+03  0.26618730031E+03  0.33570068222E+03  0.00000000000E+00 0. -1.
         11    1    4    4    0    0 -0.73296414039E+02  0.87289362419E+02  0.99873613990E+02  0.15154714076E+03  0.00000000000E+00 0.  1.
</event>
<event>
 8    1  0.6945825E-009  0.1342933E+03  0.7561462E-02  0.1221221E+00
          1   -1    0    0  501    0  0.00000000000E+00  0.00000000000E+00  0.67262305318E+03  0.67262305318E+03  0.00000000000E+00 0. -1.
         -1   -1    0    0    0  501 -0.00000000000E+00 -0.00000000000E+00 -0.43580006910E+02  0.43580006910E+02  0.00000000000E+00 0.  1.
         25    2    1    2    0    0 -0.34406808891E+02 -0.10174991604E+03  0.50061010251E+03  0.52706110040E+03  0.12508419127E+03 0.  0.
         23    2    1    2    0    0  0.34406808891E+02  0.10174991604E+03  0.12843294376E+03  0.18914195969E+03  0.87993101779E+02 0.  0.
          5    1    3    3  502    0 -0.64327977441E+02 -0.92562525178E+02  0.46902570689E+03  0.48239868975E+03  0.41800000000E+01 0.  1.
         -5    1    3    3    0  502  0.29921168550E+02 -0.91873908607E+01  0.31584395617E+02  0.44662410646E+02  0.41800000000E+01 0.  1.
        -11    1    4    4    0    0 -0.26766657070E+01  0.82286517863E+02  0.40516311752E+02  0.91759506752E+02  0.00000000000E+00 0.  1.
         11    1    4    4    0    0  0.37083474598E+02  0.19463398175E+02  0.87916632006E+02  0.97382452937E+02  0.00000000000E+00 0. -1.
</event>
<event>
 8    1  0.6945825E-009  0.2540614E+03  0.7561462E-02  0.1110765E+00
          4   -1    0    0  501    0  0.00000000000E+00  0.00000000000E+00  0.55566259712E+03  0.55566259712E+03  0.00000000000E+00 0. -1.
         -4   -1    0    0    0  501 -0.00000000000E+00 -0.00000000000E+00 -0.12905523827E+03  0.12905523827E+03  0.00000000000E+00 0.  1.
         25    2    1    2    0    0  0.24203403618E+03 -0.25160360201E+02  0.22933486932E+03  0.35700925913E+03  0.12509040901E+03 0.  0.
         23    2    1    2    0    0 -0.24203403618E+03  0.25160360201E+02  0.19727248953E+03  0.32770857626E+03  0.96244259224E+02 0.  0.
          5    1    3    3  502    0  0.31218984681E+01 -0.20000026066E+02  0.61718083755E+02  0.65087184262E+02  0.41800000000E+01 0.  1.
         -5    1    3    3    0  502  0.23891213771E+03 -0.51603341356E+01  0.16761678557E+03  0.29192207487E+03  0.41800000000E+01 0.  1.
        -11    1    4    4    0    0 -0.73045327959E+02  0.31019318994E+02  0.11484734176E+03  0.13959845987E+03  0.00000000000E+00 0. -1.
         11    1    4    4    0    0 -0.16898870822E+03 -0.58589587928E+01  0.82425147764E+02  0.18811011639E+03  0.00000000000E+00 0.  1.
</event>
<event>
 8    1  0.6945825E-009  0.1497169E+03  0.7561462E-02  0.1200821E+00
         -2   -1    0    0    0  501 -0.00000000000E+00  0.00000000000E+00  0.33857970692E+02  0.33857970692E+02  0.00000000000E+00 0.  1.
          2   -1    0    0  501    0  0.00000000000E+00 -0.00000000000E+00 -0.74882897148E+03  0.74882897148E+03  0.00000000000E+00 0. -1.
         25    2    1    2    0    0 -0.57511046240E+02  0.90722815852E+02 -0.27845777528E+03  0.32361455046E+03  0.12509794122E+03 0.  0.
         23    2    1    2    0    0  0.57511046240E+02 -0.90722815852E+02 -0.43651322551E+03  0.45907239172E+03  0.93088748175E+02 0.  0.
          5    1    3    3  502    0 -0.22422783950E+02 -0.29270429230E+02 -0.90772430827E+02  0.98064498498E+02  0.41800000000E+01 0. -1.
         -5    1    3    3    0  502 -0.35088262290E+02  0.11999324508E+03 -0.18768534445E+03  0.22555005196E+03  0.41800000000E+01 0. -1.
        -11    1    4    4    0    0  0.76559564975E+02 -0.47743834412E+02 -0.22539437470E+03  0.24278275240E+03  0.00000000000E+00 0.  1.
         11    1    4    4    0    0 -0.19048518736E+02 -0.42978981440E+02 -0.21111885080E+03  0.21628963932E+03  0.00000000000E+00 0. -1.
</event>
<event>
 8    1  0.6945825E-009  0.1108177E+03  0.7561462E-02  0.1259063E+00
         -2   -1    0    0    0  501 -0.00000000000E+00  0.00000000000E+00  0.33076760299E+02  0.33076760299E+02  0.00000000000E+00 0.  1.
          2   -1    0    0  501    0  0.00000000000E+00 -0.00000000000E+00 -0.42279651667E+03  0.42279651667E+03  0.00000000000E+00 0. -1.
         25    2    1    2    0    0 -0.42844859493E+02  0.15976776853E+02 -0.18595963259E+03  0.22873445440E+03  0.12509007273E+03 0.  0.
         23    2    1    2    0    0  0.42844859493E+02 -0.15976776853E+02 -0.20376012378E+03  0.22713882257E+03  0.89347172812E+02 0.  0.
          5    1    3    3  502    0 -0.81550263804E+02  0.22347575422E+02 -0.83356898209E+02  0.11880953048E+03  0.41800000000E+01 0.  1.
         -5    1    3    3    0  502  0.38705404311E+02 -0.63707985697E+01 -0.10260273438E+03  0.10992492392E+03  0.41800000000E+01 0.  1.
        -11    1    4    4    0    0  0.16865698309E+02  0.35813535118E+02 -0.11015612721E+03  0.11705312230E+03  0.00000000000E+00 0. -1.
         11    1    4    4    0    0  0.25979161184E+02 -0.51790311971E+02 -0.93603996568E+02  0.11008570027E+03  0.00000000000E+00 0.  1.
</event>
<event>
 8    1  0.6945825E-009  0.6287240E+02  0.7561462E-02  0.1386158E+00
          1   -1    0    0  501    0  0.00000000000E+00  0.00000000000E+00  0.25727031027E+02  0.25727031027E+02  0.00000000000E+00 0.  1.
         -1   -1    0    0    0  501 -0.00000000000E+00 -0.00000000000E+00 -0.52966303530E+03  0.52966303530E+03  0.00000000000E+00 0. -1.
         25    2    1    2    0    0 -0.20711283946E+02 -0.25874749207E+02 -0.32914316394E+03  0.35366729279E+03  0.12508745617E+03 0.  0.
         23    2    1    2    0    0  0.20711283946E+02  0.25874749207E+02 -0.17479284034E+03  0.20172277354E+03  0.95084596031E+02 0.  0.
          5    1    3    3  502    0 -0.72145280320E+01 -0.35197110645E+02 -0.15146162904E+02  0.39214342570E+02  0.41800000000E+01 0.  1.
         -5    1    3    3    0  502 -0.13496755914E+02  0.93223614375E+01 -0.31399700103E+03  0.31445295022E+03  0.41800000000E+01 0.  1.
        -11    1    4    4    0    0  0.22018572531E+02 -0.18190947349E+02 -0.86670732385E+01  0.29847047765E+02  0.00000000000E+00 0.  1.
         11    1    4    4    0    0 -0.13072885855E+01  0.44065696557E+02 -0.16612576710E+03  0.17187572577E+03  0.00000000000E+00 0. -1.
</event>
<event>
 8    1  0.6945825E-009  0.9362933E+02  0.7561462E-02  0.1294293E+00
          2   -1    0    0  501    0  0.00000000000E+00  0.00000000000E+00  0.60245513702E+03  0.60245513702E+03  0.00000000000E+00 0. -1.
         -2   -1    0    0    0  501 -0.00000000000E+00 -0.00000000000E+00 -0.21694604583E+02  0.21694604583E+02  0.00000000000E+00 0.  1.
         25    2    1    2    0    0 -0.44566218997E+01 -0.12717417407E+02  0.23801686357E+03  0.26922231453E+03  0.12508810139E+03 0.  0.
         23    2    1    2    0    0  0.44566218997E+01  0.12717417407E+02  0.34274366887E+03  0.35492742708E+03  0.91206698003E+02 0.  0.
          5    1    3    3  502    0 -0.49706443029E+02 -0.73635926515E+01  0.35663485748E+02  0.61760097078E+02  0.41800000000E+01 0. -1.
         -5    1    3    3    0  502  0.45249821129E+02 -0.53538247554E+01  0.20235337783E+03  0.20746221745E+03  0.41800000000E+01 0. -1.
        -11    1    4    4    0    0 -0.42708283372E+02  0.22534291155E+01  0.13369588316E+03  0.14036974241E+03  0.00000000000E+00 0. -1.
         11    1    4    4    0    0  0.47164905271E+02  0.10463988291E+02  0.20904778571E+03  0.21455768466E+03  0.00000000000E+00 0.  1.
</event>
<event>
 8    1  0.6945825E-009  0.1147459E+03  0.7561462E-02  0.1252025E+00
          2   -1    0    0  501    0  0.00000000000E+00  0.00000000000E+00  0.12371192455E+03  0.12371192455E+03  0.00000000000E+00 0. -1.
         -2   -1    0    0    0  501 -0.00000000000E+00 -0.00000000000E+00 -0.17516909817E+03  0.17516909817E+03  0.00000000000E+00 0.  1.
         25    2    1    2    0    0  0.18852620507E+02 -0.91740819775E+02 -0.58753345781E+02  0.16694735141E+03  0.12509061991E+03 0.  0.
         23    2    1    2    0    0 -0.18852620507E+02  0.91740819775E+02  0.72961721621E+01  0.13193367130E+03  0.92636171028E+02 0.  0.
          5    1    3    3  502    0 -0.19778699749E+02 -0.94671421175E+02 -0.43291205305E+00  0.96806687599E+02  0.41800000000E+01 0.  1.
         -5    1    3    3    0  502  0.38631320256E+02  0.29306013995E+01 -0.58320433728E+02  0.70140663809E+02  0.41800000000E+01 0.  1.
        -11    1    4    4    0    0 -0.63537214899E+01  0.39214644280E+02 -0.42718522105E+02  0.58335497200E+02  0.00000000000E+00 0. -1.
         11    1    4    4    0    0 -0.12498899017E+02  0.52526175496E+02  0.50014694267E+02  0.73598174104E+02  0.00000000000E+00 0.  1.
</event>
<event>
 8    1  0.6945825E-009  0.2000728E+03  0.7561462E-02  0.1149678E+00
         -2   -1    0    0    0  501 -0.00000000000E+00  0.00000000000E+00  0.13480882195E+03  0.13480882195E+03  0.00000000000E+00 0. -1.
          2   -1    0    0  501    0  0.00000000000E+00 -0.00000000000E+00 -0.39639843408E+03  0.39639843408E+03  0.00000000000E+00 0.  1.
         25    2    1    2    0    0  0.11134303524E+03 -0.13761083397E+03 -0.19574549314E+02  0.21763463969E+03  0.12509060832E+03 0.  0.
         23    2    1    2    0    0 -0.11134303524E+03  0.13761083397E+03 -0.24201506281E+03  0.31357261633E+03  0.91774081105E+02 0.  0.
          5    1    3    3  502    0 -0.24197285220E+02 -0.57308377750E+01 -0.12982007478E+02  0.28361171199E+02  0.41800000000E+01 0.  1.
         -5    1    3    3    0  502  0.13554032046E+03 -0.13187999620E+03 -0.65925418356E+01  0.18927346849E+03  0.41800000000E+01 0.  1.
        -11    1    4    4    0    0  0.64863804887E+01  0.11334661910E+02 -0.64850935330E+02  0.66152789099E+02  0.00000000000E+00 0.  1.
         11    1    4    4    0    0 -0.11782941573E+03  0.12627617206E+03 -0.17716412748E+03  0.24741982723E+03  0.00000000000E+00 0. -1.
</event>
<event>
 8    1  0.6945825E-009  0.9908807E+02  0.7561462E-02  0.1282225E+00
         -2   -1    0    0    0  501 -0.00000000000E+00  0.00000000000E+00  0.30486763345E+02  0.30486763345E+02  0.00000000000E+00 0.  1.
          2   -1    0    0  501    0  0.00000000000E+00 -0.00000000000E+00 -0.59169703012E+03  0.59169703012E+03  0.00000000000E+00 0. -1.
         25    2    1    2    0    0  0.77284195962E+02  0.17399232385E+01 -0.26524809331E+03  0.30328217638E+03  0.12509058009E+03 0.  0.
         23    2    1    2    0    0 -0.77284195962E+02 -0.17399232385E+01 -0.29596217347E+03  0.31890161708E+03  0.90159630530E+02 0.  0.
          5    1    3    3  502    0  0.67378472942E+01 -0.32714117960E+01 -0.21790147595E+03  0.21807023259E+03  0.41800000000E+01 0.  1.
         -5    1    3    3    0  502  0.70546348668E+02  0.50113350345E+01 -0.47346617360E+02  0.85211943791E+02  0.41800000000E+01 0.  1.
        -11    1    4    4    0    0  0.20631719859E+02 -0.28586873009E+01 -0.50221050693E+02  0.54369052688E+02  0.00000000000E+00 0. -1.
         11    1    4    4    0    0 -0.97915915821E+02  0.11187640624E+01 -0.24574112277E+03  0.26453256440E+03  0.00000000000E+00 0.  1.
</event>
<event>
 8    1  0.6945825E-009  0.1533958E+03  0.7561462E-02  0.1196361E+00
         -1   -1    0    0    0  501 -0.00000000000E+00  0.00000000000E+00  0.50697437783E+02  0.50697437783E+02  0.00000000000E+00 0.  1.
          1   -1    0    0  501    0  0.00000000000E+00 -0.00000000000E+00 -0.55860210805E+03  0.55860210805E+03  0.00000000000E+00 0. -1.
         25    2    1    2    0    0 -0.11849457775E+03  0.19009398959E+02 -0.34441850097E+03  0.38557912008E+03  0.12507930216E+03 0.  0.
         23    2    1    2    0    0  0.11849457775E+03 -0.19009398959E+02 -0.16348616930E+03  0.22372042575E+03  0.94449876351E+02 0.  0.
          5    1    3    3  502    0 -0.10893478546E+03 -0.30289132952E+02 -0.29061452629E+03  0.31186294161E+03  0.41800000000E+01 0.  1.
         -5    1    3    3    0  502 -0.95597922855E+01  0.49298531911E+02 -0.53803974682E+02  0.73716178474E+02  0.41800000000E+01 0.  1.
        -11    1    4    4    0    0  0.11055106247E+03  0.12042113457E+02 -0.15463505491E+03  0.19046928916E+03  0.00000000000E+00 0. -1.
         11    1    4    4    0    0  0.79435152819E+01 -0.31051512416E+02 -0.88511143892E+01  0.33251136587E+02  0.00000000000E+00 0.  1.
</event>
<event>
 8    1  0.6945825E-009  0.1740166E+03  0.7561462E-02  0.1173723E+00
         -2   -1    0    0    0  501 -0.00000000000E+00  0.00000000000E+00  0.19288461366E+03  0.19288461366E+03  0.00000000000E+00 0. -1.
          2   -1    0    0  501    0  0.00000000000E+00 -0.00000000000E+00 -0.18477806580E+03  0.18477806580E+03  0.00000000000E+00 0.  1.
         25    2    1    2    0    0  0.14985497445E+03 -0.15435906545E+02 -0.27046103013E+02  0.19767148272E+03  0.12509093818E+03 0.  0.
         23    2    1    2    0    0 -0.14985497445E+03  0.15435906545E+02  0.35152650877E+02  0.17999119674E+03  0.92012724464E+02 0.  0.
          5    1    3    3  502    0  0.75698513371E+02 -0.48723749005E+02  0.33588151988E+02  0.96176426413E+02  0.41800000000E+01 0.  1.
         -5    1    3    3    0  502  0.74156461077E+02  0.33287842460E+02 -0.60634255001E+02  0.10149505631E+03  0.41800000000E+01 0.  1.
        -11    1    4    4    0    0 -0.11837353475E+03  0.51114585412E+02  0.26287073210E+02  0.13159029139E+03  0.00000000000E+00 0. -1.
         11    1    4    4    0    0 -0.31481439696E+02 -0.35678678867E+02  0.88655776674E+01  0.48400905347E+02  0.00000000000E+00 0.  1.
</event>
<event>
 8    1  0.6945825E-009  0.2173817E+03  0.7561462E-02  0.1135850E+00
          1   -1    0    0  501    0  0.00000000000E+00  0.00000000000E+00  0.20708741219E+03  0.20708741219E+03  0.00000000000E+00 0. -1.
         -1   -1    0    0    0  501 -0.00000000000E+00 -0.00000000000E+00 -0.30366547694E+03  0.30366547694E+03  0.00000000000E+00 0.  1.
         25    2    1    2    0    0  0.15016354142E+03 -0.15377966954E+03  0.19109940266E+02  0.24941901170E+03  0.12508947857E+03 0.  0.
         23    2    1    2    0    0 -0.15016354142E+03  0.15377966954E+03 -0.11568800502E+03  0.26133387742E+03  0.93350977769E+02 0.  0.
          5    1    3    3  502    0  0.31243721875E+02 -0.18854672194E+02 -0.45314122538E+02  0.58331045949E+02  0.41800000000E+01 0. -1.
         -5    1    3    3    0  502  0.11891981954E+03 -0.13492499734E+03  0.64424062804E+02  0.19108796575E+03  0.41800000000E+01 0. -1.
        -11    1    4    4    0    0 -0.11960335619E+03  0.98394836550E+02 -0.34956390926E+02  0.15877171013E+03  0.00000000000E+00 0. -1.
         11    1    4    4    0    0 -0.30560185229E+02  0.55384832987E+02 -0.80731614089E+02  0.10256216729E+03  0.00000000000E+00 0.  1.
</event>
<event>
 8    1  0.6945825E-009  0.9922999E+02  0.7561462E-02  0.1281924E+00
          1   -1    0    0  501    0  0.00000000000E+00  0.00000000000E+00  0.10175027934E+04  0.10175027934E+04  0.00000000000E+00 0. -1.
         -1   -1    0    0    0  501 -0.00000000000E+00 -0.00000000000E+00 -0.14675453600E+02  0.14675453600E+02  0.00000000000E+00 0.  1.
         25    2    1    2    0    0 -0.32916887340E+02 -0.32489681964E+02  0.70649826749E+03  0.71897551432E+03  0.12508751867E+03 0.  0.
         23    2    1    2    0    0  0.32916887340E+02  0.32489681964E+02  0.29632907232E+03  0.31320273268E+03  0.90254815677E+02 0.  0.
          5    1    3    3  502    0 -0.50572833059E+02  0.10082071863E+02  0.60745551341E+03  0.60965476525E+03  0.41800000000E+01 0. -1.
         -5    1    3    3    0  502  0.17655945719E+02 -0.42571753827E+02  0.99042754074E+02  0.10932074907E+03  0.41800000000E+01 0. -1.
        -11    1    4    4    0    0 -0.30694583546E+02  0.16531207701E+02  0.83128136673E+02  0.90142805558E+02  0.00000000000E+00 0. -1.
         11    1    4    4    0    0  0.63611470886E+02  0.15958474263E+02  0.21320093564E+03  0.22305992712E+03  0.00000000000E+00 0.  1.
</event>
<event>
 8    1  0.6945825E-009  0.7820357E+02  0.7561462E-02  0.1334228E+00
         -1   -1    0    0    0  501 -0.00000000000E+00  0.00000000000E+00  0.17913749204E+02  0.17913749204E+02  0.00000000000E+00 0.  1.
          1   -1    0    0  501    0  0.00000000000E+00 -0.00000000000E+00 -0.77807889967E+03  0.77807889967E+03  0.00000000000E+00 0. -1.
         25    2    1    2    0    0 -0.39627556533E+02  0.23645742184E+02 -0.41095089382E+03  0.43203815595E+03  0.12508743622E+03 0.  0.
         23    2    1    2    0    0  0.39627556533E+02 -0.23645742184E+02 -0.34921425664E+03  0.36395449293E+03  0.91557695026E+02 0.  0.
          5    1    3    3  502    0 -0.54691046047E+02  0.18403262812E+02 -0.41149359907E+03  0.41554090662E+03  0.41800000000E+01 0.  1.
         -5    1    3    3    0  502  0.15063489514E+02  0.52424793727E+01  0.54270524910E+00  0.16497249325E+02  0.41800000000E+01 0.  1.
        -11    1    4    4    0    0  0.27600978483E+02 -0.47734153810E+02 -0.31794667411E+03  0.32269250228E+03  0.00000000000E+00 0. -1.
         11    1    4    4    0    0  0.12026578050E+02  0.24088411626E+02 -0.31267582534E+02  0.41261990642E+02  0.00000000000E+00 0.  1.
</event>
<event>
 8    1  0.6945825E-009  0.1205273E+03  0.7561462E-02  0.1242230E+00
          2   -1    0    0  501    0  0.00000000000E+00  0.00000000000E+00  0.17904153327E+03  0.17904153327E+03  0.00000000000E+00 0. -1.
         -2   -1    0    0    0  501 -0.00000000000E+00 -0.00000000000E+00 -0.11011145331E+03  0.11011145331E+03  0.00000000000E+00 0.  1.
         25    2    1    2    0    0  0.83003385748E+02 -0.19402424484E+02  0.59363045192E+02  0.16259617017E+03  0.12509007674E+03 0.  0.
         23    2    1    2    0    0 -0.83003385748E+02  0.19402424484E+02  0.95670347681E+01  0.12655681641E+03  0.93054196594E+02 0.  0.
          5    1    3    3  502    0  0.10783865461E+03  0.49496192821E+01  0.66478160708E+02  0.12684830472E+03  0.41800000000E+01 0.  1.
         -5    1    3    3    0  502 -0.24835268866E+02 -0.24352043766E+02 -0.71151155162E+01  0.35747865447E+02  0.41800000000E+01 0.  1.
        -11    1    4    4    0    0 -0.74810815520E+02  0.33275487896E+02  0.40750031021E+02  0.91457537917E+02  0.00000000000E+00 0. -1.
         11    1    4    4    0    0 -0.81925702276E+01 -0.13873063412E+02 -0.31182996253E+02  0.35099278492E+02  0.00000000000E+00 0.  1.
</event>
<event>
 8    1  0.6945825E-009  0.2092243E+03  0.7561462E-02  0.1142182E+00
         -2   -1    0    0    0  501 -0.00000000000E+00  0.00000000000E+00  0.54477381470E+02  0.54477381470E+02  0.00000000000E+00 0.  1.
          2   -1    0    0  501    0  0.00000000000E+00 -0.00000000000E+00 -0.97745707508E+03  0.97745707508E+03  0.00000000000E+00 0. -1.
         25    2    1    2    0    0  0.13568740229E+03 -0.14259107744E+03 -0.60445498138E+03  0.64788609944E+03  0.12508911556E+03 0.  0.
         23    2    1    2    0    0 -0.13568740229E+03  0.14259107744E+03 -0.31852471224E+03  0.38404835711E+03  0.85392398881E+02 0.  0.
          5    1    3    3  502    0  0.13655055957E+03 -0.83064292952E+02 -0.32586445221E+03  0.36297499321E+03  0.41800000000E+01 0. -1.
         -5    1    3    3    0  502 -0.86315727564E+00 -0.59526784492E+02 -0.27859052917E+03  0.28491110623E+03  0.41800000000E+01 0. -1.
        -11    1    4    4    0    0 -0.11838860600E+03  0.10818537499E+03 -0.18381545306E+03  0.24394273544E+03  0.00000000000E+00 0.  1.
         11    1    4    4    0    0 -0.17298796293E+02  0.34405702453E+02 -0.13470925918E+03  0.14010562167E+03  0.00000000000E+00 0. -1.
</event>
<event>
 8    1  0.6945825E-009  0.2053578E+03  0.7561462E-02  0.1145296E+00
         -2   -1    0    0    0  501 -0.00000000000E+00  0.00000000000E+00  0.13863998317E+03  0.13863998317E+03  0.00000000000E+00 0.  1.
          2   -1    0    0  501    0  0.00000000000E+00 -0.00000000000E+00 -0.36476461033E+03  0.36476461033E+03  0.00000000000E+00 0. -1.
         25    2    1    2    0    0 -0.12594794654E+03  0.13616809918E+03 -0.44174580457E+02  0.22804339928E+03  0.12509101456E+03 0.  0.
         23    2    1    2    0    0  0.12594794654E+03 -0.13616809918E+03 -0.18195004671E+03  0.27536119422E+03  0.91177471503E+02 0.  0.
          5    1    3    3  502    0 -0.34568741637E+02 -0.10274436713E+02 -0.41796760857E+02  0.55362474351E+02  0.41800000000E+01 0. -1.
         -5    1    3    3    0  502 -0.91379204903E+02  0.14644253590E+03 -0.23778196000E+01  0.17268092493E+03  0.41800000000E+01 0. -1.
        -11    1    4    4    0    0  0.43807661491E+02 -0.10520940606E+03 -0.13189710031E+03  0.17431286641E+03  0.00000000000E+00 0.  1.
         11    1    4    4    0    0  0.82140285049E+02 -0.30958693128E+02 -0.50052946402E+02  0.10104832780E+03  0.00000000000E+00 0. -1.
</event>
<event>
 8    1  0.6945825E-009  0.1135210E+03  0.7561462E-02  0.1254185E+00
         -1   -1    0    0    0  501 -0.00000000000E+00  0.00000000000E+00  0.18547111563E+02  0.18547111563E+02  0.00000000000E+00 0.  1.
          1   -1    0    0  501    0  0.00000000000E+00 -0.00000000000E+00 -0.71488926405E+03  0.71488926405E+03  0.00000000000E+00 0. -1.
         25    2    1    2    0    0 -0.13502927097E+02  0.32530471976E+02 -0.43934309090E+03  0.45816027518E+03  0.12509166874E+03 0.  0.
         23    2    1    2    0    0  0.13502927097E+02 -0.32530471976E+02 -0.25699906159E+03  0.27527610043E+03  0.92129545548E+02 0.  0.
          5    1    3    3  502    0 -0.63386583592E+02 -0.87259286112E+01 -0.24629987692E+03  0.25450953338E+03  0.41800000000E+01 0.  1.
         -5    1    3    3    0  502  0.49883656495E+02  0.41256400587E+02 -0.19304321398E+03  0.20365074181E+03  0.41800000000E+01 0.  1.
        -11    1    4    4    0    0 -0.36081488627E+02 -0.32361332122E+02 -0.14195907861E+03  0.15000503205E+03  0.00000000000E+00 0.  1.
         11    1    4    4    0    0  0.49584415724E+02 -0.16913985406E+00 -0.11503998297E+03  0.12527106838E+03  0.00000000000E+00 0. -1.
</event>
<event>
 8    1  0.6945825E-009  0.1009810E+03  0.7561462E-02  0.1278246E+00
         -1   -1    0    0    0  501 -0.00000000000E+00  0.00000000000E+00  0.27542158741E+02  0.27542158741E+02  0.00000000000E+00 0.  1.
          1   -1    0    0  501    0  0.00000000000E+00 -0.00000000000E+00 -0.55753429985E+03  0.55753429985E+03  0.00000000000E+00 0. -1.
         25    2    1    2    0    0  0.36189595979E+02  0.23468624750E+02 -0.19777357658E+03  0.23795357766E+03  0.12508818618E+03 0.  0.
         23    2    1    2    0    0 -0.36189595979E+02 -0.23468624750E+02 -0.33221856452E+03  0.34712288093E+03  0.90910156997E+02 0.  0.
          5    1    3    3  502    0  0.75938504829E+02  0.22668795220E+02 -0.76371458627E+02  0.11013901618E+03  0.41800000000E+01 0. -1.
         -5    1    3    3    0  502 -0.39748908850E+02  0.79982952949E+00 -0.12140211796E+03  0.12781456148E+03  0.41800000000E+01 0. -1.
        -11    1    4    4    0    0 -0.28522894040E+02  0.22308806678E+02 -0.53731697192E+02  0.64794549331E+02  0.00000000000E+00 0.  1.
         11    1    4    4    0    0 -0.76667019390E+01 -0.45777431428E+02 -0.27848686733E+03  0.28232833160E+03  0.00000000000E+00 0. -1.
</event>
<event>
 8    1  0.6945825E-009  0.1188950E+03  0.7561462E-02  0.1244931E+00
         -2   -1    0    0    0  501 -0.00000000000E+00  0.00000000000E+00  0.46402260284E+02  0.46402260284E+02  0.00000000000E+00 0. -1.
          2   -1    0    0  501    0  0.00000000000E+00 -0.00000000000E+00 -0.47485251084E+03  0.47485251084E+03  0.00000000000E+00 0.  1.
         25    2    1    2    0    0  0.84559455807E+02  0.11282040311E+02 -0.32878483881E+03  0.36197287140E+03  0.12508918179E+03 0.  0.
         23    2    1    2    0    0 -0.84559455807E+02 -0.11282040311E+02 -0.99665411751E+02  0.15928189973E+03  0.90332404380E+02 0.  0.
          5    1    3    3  502    0  0.93539892255E+02  0.47426590348E+02 -0.28826452509E+03  0.30677826152E+03  0.41800000000E+01 0.  1.
         -5    1    3    3    0  502 -0.89804364482E+01 -0.36144550037E+02 -0.40520313717E+02  0.55194609880E+02  0.41800000000E+01 0.  1.
        -11    1    4    4    0    0 -0.55419174046E+02 -0.27646788942E+02 -0.89121713919E+01  0.62570413054E+02  0.00000000000E+00 0. -1.
         11    1    4    4    0    0 -0.29140281761E+02  0.16364748630E+02 -0.90753240359E+02  0.96711486673E+02  0.00000000000E+00 0.  1.
</event>
<event>
 8    1  0.6945825E-009  0.8740848E+02  0.7561462E-02  0.1309252E+00
         -2   -1    0    0    0  501 -0.00000000000E+00  0.00000000000E+00  0.50489147801E+03  0.50489147801E+03  0.00000000000E+00 0. -1.
          2   -1    0    0  501    0  0.00000000000E+00 -0.00000000000E+00 -0.27241894991E+02  0.27241894991E+02  0.00000000000E+00 0.  1.
         25    2    1    2    0    0  0.19785972285E+02 -0.42867972078E+01  0.17757883458E+03  0.21815381593E+03  0.12508790342E+03 0.  0.
         23    2    1    2    0    0 -0.19785972285E+02  0.42867972078E+01  0.30007074844E+03  0.31397955708E+03  0.90171208614E+02 0.  0.
          5    1    3    3  502    0  0.50342329823E+02 -0.86569395201E+01  0.16133951383E+02  0.53731457835E+02  0.41800000000E+01 0.  1.
         -5    1    3    3    0  502 -0.30556357538E+02  0.43701423123E+01  0.16144488320E+03  0.16442235809E+03  0.41800000000E+01 0.  1.
        -11    1    4    4    0    0  0.35637470436E+02 -0.57282814636E+01  0.11719396424E+03  0.12262653775E+03  0.00000000000E+00 0.  1.
         11    1    4    4    0    0 -0.55423442721E+02  0.10015078671E+02  0.18287678420E+03  0.19135301932E+03  0.00000000000E+00 0. -1.
</event>
<event>
 8    1  0.6945825E-009  0.1032050E+03  0.7561462E-02  0.1273697E+00
         -2   -1    0    0    0  501 -0.00000000000E+00  0.00000000000E+00  0.34138752999E+02  0.34138752999E+02  0.00000000000E+00 0.  1.
          2   -1    0    0  501    0  0.00000000000E+00 -0.00000000000E+00 -0.38595394569E+03  0.38595394569E+03  0.00000000000E+00 0. -1.
         25    2    1    2    0    0  0.13426179801E+02  0.34169612909E+02 -0.21371977972E+03  0.25034351841E+03  0.12509159931E+03 0.  0.
         23    2    1    2    0    0 -0.13426179801E+02 -0.34169612909E+02 -0.13809541297E+03  0.16974918028E+03  0.91633052828E+02 0.  0.
          5    1    3    3  502    0  0.46354148371E+02  0.52254405609E+02 -0.19691139365E+03  0.20897559505E+03  0.41800000000E+01 0. -1.
         -5    1    3    3    0  502 -0.32927968570E+02 -0.18084792700E+02 -0.16808386068E+02  0.41367923363E+02  0.41800000000E+01 0. -1.
        -11    1    4    4    0    0 -0.28443528934E+02  0.24828077949E+02 -0.49573376143E+02  0.62313621425E+02  0.00000000000E+00 0. -1.
         11    1    4    4    0    0  0.15017349133E+02 -0.58997690858E+02 -0.88522036830E+02  0.10743555885E+03  0.00000000000E+00 0.  1.
</event>
<event>
 8    1  0.6945825E-009  0.9671350E+02  0.7561462E-02  0.1287363E+00
         -1   -1    0    0    0  501 -0.00000000000E+00  0.00000000000E+00  0.81110277122E+02  0.81110277122E+02  0.00000000000E+00 0.  1.
          1   -1    0    0  501    0  0.00000000000E+00 -0.00000000000E+00 -0.17805284342E+03  0.17805284342E+03  0.00000000000E+00 0. -1.
         25    2    1    2    0    0 -0.11352938122E+01  0.37039259261E+02 -0.75254582940E+02  0.15061068912E+03  0.12508849589E+03 0.  0.
         23    2    1    2    0    0  0.11352938122E+01 -0.37039259261E+02 -0.21687983355E+02  0.10855243142E+03  0.99699880273E+02 0.  0.
          5    1    3    3  502    0 -0.20975567518E+02 -0.24831669119E+02  0.17603260250E+02  0.37201255292E+02  0.41800000000E+01 0. -1.
         -5    1    3    3    0  502  0.19840273706E+02  0.61870928379E+02 -0.92857843190E+02  0.11340943383E+03  0.41800000000E+01 0. -1.
        -11    1    4    4    0    0  0.23239660313E+01  0.29201688632E+02  0.14903777658E+02  0.32867339800E+02  0.00000000000E+00 0.  1.
         11    1    4    4    0    0 -0.11886722191E+01 -0.66240947892E+02 -0.36591761013E+02  0.75685091619E+02  0.00000000000E+00 0. -1.
</event>
<event>
 8    1  0.6945825E-009  0.1462932E+03  0.7561462E-02  0.1205103E+00
          1   -1    0    0  501    0  0.00000000000E+00  0.00000000000E+00  0.20358980007E+03  0.20358980007E+03  0.00000000000E+00 0. -1.
         -1   -1    0    0    0  501 -0.00000000000E+00 -0.00000000000E+00 -0.20265657635E+03  0.20265657635E+03  0.00000000000E+00 0.  1.
         25    2    1    2    0    0  0.80582474746E+02  0.89926895875E+02  0.12207514089E+03  0.21243908780E+03  0.12509054387E+03 0.  0.
         23    2    1    2    0    0 -0.80582474746E+02 -0.89926895875E+02 -0.12114191717E+03  0.19380728861E+03  0.91134621222E+02 0.  0.
          5    1    3    3  502    0 -0.47899840435E+01  0.79920361943E+02  0.27956661589E+02  0.84907334945E+02  0.41800000000E+01 0.  1.
         -5    1    3    3    0  502  0.85372458790E+02  0.10006533932E+02  0.94118479301E+02  0.12753175286E+03  0.41800000000E+01 0.  1.
        -11    1    4    4    0    0 -0.42278631459E+02 -0.73255714767E+02 -0.12599494012E+03  0.15175179525E+03  0.00000000000E+00 0.  1.
         11    1    4    4    0    0 -0.38303843288E+02 -0.16671181109E+02  0.48530229560E+01  0.42055493363E+02  0.00000000000E+00 0. -1.
</event>
<event>
 8    1  0.6945825E-009  0.1386724E+03  0.7561462E-02  0.1215127E+00
         -1   -1    0    0    0  501 -0.00000000000E+00  0.00000000000E+00  0.44560550501E+02  0.44560550501E+02  0.00000000000E+00 0.  1.
          1   -1    0    0  501    0  0.00000000000E+00 -0.00000000000E+00 -0.45000272485E+03  0.45000272485E+03  0.00000000000E+00 0. -1.
         25    2    1    2    0    0  0.68501751420E+02 -0.58802412598E+02 -0.22999304741E+03  0.27693818889E+03  0.12509094666E+03 0.  0.
         23    2    1    2    0    0 -0.68501751420E+02  0.58802412598E+02 -0.17544912694E+03  0.21762508646E+03  0.91804512069E+02 0.  0.
          5    1    3    3  502    0  0.16422751636E+02  0.38820257667E+02 -0.49077152572E+02  0.64828685636E+02  0.41800000000E+01 0. -1.
         -5    1    3    3    0  502  0.52078999784E+02 -0.97622670265E+02 -0.18091589484E+03  0.21210950326E+03  0.41800000000E+01 0. -1.
        -11    1    4    4    0    0 -0.88186309669E+02  0.39280211914E+02 -0.10888721449E+03  0.14552039631E+03  0.00000000000E+00 0. -1.
         11    1    4    4    0    0  0.19684558249E+02  0.19522200684E+02 -0.66561912448E+02  0.72104690151E+02  0.00000000000E+00 0.  1.
</event>
<event>
 8    1  0.6945825E-009  0.1094159E+03  0.7561462E-02  0.1261655E+00
         -1   -1    0    0    0  501 -0.00000000000E+00  0.00000000000E+00  0.10315952596E+03  0.10315952596E+03  0.00000000000E+00 0.  1.
          1   -1    0    0  501    0  0.00000000000E+00 -0.00000000000E+00 -0.14928046321E+03  0.14928046321E+03  0.00000000000E+00 0. -1.
         25    2    1    2    0    0 -0.22427355966E+02  0.43085297293E+02  0.11968942535E+02  0.13472377194E+03  0.12509160645E+03 0.  0.
         23    2    1    2    0    0  0.22427355966E+02 -0.43085297293E+02 -0.58089879782E+02  0.11771621723E+03  0.90129598512E+02 0.  0.
          5    1    3    3  502    0 -0.20320437372E+02  0.82577501546E+02  0.31031768500E+02  0.90622331645E+02  0.41800000000E+01 0. -1.
         -5    1    3    3    0  502 -0.21069185946E+01 -0.39492204253E+02 -0.19062825965E+02  0.44101440300E+02  0.41800000000E+01 0. -1.
        -11    1    4    4    0    0 -0.23304283160E+02 -0.42167468503E+02 -0.62512891437E+01  0.48582544494E+02  0.00000000000E+00 0.  1.
         11    1    4    4    0    0  0.45731639126E+02 -0.91782878947E+00 -0.51838590638E+02  0.69133672738E+02  0.00000000000E+00 0. -1.
</event>
<event>
 8    1  0.6945825E-009  0.1537451E+03  0.7561462E-02  0.1195945E+00
         -1   -1    0    0    0  501 -0.00000000000E+00  0.00000000000E+00  0.16332288216E+03  0.16332288216E+03  0.00000000000E+00 0.  1.
          1   -1    0    0  501    0  0.00000000000E+00 -0.00000000000E+00 -0.18179692537E+03  0.18179692537E+03  0.00000000000E+00 0. -1.
         25    2    1    2    0    0  0.40957787598E+02 -0.12325900856E+03 -0.41383486561E+02  0.18501425436E+03  0.12508939923E+03 0.  0.
         23    2    1    2    0    0 -0.40957787598E+02  0.12325900856E+03  0.22909443350E+02  0.16010555317E+03  0.90766855212E+02 0.  0.
          5    1    3    3  502    0  0.29220127381E+02  0.18663962472E+02  0.47893203457E+01  0.35250096861E+02  0.41800000000E+01 0.  1.
         -5    1    3    3    0  502  0.11737660217E+02 -0.14192297103E+03 -0.46172806906E+02  0.14976415750E+03  0.41800000000E+01 0.  1.
        -11    1    4    4    0    0 -0.14120120940E+02  0.54159247777E+02 -0.35023328379E+02  0.66024506555E+02  0.00000000000E+00 0. -1.
         11    1    4    4    0    0 -0.26837666658E+02  0.69099760785E+02  0.57932771729E+02  0.94081046616E+02  0.00000000000E+00 0.  1.
</event>
<event>
 8    1  0.6945825E-009  0.7363975E+02  0.7561462E-02  0.1348136E+00
         -2   -1    0    0    0  501 -0.00000000000E+00  0.00000000000E+00  0.34223138516E+02  0.34223138516E+02  0.00000000000E+00 0.  1.
          2   -1    0    0  501    0  0.00000000000E+00 -0.00000000000E+00 -0.39728927475E+03  0.39728927475E+03  0.00000000000E+00 0. -1.
         25    2    1    2    0    0 -0.42162437038E+02  0.26295113968E+01 -0.22340895339E+03  0.25950591440E+03  0.12508866346E+03 0.  0.
         23    2    1    2    0    0  0.42162437038E+02 -0.26295113968E+01 -0.13965718284E+03  0.17200649887E+03  0.91090732276E+02 0.  0.
          5    1    3    3  502    0 -0.36380275502E+02  0.85527504208E+01 -0.17424003469E+01  0.37645482389E+02  0.41800000000E+01 0.  1.
         -5    1    3    3    0  502 -0.57821615360E+01 -0.59232390240E+01 -0.22166655305E+03  0.22186043201E+03  0.41800000000E+01 0.  1.
        -11    1    4    4    0    0  0.70838222513E+02  0.40637585601E+01 -0.97677371485E+02  0.12072877371E+03  0.00000000000E+00 0. -1.
         11    1    4    4    0    0 -0.28675785476E+02 -0.66932699569E+01 -0.41979811359E+02  0.51277725155E+02  0.00000000000E+00 0.  1.
</event>
<event>
 8    1  0.6945825E-009  0.1253319E+03  0.7561462E-02  0.1234552E+00
         -2   -1    0    0    0  501 -0.00000000000E+00  0.00000000000E+00  0.18762268693E+03  0.18762268693E+03  0.00000000000E+00 0.  1.
          2   -1    0    0  501    0  0.00000000000E+00 -0.00000000000E+00 -0.98277064706E+02  0.98277064706E+02  0.00000000000E+00 0. -1.
         25    2    1    2    0    0 -0.51977767204E+02  0.59072830250E+02  0.28096626259E+02  0.15042479235E+03  0.12508761006E+03 0.  0.
         23    2    1    2    0    0  0.51977767204E+02 -0.59072830250E+02  0.61248995968E+02  0.13547495929E+03  0.91710073219E+02 0.  0.
          5    1    3    3  502    0 -0.58885034870E+02 -0.23937858866E+02  0.19290877928E+02  0.66558837054E+02  0.41800000000E+01 0.  1.
         -5    1    3    3    0  502  0.69072676662E+01  0.83010689117E+02  0.88057483315E+01  0.83865955297E+02  0.41800000000E+01 0.  1.
        -11    1    4    4    0    0  0.67254864843E+02 -0.56964973492E+02  0.18539310207E+02  0.90066259348E+02  0.00000000000E+00 0. -1.
         11    1    4    4    0    0 -0.15277097640E+02 -0.21078567580E+01  0.42709685762E+02  0.45408699940E+02  0.00000000000E+00 0.  1.
</event>
<event>
 8    1  0.6945825E-009  0.1689340E+03  0.7561462E-02  0.1178964E+00
          2   -1    0    0  501    0  0.00000000000E+00  0.00000000000E+00  0.74836043759E+02  0.74836043759E+02  0.00000000000E+00 0. -1.
         -2   -1    0    0    0  501 -0.00000000000E+00 -0.00000000000E+00 -0.57240210869E+03  0.57240210869E+03  0.00000000000E+00 0.  1.
         25    2    1    2    0    0  0.13876522540E+03 -0.78968216314E+02 -0.14373656332E+03  0.24859247548E+03  0.12508498018E+03 0.  0.
         23    2    1    2    0    0 -0.13876522540E+03  0.78968216314E+02 -0.35382950161E+03  0.39864567697E+03  0.90726471239E+02 0.  0.
          5    1    3    3  502    0  0.12244034739E+03 -0.30834887522E+02 -0.39191517936E+02  0.13227197903E+03  0.41800000000E+01 0.  1.
         -5    1    3    3    0  502  0.16324878007E+02 -0.48133328792E+02 -0.10454504538E+03  0.11632049646E+03  0.41800000000E+01 0.  1.
        -11    1    4    4    0    0 -0.10699982877E+03  0.68690103601E+02 -0.17266612483E+03  0.21443153768E+03  0.00000000000E+00 0. -1.
         11    1    4    4    0    0 -0.31765396629E+02  0.10278112714E+02 -0.18116337678E+03  0.18421413928E+03  0.00000000000E+00 0.  1.
</event>
<event>
 8    1  0.6945825E-009  0.8062710E+02  0.7561462E-02  0.1327281E+00
          3   -1    0    0  501    0  0.00000000000E+00  0.00000000000E+00  0.18080078692E+02  0.18080078692E+02  0.00000000000E+00 0. -1.
         -3   -1    0    0    0  501 -0.00000000000E+00 -0.00000000000E+00 -0.83651295438E+03  0.83651295438E+03  0.00000000000E+00 0.  1.
         25    2    1    2    0    0  0.15414439315E+02 -0.56666915754E+02 -0.45465207468E+03  0.47518768446E+03  0.12508430025E+03 0.  0.
         23    2    1    2    0    0 -0.15414439315E+02  0.56666915754E+02 -0.36378080100E+03  0.37940534861E+03  0.90350446007E+02 0.  0.
          5    1    3    3  502    0 -0.97981348090E+01 -0.14923232542E+02 -0.40518060931E+03  0.40559524760E+03  0.41800000000E+01 0.  1.
         -5    1    3    3    0  502  0.25212574124E+02 -0.41743683212E+02 -0.49471465375E+02  0.69592436862E+02  0.41800000000E+01 0.  1.
        -11    1    4    4    0    0 -0.16728860369E+02 -0.14895191085E+02 -0.26898299794E+02  0.35003428668E+02  0.00000000000E+00 0. -1.
         11    1    4    4    0    0  0.13144210536E+01  0.71562106839E+02 -0.33688250121E+03  0.34440191994E+03  0.00000000000E+00 0.  1.
</event>
<event>
 8    1  0.6945825E-009  0.1518799E+03  0.7561462E-02  0.1198182E+00
          2   -1    0    0  501    0  0.00000000000E+00  0.00000000000E+00  0.53581867186E+02  0.53581867186E+02  0.00000000000E+00 0. -1.
         -2   -1    0    0    0  501 -0.00000000000E+00 -0.00000000000E+00 -0.73143266296E+03  0.73143266296E+03  0.00000000000E+00 0.  1.
         25    2    1    2    0    0 -0.11738915966E+03 -0.33429349366E+02 -0.13416734085E+03  0.22032967228E+03  0.12508618202E+03 0.  0.
         23    2    1    2    0    0  0.11738915966E+03  0.33429349366E+02 -0.54368345492E+03  0.56468485786E+03  0.91539900238E+02 0.  0.
          5    1    3    3  502    0 -0.12998560823E+03 -0.12402981059E+02 -0.14323288938E+03  0.19386393498E+03  0.41800000000E+01 0.  1.
         -5    1    3    3    0  502  0.12596448571E+02 -0.21026368307E+02  0.90655485291E+01  0.26465737301E+02  0.41800000000E+01 0.  1.
        -11    1    4    4    0    0  0.58770365738E+02  0.59915556976E+02 -0.37191442264E+03  0.38126653095E+03  0.00000000000E+00 0.  1.
         11    1    4    4    0    0  0.58618793924E+02 -0.26486207610E+02 -0.17176903229E+03  0.18341832691E+03  0.00000000000E+00 0. -1.
</event>
<event>
 8    1  0.6945825E-009  0.1088749E+03  0.7561462E-02  0.1262668E+00
         -1   -1    0    0    0  501 -0.00000000000E+00  0.00000000000E+00  0.62980735765E+02  0.62980735765E+02  0.00000000000E+00 0.  1.
          1   -1    0    0  501    0  0.00000000000E+00 -0.00000000000E+00 -0.46900552654E+03  0.46900552654E+03  0.00000000000E+00 0. -1.
         25    2    1    2    0    0  0.39271437818E+02 -0.11360343826E+01 -0.40960608090E+03  0.43008068546E+03  0.12509483638E+03 0.  0.
         23    2    1    2    0    0 -0.39271437818E+02  0.11360343826E+01  0.35812901283E+01  0.10190557685E+03  0.93959483560E+02 0.  0.
          5    1    3    3  502    0 -0.26694378337E+02  0.41387439464E+02 -0.11501826467E+03  0.12518859208E+03  0.41800000000E+01 0.  1.
         -5    1    3    3    0  502  0.65965816155E+02 -0.42523473847E+02 -0.29458781623E+03  0.30489209338E+03  0.41800000000E+01 0.  1.
        -11    1    4    4    0    0 -0.12121924888E+02  0.40294549615E+02 -0.22361823225E+02  0.47651263672E+02  0.00000000000E+00 0. -1.
         11    1    4    4    0    0 -0.27149512930E+02 -0.39158515232E+02  0.25943113353E+02  0.54254313174E+02  0.00000000000E+00 0.  1.
</event>
<event>
 8    1  0.6945825E-009  0.1153198E+03  0.7561462E-02  0.1251024E+00
         -1   -1    0    0    0  501 -0.00000000000E+00  0.00000000000E+00  0.24637850506E+02  0.24637850506E+02  0.00000000000E+00 0.  1.
          1   -1    0    0  501    0  0.00000000000E+00 -0.00000000000E+00 -0.10569542255E+04  0.10569542255E+04  0.00000000000E+00 0. -1.
         25    2    1    2    0    0  0.83395458550E+01 -0.62018602780E+02 -0.89178128444E+03  0.90268274419E+03  0.12508565972E+03 0.  0.
         23    2    1    2    0    0 -0.83395458550E+01  0.62018602780E+02 -0.14053509053E+03  0.17890933179E+03  0.91337737082E+02 0.  0.
          5    1    3    3  502    0 -0.50068916528E+02 -0.40082769322E+02 -0.26049435812E+03  0.26830636931E+03  0.41800000000E+01 0.  1.
         -5    1    3    3    0  502  0.58408462383E+02 -0.21935833459E+02 -0.63128692632E+03  0.63437637488E+03  0.41800000000E+01 0.  1.
        -11    1    4    4    0    0 -0.32110548991E+02  0.71393493875E+02 -0.74351559960E+02  0.10796421997E+03  0.00000000000E+00 0.  1.
         11    1    4    4    0    0  0.23771003136E+02 -0.93748910950E+01 -0.66183530568E+02  0.70945111823E+02  0.00000000000E+00 0. -1.
</event>
<event>
 8    1  0.6945825E-009  0.1037415E+03  0.7561462E-02  0.1272619E+00
         -2   -1    0    0    0  501 -0.00000000000E+00  0.00000000000E+00  0.35412050866E+02  0.35412050866E+02  0.00000000000E+00 0.  1.
          2   -1    0    0  501    0  0.00000000000E+00 -0.00000000000E+00 -0.78355253092E+03  0.78355253092E+03  0.00000000000E+00 0. -1.
         25    2    1    2    0    0 -0.34109255079E+02  0.37885978186E+02 -0.68242937988E+03  0.69566929108E+03  0.12508843032E+03 0.  0.
         23    2    1    2    0    0  0.34109255079E+02 -0.37885978186E+02 -0.65711100177E+02  0.12329529071E+03  0.91021928127E+02 0.  0.
          5    1    3    3  502    0 -0.64724598728E+02  0.68286190399E+00 -0.18789030614E+03  0.19877117377E+03  0.41800000000E+01 0. -1.
         -5    1    3    3    0  502  0.30615343649E+02  0.37203116282E+02 -0.49453907374E+03  0.49689811731E+03  0.41800000000E+01 0. -1.
        -11    1    4    4    0    0 -0.21246258435E+02  0.76485745521E+01 -0.42197947258E+02  0.47859909559E+02  0.00000000000E+00 0. -1.
         11    1    4    4    0    0  0.55355513514E+02 -0.45534552738E+02 -0.23513152919E+02  0.75435381152E+02  0.00000000000E+00 0.  1.
</event>
<event>
 8    1  0.6945825E-009  0.1089841E+03  0.7561462E-02  0.1262463E+00
          2   -1    0    0  501    0  0.00000000000E+00  0.00000000000E+00  0.65227969037E+03  0.65227969037E+03  0.00000000000E+00 0. -1.
         -2   -1    0    0    0  501 -0.00000000000E+00 -0.00000000000E+00 -0.22695425727E+02  0.22695425727E+02  0.00000000000E+00 0.  1.
         25    2    1    2    0    0  0.55431328127E+02 -0.19852380589E+01  0.40845291359E+03  0.43076295345E+03  0.12508543535E+03 0.  0.
         23    2    1    2    0    0 -0.55431328127E+02  0.19852380589E+01  0.22113135105E+03  0.24421216264E+03  0.87543889890E+02 0.  0.
          5    1    3    3  502    0  0.84457782961E+02 -0.13526746287E+02  0.17117505832E+03  0.19140131389E+03  0.41800000000E+01 0. -1.
         -5    1    3    3    0  502 -0.29026454833E+02  0.11541508228E+02  0.23727785527E+03  0.23936163956E+03  0.41800000000E+01 0. -1.
        -11    1    4    4    0    0 -0.77944915864E+02 -0.19110195764E+01  0.14381426899E+03  0.16358974867E+03  0.00000000000E+00 0.  1.
         11    1    4    4    0    0  0.22513587737E+02  0.38962576353E+01  0.77317082062E+02  0.80622413973E+02  0.00000000000E+00 0. -1.
</event>
<event>
 8    1  0.6945825E-009  0.1734287E+03  0.7561462E-02  0.1174319E+00
         -2   -1    0    0    0  501 -0.00000000000E+00  0.00000000000E+00  0.52217338895E+02  0.52217338895E+02  0.00000000000E+00 0.  1.
          2   -1    0    0  501    0  0.00000000000E+00 -0.00000000000E+00 -0.81905091174E+03  0.81905091174E+03  0.00000000000E+00 0. -1.
         25    2    1    2    0    0 -0.49004596371E+02 -0.14129139798E+03 -0.59042623815E+03  0.62178472745E+03  0.12509354493E+03 0.  0.
         23    2    1    2    0    0  0.49004596371E+02  0.14129139798E+03 -0.17640733470E+03  0.24948352319E+03  0.93582963190E+02 0.  0.
          5    1    3    3  502    0 -0.36232537582E+02 -0.15919363286E+03 -0.56390681990E+03  0.58708072993E+03  0.41800000000E+01 0. -1.
         -5    1    3    3    0  502 -0.12772058788E+02  0.17902234884E+02 -0.26519418251E+02  0.34703997520E+02  0.41800000000E+01 0. -1.
        -11    1    4    4    0    0  0.10620413901E+02 -0.36391620062E+01 -0.56218396499E+02  0.57328394330E+02  0.00000000000E+00 0. -1.
         11    1    4    4    0    0  0.38384182469E+02  0.14493055998E+03 -0.12018893820E+03  0.19215512886E+03  0.00000000000E+00 0.  1.
</event>
<event>
 8    1  0.6945825E-009  0.1089468E+03  0.7561462E-02  0.1262533E+00
         -1   -1    0    0    0  501 -0.00000000000E+00  0.00000000000E+00  0.32190539934E+03  0.32190539934E+03  0.00000000000E+00 0.  1.
          1   -1    0    0  501    0  0.00000000000E+00 -0.00000000000E+00 -0.43357397770E+02  0.43357397770E+02  0.00000000000E+00 0. -1.
         25    2    1    2    0    0 -0.84320359590E+00 -0.25947618277E+02  0.21554215838E+03  0.25055973175E+03  0.12509103585E+03 0.  0.
         23    2    1    2    0    0  0.84320359590E+00  0.25947618277E+02  0.63005843185E+02  0.11470306535E+03  0.92266283330E+02 0.  0.
          5    1    3    3  502    0 -0.57523568223E+02  0.12312319334E+02  0.10785072060E+03  0.12292194451E+03  0.41800000000E+01 0. -1.
         -5    1    3    3    0  502  0.56680364627E+02 -0.38259937611E+02  0.10769143778E+03  0.12763778724E+03  0.41800000000E+01 0. -1.
        -11    1    4    4    0    0 -0.18141827584E+02 -0.27917036801E+02  0.42572483727E+02  0.54045381139E+02  0.00000000000E+00 0.  1.
         11    1    4    4    0    0  0.18985031180E+02  0.53864655078E+02  0.20433359459E+02  0.60657684215E+02  0.00000000000E+00 0. -1.
</event>
<event>
 8    1  0.6945825E-009  0.1109415E+03  0.7561462E-02  0.1258836E+00
         -1   -1    0    0    0  501 -0.00000000000E+00  0.00000000000E+00  0.31124487471E+03  0.31124487471E+03  0.00000000000E+00 0.  1.
          1   -1    0    0  501    0  0.00000000000E+00 -0.00000000000E+00 -0.92671403312E+02  0.92671403312E+02  0.00000000000E+00 0. -1.
         25    2    1    2    0    0  0.29062474212E+02 -0.73199363886E+02  0.23832695482E+03  0.28044782537E+03  0.12509384909E+03 0.  0.
         23    2    1    2    0    0 -0.29062474212E+02  0.73199363886E+02 -0.19753483422E+02  0.12346845265E+03  0.93013356098E+02 0.  0.
          5    1    3    3  502    0  0.44064718430E+02 -0.73529818177E+02  0.24778275350E+03  0.26222528273E+03  0.41800000000E+01 0. -1.
         -5    1    3    3    0  502 -0.15002244219E+02  0.33045429124E+00 -0.94557986776E+01  0.18222542640E+02  0.41800000000E+01 0. -1.
        -11    1    4    4    0    0 -0.57139711270E+02  0.20383776012E+02 -0.19263417875E+02  0.63651584401E+02  0.00000000000E+00 0.  1.
         11    1    4    4    0    0  0.28077237058E+02  0.52815587874E+02 -0.49006554663E+00  0.59816868252E+02  0.00000000000E+00 0. -1.
</event>
<event>
 8    1  0.6945825E-009  0.1361371E+03  0.7561462E-02  0.1218623E+00
          3   -1    0    0  501    0  0.00000000000E+00  0.00000000000E+00  0.11007869459E+03  0.11007869459E+03  0.00000000000E+00 0. -1.
         -3   -1    0    0    0  501 -0.00000000000E+00 -0.00000000000E+00 -0.18286761951E+03  0.18286761951E+03  0.00000000000E+00 0.  1.
         25    2    1    2    0    0 -0.68902909720E+02  0.49828746653E+02 -0.65845152540E+01  0.15140578065E+03  0.12509931900E+03 0.  0.
         23    2    1    2    0    0  0.68902909720E+02 -0.49828746653E+02 -0.66204409669E+02  0.14154053345E+03  0.91761559433E+02 0.  0.
          5    1    3    3  502    0  0.76196112540E+01  0.70358854546E+02 -0.11915793318E+02  0.71888006087E+02  0.41800000000E+01 0. -1.
         -5    1    3    3    0  502 -0.76522520974E+02 -0.20530107893E+02  0.53312780645E+01  0.79517774567E+02  0.41800000000E+01 0. -1.
        -11    1    4    4    0    0  0.52794752276E+02 -0.75264233915E+02 -0.35535267025E+02  0.98563410945E+02  0.00000000000E+00 0. -1.
         11    1    4    4    0    0  0.16108157444E+02  0.25435487262E+02 -0.30669142644E+02  0.42977122507E+02  0.00000000000E+00 0.  1.
</event>
<event>
 8    1  0.6945825E-009  0.1878337E+03  0.7561462E-02  0.1160430E+00
         -2   -1    0    0    0  501 -0.00000000000E+00  0.00000000000E+00  0.65760802951E+02  0.65760802951E+02  0.00000000000E+00 0.  1.
          2   -1    0    0  501    0  0.00000000000E+00 -0.00000000000E+00 -0.70660570131E+03  0.70660570131E+03  0.00000000000E+00 0. -1.
         25    2    1    2    0    0 -0.87966269194E+02 -0.15747272212E+03 -0.25089482493E+03  0.33336093038E+03  0.12508226892E+03 0.  0.
         23    2    1    2    0    0  0.87966269194E+02  0.15747272212E+03 -0.38995007343E+03  0.43900557389E+03  0.90161584997E+02 0.  0.
          5    1    3    3  502    0 -0.86816153705E+02 -0.94676489886E+02 -0.80354928418E+02  0.15157529219E+03  0.41800000000E+01 0.  1.
         -5    1    3    3    0  502 -0.11501154890E+01 -0.62796232230E+02 -0.17053989651E+03  0.18178563819E+03  0.41800000000E+01 0.  1.
        -11    1    4    4    0    0  0.78882912847E+02  0.10710610366E+03 -0.18560783909E+03  0.22835170530E+03  0.00000000000E+00 0.  1.
         11    1    4    4    0    0  0.90833563470E+01  0.50366618460E+02 -0.20434223434E+03  0.21065386859E+03  0.00000000000E+00 0. -1.
</event>
<event>
 8    1  0.6945825E-009  0.2484198E+03  0.7561462E-02  0.1114308E+00
          1   -1    0    0  501    0  0.00000000000E+00  0.00000000000E+00  0.76630523395E+03  0.76630523395E+03  0.00000000000E+00 0. -1.
         -1   -1    0    0    0  501 -0.00000000000E+00 -0.00000000000E+00 -0.10487006213E+03  0.10487006213E+03  0.00000000000E+00 0.  1.
         25    2    1    2    0    0  0.74880494074E+02 -0.22978614281E+03  0.18376280486E+03  0.32836774106E+03  0.12509134704E+03 0.  0.
         23    2    1    2    0    0 -0.74880494074E+02  0.22978614281E+03  0.47767236696E+03  0.54280755502E+03  0.89779684841E+02 0.  0.
          5    1    3    3  502    0  0.30969479154E+02 -0.11684763783E+03  0.16934890441E+02  0.12213411489E+03  0.41800000000E+01 0. -1.
         -5    1    3    3    0  502  0.43911014920E+02 -0.11293850498E+03  0.16682791441E+03  0.20623362618E+03  0.41800000000E+01 0. -1.
        -11    1    4    4    0    0 -0.83561463977E+02  0.13041512771E+03  0.24779014732E+03  0.29221666775E+03  0.00000000000E+00 0.  1.
         11    1    4    4    0    0  0.86809699033E+01  0.99371015096E+02  0.22988221963E+03  0.25059088727E+03  0.00000000000E+00 0. -1.
</event>
<event>
 8    1  0.6945825E-009  0.1010149E+03  0.7561462E-02  0.1278176E+00
         -1   -1    0    0    0  501 -0.00000000000E+00  0.00000000000E+00  0.46916799259E+02  0.46916799259E+02  0.00000000000E+00 0.  1.
          1   -1    0    0  501    0  0.00000000000E+00 -0.00000000000E+00 -0.27232252570E+03  0.27232252570E+03  0.00000000000E+00 0. -1.
         25    2    1    2    0    0  0.23949230633E+02 -0.15215626142E+02 -0.12656434681E+03  0.18019691933E+03  0.12508922785E+03 0.  0.
         23    2    1    2    0    0 -0.23949230633E+02  0.15215626142E+02 -0.98841379623E+02  0.13904240562E+03  0.93584674542E+02 0.  0.
          5    1    3    3  502    0 -0.88281190976E+01 -0.65196152083E+02 -0.48763695233E+02  0.81999050641E+02  0.41800000000E+01 0. -1.
         -5    1    3    3    0  502  0.32777349730E+02  0.49980525941E+02 -0.77800651581E+02  0.98197868689E+02  0.41800000000E+01 0. -1.
        -11    1    4    4    0    0 -0.90294289092E+01 -0.28554050837E+02 -0.32133454732E-01  0.29947711735E+02  0.00000000000E+00 0.  1.
         11    1    4    4    0    0 -0.14919801724E+02  0.43769676979E+02 -0.98809246168E+02  0.10909469389E+03  0.00000000000E+00 0. -1.
</event>
<event>
 8    1  0.6945825E-009  0.8461688E+02  0.7561462E-02  0.1316437E+00
         -1   -1    0    0    0  501 -0.00000000000E+00  0.00000000000E+00  0.73518431225E+02  0.73518431225E+02  0.00000000000E+00 0.  1.
          1   -1    0    0  501    0  0.00000000000E+00 -0.00000000000E+00 -0.25566374425E+03  0.25566374425E+03  0.00000000000E+00 0. -1.
         25    2    1    2    0    0 -0.60027258925E+02 -0.24924843590E+02 -0.37433945148E+02  0.14585178762E+03  0.12508766550E+03 0.  0.
         23    2    1    2    0    0  0.60027258925E+02  0.24924843590E+02 -0.14471136788E+03  0.18333038785E+03  0.91891955446E+02 0.  0.
          5    1    3    3  502    0 -0.34521485653E+02  0.18469435695E+02 -0.73777567616E+02  0.83626879112E+02  0.41800000000E+01 0.  1.
         -5    1    3    3    0  502 -0.25505773272E+02 -0.43394279285E+02  0.36343622468E+02  0.62224908509E+02  0.41800000000E+01 0.  1.
        -11    1    4    4    0    0  0.51179689249E+01  0.23890271560E+02  0.40405729101E+01  0.24764186047E+02  0.00000000000E+00 0.  1.
         11    1    4    4    0    0  0.54909290000E+02  0.10345720304E+01 -0.14875194079E+03  0.15856620181E+03  0.00000000000E+00 0. -1.
</event>
<event>
 8    1  0.6945825E-009  0.1099708E+03  0.7561462E-02  0.1260624E+00
         -1   -1    0    0    0  501 -0.00000000000E+00  0.00000000000E+00  0.49025770940E+02  0.49025770940E+02  0.00000000000E+00 0.  1.
          1   -1    0    0  501    0  0.00000000000E+00 -0.00000000000E+00 -0.42216401845E+03  0.42216401845E+03  0.00000000000E+00 0. -1.
         25    2    1    2    0    0 -0.11684182850E+01 -0.69897848210E+02 -0.99475951148E+02  0.17444424186E+03  0.12509298252E+03 0.  0.
         23    2    1    2    0    0  0.11684182850E+01  0.69897848210E+02 -0.27366229636E+03  0.29674554752E+03  0.90993368667E+02 0.  0.
          5    1    3    3  502    0  0.35638073546E+02 -0.58651928604E+02 -0.11448127488E+01  0.68767027065E+02  0.41800000000E+01 0.  1.
         -5    1    3    3    0  502 -0.36806491832E+02 -0.11245919606E+02 -0.98331138399E+02  0.10567721480E+03  0.41800000000E+01 0.  1.
        -11    1    4    4    0    0 -0.18914076840E+02  0.85167975840E+02 -0.23405196513E+03  0.24978320358E+03  0.00000000000E+00 0. -1.
         11    1    4    4    0    0  0.20082495125E+02 -0.15270127631E+02 -0.39610331228E+02  0.46962343939E+02  0.00000000000E+00 0.  1.
</event>
<event>
 8    1  0.6945825E-009  0.1716068E+03  0.7561462E-02  0.1176182E+00
          3   -1    0    0  501    0  0.00000000000E+00  0.00000000000E+00  0.80374246949E+03  0.80374246949E+03  0.00000000000E+00 0. -1.
         -3   -1    0    0    0  501 -0.00000000000E+00 -0.00000000000E+00 -0.39157156974E+02  0.39157156974E+02  0.00000000000E+00 0.  1.
         25    2    1    2    0    0 -0.97347992908E+02 -0.97461360568E+02  0.34485719675E+03  0.39185406452E+03  0.12509105965E+03 0.  0.
         23    2    1    2    0    0  0.97347992908E+02  0.97461360568E+02  0.41972811577E+03  0.45104556194E+03  0.91077215896E+02 0.  0.
          5    1    3    3  502    0  0.39043353655E+01  0.25551584415E+02  0.39217542399E+02  0.47155225931E+02  0.41800000000E+01 0.  1.
         -5    1    3    3    0  502 -0.10125232827E+03 -0.12301294498E+03  0.30563965435E+03  0.34469883859E+03  0.41800000000E+01 0.  1.
        -11    1    4    4    0    0  0.11026398772E+03  0.81481237401E+02  0.39883226296E+03  0.42173986415E+03  0.00000000000E+00 0. -1.
         11    1    4    4    0    0 -0.12915994813E+02  0.15980123167E+02  0.20895852806E+02  0.29305697790E+02  0.00000000000E+00 0.  1.
</event>
<event>
 8    1  0.6945825E-009  0.1376173E+03  0.7561462E-02  0.1216571E+00
          1   -1    0    0  501    0  0.00000000000E+00  0.00000000000E+00  0.63091773870E+03  0.63091773870E+03  0.00000000000E+00 0. -1.
         -1   -1    0    0    0  501 -0.00000000000E+00 -0.00000000000E+00 -0.36337585552E+02  0.36337585552E+02  0.00000000000E+00 0.  1.
         25    2    1    2    0    0  0.75945035526E+02 -0.71335681699E+02  0.35042046353E+03  0.38639099754E+03  0.12508826407E+03 0.  0.
         23    2    1    2    0    0 -0.75945035526E+02  0.71335681699E+02  0.24415968961E+03  0.28086432672E+03  0.91729973752E+02 0.  0.
          5    1    3    3  502    0 -0.32092858946E+02 -0.43747688951E+01  0.45452078200E+02  0.55968330428E+02  0.41800000000E+01 0.  1.
         -5    1    3    3    0  502  0.10803789447E+03 -0.66960912804E+02  0.30496838533E+03  0.33042266711E+03  0.41800000000E+01 0.  1.
        -11    1    4    4    0    0 -0.43197763885E+02  0.70453791766E+02  0.23138822079E+03  0.24570366765E+03  0.00000000000E+00 0. -1.
         11    1    4    4    0    0 -0.32747271641E+02  0.88188993339E+00  0.12771468828E+02  0.35160659064E+02  0.00000000000E+00 0.  1.
</event>
<event>
 8    1  0.6945825E-009  0.7611356E+02  0.7561462E-02  0.1340457E+00
         -4   -1    0    0    0  501 -0.00000000000E+00  0.00000000000E+00  0.51835504677E+03  0.51835504677E+03  0.00000000000E+00 0. -1.
          4   -1    0    0  501    0  0.00000000000E+00 -0.00000000000E+00 -0.51603307149E+02  0.51603307149E+02  0.00000000000E+00 0.  1.
         25    2    1    2    0    0 -0.18068558018E+02  0.39712957630E+02  0.44841685737E+03  0.46757453233E+03  0.12507866931E+03 0.  0.
         23    2    1    2    0    0  0.18068558018E+02 -0.39712957630E+02  0.18334882255E+02  0.10238382159E+03  0.90789246191E+02 0.  0.
          5    1    3    3  502    0 -0.22777566482E+02  0.68186132796E+02  0.42240063045E+03  0.42849496058E+03  0.41800000000E+01 0.  1.
         -5    1    3    3    0  502  0.47090084636E+01 -0.28473175167E+02  0.26016226920E+02  0.39079571747E+02  0.41800000000E+01 0.  1.
        -11    1    4    4    0    0 -0.72611026603E+00 -0.29794622205E+02 -0.34407797331E+02  0.45520800362E+02  0.00000000000E+00 0.  1.
         11    1    4    4    0    0  0.18794668284E+02 -0.99183354242E+01  0.52742679585E+02  0.56863021229E+02  0.00000000000E+00 0. -1.
</event>
<event>
 8    1  0.6945825E-009  0.1082362E+03  0.7561462E-02  0.1263871E+00
         -1   -1    0    0    0  501 -0.00000000000E+00  0.00000000000E+00  0.87647834159E+03  0.87647834159E+03  0.00000000000E+00 0.  1.
          1   -1    0    0  501    0  0.00000000000E+00 -0.00000000000E+00 -0.18020224842E+02  0.18020224842E+02  0.00000000000E+00 0. -1.
         25    2    1    2    0    0 -0.35910307966E+02  0.88180146673E+01  0.65855379536E+03  0.67134780275E+03  0.12508982080E+03 0.  0.
         23    2    1    2    0    0  0.35910307966E+02 -0.88180146673E+01  0.19990432139E+03  0.22315076369E+03  0.92017487595E+02 0.  0.
          5    1    3    3  502    0 -0.62497943964E+02 -0.37634457275E+02  0.29854165567E+03  0.30735474284E+03  0.41800000000E+01 0.  1.
         -5    1    3    3    0  502  0.26587635999E+02  0.46452471942E+02  0.36001213969E+03  0.36399305991E+03  0.41800000000E+01 0.  1.
        -11    1    4    4    0    0 -0.14873115141E+02  0.24723047969E+02  0.25761358566E+02  0.38679274167E+02  0.00000000000E+00 0. -1.
         11    1    4    4    0    0  0.50783423107E+02 -0.33541062636E+02  0.17414296282E+03  0.18447148952E+03  0.00000000000E+00 0.  1.
</event>
<event>
 8    1  0.6945825E-009  0.1200722E+03  0.7561462E-02  0.1242978E+00
          4   -1    0    0  501    0  0.00000000000E+00  0.00000000000E+00  0.39091377420E+03  0.39091377420E+03  0.00000000000E+00 0. -1.
         -4   -1    0    0    0  501 -0.00000000000E+00 -0.00000000000E+00 -0.50024860861E+02  0.50024860861E+02  0.00000000000E+00 0.  1.
         25    2    1    2    0    0 -0.83997293417E+02 -0.52631215916E+01  0.14808579973E+03  0.21133076088E+03  0.12509212870E+03 0.  0.
         23    2    1    2    0    0  0.83997293417E+02  0.52631215916E+01  0.19280311361E+03  0.22960787418E+03  0.91997225595E+02 0.  0.
          5    1    3    3  502    0 -0.98485524285E+02  0.31753556123E+02  0.13309938969E+03  0.16864343081E+03  0.41800000000E+01 0.  1.
         -5    1    3    3    0  502  0.14488230868E+02 -0.37016677714E+02  0.14986410040E+02  0.42687330071E+02  0.41800000000E+01 0.  1.
        -11    1    4    4    0    0  0.81612966403E+02  0.18066182930E+02  0.19850860530E+03  0.21538971570E+03  0.00000000000E+00 0. -1.
         11    1    4    4    0    0  0.23843270137E+01 -0.12803061339E+02 -0.57054916953E+01  0.14218158476E+02  0.00000000000E+00 0.  1.
</event>
<event>
 8    1  0.6945825E-009  0.9623546E+02  0.7561462E-02  0.1288418E+00
          2   -1    0    0  501    0  0.00000000000E+00  0.00000000000E+00  0.40263458489E+03  0.40263458489E+03  0.00000000000E+00 0.  1.
         -2   -1    0    0    0  501 -0.00000000000E+00 -0.00000000000E+00 -0.33108346891E+02  0.33108346891E+02  0.00000000000E+00 0. -1.
         25    2    1    2    0    0  0.24138887303E+02 -0.22889039849E+02  0.16671878296E+03  0.21106906964E+03  0.12509358714E+03 0.  0.
         23    2    1    2    0    0 -0.24138887303E+02  0.22889039849E+02  0.20280745504E+03  0.22467386213E+03  0.90779328498E+02 0.  0.
          5    1    3    3  502    0 -0.10164635284E+02 -0.53835372934E+02  0.22153845940E+02  0.59243839168E+02  0.41800000000E+01 0. -1.
         -5    1    3    3    0  502  0.34303522587E+02  0.30946333085E+02  0.14456493702E+03  0.15182523047E+03  0.41800000000E+01 0. -1.
        -11    1    4    4    0    0  0.14827327511E+02 -0.25202345580E+02  0.10441302423E+03  0.10843010418E+03  0.00000000000E+00 0.  1.
         11    1    4    4    0    0 -0.38966214814E+02  0.48091385429E+02  0.98394430810E+02  0.11624375796E+03  0.00000000000E+00 0. -1.
</event>
<event>
 8    1  0.6945825E-009  0.1014235E+03  0.7561462E-02  0.1277331E+00
          2   -1    0    0  501    0  0.00000000000E+00  0.00000000000E+00  0.24282960623E+03  0.24282960623E+03  0.00000000000E+00 0. -1.
         -2   -1    0    0    0  501 -0.00000000000E+00 -0.00000000000E+00 -0.55566806565E+02  0.55566806565E+02  0.00000000000E+00 0.  1.
         25    2    1    2    0    0 -0.35867967953E+02 -0.89487235586E+01  0.80026771460E+02  0.15303201010E+03  0.12509165115E+03 0.  0.
         23    2    1    2    0    0  0.35867967953E+02  0.89487235586E+01  0.10723602820E+03  0.14536440269E+03  0.90910137202E+02 0.  0.
          5    1    3    3  502    0 -0.56354967657E+02  0.27379063977E+02  0.90195461562E+02  0.10990081533E+03  0.41800000000E+01 0.  1.
         -5    1    3    3    0  502  0.20486999704E+02 -0.36327787536E+02 -0.10168690102E+02  0.43131194773E+02  0.41800000000E+01 0.  1.
        -11    1    4    4    0    0 -0.61625522490E+01 -0.36044652626E+02  0.39758126916E+02  0.54017614618E+02  0.00000000000E+00 0. -1.
         11    1    4    4    0    0  0.42030520202E+02  0.44993376184E+02  0.67477901288E+02  0.91346788073E+02  0.00000000000E+00 0.  1.
</event>
<event>
 8    1  0.6945825E-009  0.1310868E+03  0.7561462E-02  0.1225852E+00
          4   -1    0    0  501    0  0.00000000000E+00  0.00000000000E+00  0.23316622409E+03  0.23316622409E+03  0.00000000000E+00 0.  1.
         -4   -1    0    0    0  501 -0.00000000000E+00 -0.00000000000E+00 -0.90909049440E+02  0.90909049440E+02  0.00000000000E+00 0. -1.
         25    2    1    2    0    0  0.27360955566E+02 -0.88580418111E+02  0.10717673942E+03  0.18902175401E+03  0.12508899893E+03 0.  0.
         23    2    1    2    0    0 -0.27360955566E+02  0.88580418111E+02  0.35080435231E+02  0.13505351952E+03  0.91726243990E+02 0.  0.
          5    1    3    3  502    0 -0.59615151798E+01  0.18337342413E+02  0.67200579231E+02  0.70037047618E+02  0.41800000000E+01 0. -1.
         -5    1    3    3    0  502  0.33322470746E+02 -0.10691776052E+03  0.39976160189E+02  0.11898470639E+03  0.41800000000E+01 0. -1.
        -11    1    4    4    0    0  0.24425506417E+02  0.71952028661E+02  0.18746481990E+02  0.78263212170E+02  0.00000000000E+00 0.  1.
         11    1    4    4    0    0 -0.51786461983E+02  0.16628389450E+02  0.16333953241E+02  0.56790307350E+02  0.00000000000E+00 0. -1.
</event>
<event>
 8    1  0.6945825E-009  0.1329325E+03  0.7561462E-02  0.1223168E+00
         -2   -1    0    0    0  501 -0.00000000000E+00  0.00000000000E+00  0.47754009626E+02  0.47754009626E+02  0.00000000000E+00 0.  1.
          2   -1    0    0  501    0  0.00000000000E+00 -0.00000000000E+00 -0.52649287598E+03  0.52649287598E+03  0.00000000000E+00 0. -1.
         25    2    1    2    0    0  0.11307031273E+02 -0.10739283421E+03 -0.34901357534E+03  0.38615884526E+03  0.12508840157E+03 0.  0.
         23    2    1    2    0    0 -0.11307031273E+02  0.10739283421E+03 -0.12972529102E+03  0.18808804035E+03  0.82990300606E+02 0.  0.
          5    1    3    3  502    0 -0.45663875449E+02 -0.41853655546E+02 -0.23332820195E+03  0.24144655771E+03  0.41800000000E+01 0.  1.
         -5    1    3    3    0  502  0.56970906722E+02 -0.65539178667E+02 -0.11568537339E+03  0.14471228755E+03  0.41800000000E+01 0.  1.
        -11    1    4    4    0    0 -0.25095144232E+02  0.34532350016E+02 -0.99018251485E+02  0.10782793510E+03  0.00000000000E+00 0.  1.
         11    1    4    4    0    0  0.13788112959E+02  0.72860484198E+02 -0.30707039533E+02  0.80260105242E+02  0.00000000000E+00 0. -1.
</event>
<event>
 8    1  0.6945825E-009  0.9283895E+02  0.7561462E-02  0.1296119E+00
         -2   -1    0    0    0  501 -0.00000000000E+00  0.00000000000E+00  0.19341639098E+02  0.19341639098E+02  0.00000000000E+00 0.  1.
          2   -1    0    0  501    0  0.00000000000E+00 -0.00000000000E+00 -0.64147068818E+03  0.64147068818E+03  0.00000000000E+00 0. -1.
         25    2    1    2    0    0  0.28454535482E+01 -0.73477960800E+00 -0.44858017365E+03  0.46570238238E+03  0.12508357308E+03 0.  0.
         23    2    1    2    0    0 -0.28454535482E+01  0.73477960800E+00 -0.17354887543E+03  0.19510994490E+03  0.89106912904E+02 0.  0.
          5    1    3    3  502    0  0.61012451953E+02 -0.17915587563E+01 -0.29810289449E+03  0.30431650806E+03  0.41800000000E+01 0.  1.
         -5    1    3    3    0  502 -0.58166998405E+02  0.10567791483E+01 -0.15047727916E+03  0.16138587431E+03  0.41800000000E+01 0.  1.
        -11    1    4    4    0    0  0.26601586946E+02  0.17920270887E+02 -0.19950715706E+02  0.37773159702E+02  0.00000000000E+00 0.  1.
         11    1    4    4    0    0 -0.29447040494E+02 -0.17185491279E+02 -0.15359815973E+03  0.15733678520E+03  0.00000000000E+00 0. -1.
</event>
<event>
 8    1  0.6945825E-009  0.1066851E+03  0.7561462E-02  0.1266835E+00
          1   -1    0    0  501    0  0.00000000000E+00  0.00000000000E+00  0.11823215407E+03  0.11823215407E+03  0.00000000000E+00 0. -1.
         -1   -1    0    0    0  501 -0.00000000000E+00 -0.00000000000E+00 -0.10188662825E+03  0.10188662825E+03  0.00000000000E+00 0.  1.
         25    2    1    2    0    0  0.43510628647E+01 -0.10126494481E+02 -0.25299625321E+01  0.12558724174E+03  0.12507708399E+03 0.  0.
         23    2    1    2    0    0 -0.43510628647E+01  0.10126494481E+02  0.18875488349E+02  0.94531540575E+02  0.91969834536E+02 0.  0.
          5    1    3    3  502    0 -0.23607128710E+02 -0.60669035799E+02 -0.13576809584E+02  0.66632053767E+02  0.41800000000E+01 0.  1.
         -5    1    3    3    0  502  0.27958191574E+02  0.50542541318E+02  0.11046847052E+02  0.58955187972E+02  0.41800000000E+01 0.  1.
        -11    1    4    4    0    0  0.42464871029E+02  0.89302046158E+01  0.19785447202E+02  0.47691485058E+02  0.00000000000E+00 0. -1.
         11    1    4    4    0    0 -0.46815933894E+02  0.11962898654E+01 -0.90995885288E+00  0.46840055518E+02  0.00000000000E+00 0.  1.
</event>
<event>
 8    1  0.6945825E-009  0.1141645E+03  0.7561462E-02  0.1253047E+00
          1   -1    0    0  501    0  0.00000000000E+00  0.00000000000E+00  0.11139840093E+04  0.11139840093E+04  0.00000000000E+00 0. -1.
         -1   -1    0    0    0  501 -0.00000000000E+00 -0.00000000000E+00 -0.19523036516E+02  0.19523036516E+02  0.00000000000E+00 0.  1.
         25    2    1    2    0    0 -0.74943801788E+02  0.53966341479E+02  0.73868781365E+03  0.75487414752E+03  0.12508538327E+03 0.  0.
         23    2    1    2    0    0  0.74943801788E+02 -0.53966341479E+02  0.35577315912E+03  0.37863289829E+03  0.90881194310E+02 0.  0.
          5    1    3    3  502    0 -0.40838588571E+02 -0.70936245815E+00  0.60515796022E+03  0.60654919234E+03  0.41800000000E+01 0. -1.
         -5    1    3    3    0  502 -0.34105213216E+02  0.54675703937E+02  0.13352985343E+03  0.14832495517E+03  0.41800000000E+01 0. -1.
        -11    1    4    4    0    0  0.31318814908E+02  0.19757963445E+02  0.58260369647E+02  0.69032716578E+02  0.00000000000E+00 0. -1.
         11    1    4    4    0    0  0.43624986879E+02 -0.73724304924E+02  0.29751278947E+03  0.30960018171E+03  0.00000000000E+00 0.  1.
</event>
<event>
 8    1  0.6945825E-009  0.1084482E+03  0.7561462E-02  0.1263471E+00
         -2   -1    0    0    0  501 -0.00000000000E+00  0.00000000000E+00  0.27231926279E+02  0.27231926279E+02  0.00000000000E+00 0.  1.
          2   -1    0    0  501    0  0.00000000000E+00 -0.00000000000E+00 -0.61012222438E+03  0.61012222438E+03  0.00000000000E+00 0. -1.
         25    2    1    2    0    0  0.17656311015E+02  0.41575476119E+02 -0.45758051422E+03  0.47651601533E+03  0.12508924950E+03 0.  0.
         23    2    1    2    0    0 -0.17656311015E+02 -0.41575476119E+02 -0.12530978388E+03  0.16083813533E+03  0.90144873990E+02 0.  0.
          5    1    3    3  502    0  0.19240374543E+02 -0.42614009736E+02 -0.12844544796E+03  0.13675471232E+03  0.41800000000E+01 0. -1.
         -5    1    3    3    0  502 -0.15840635274E+01  0.84189485855E+02 -0.32913506626E+03  0.33976130301E+03  0.41800000000E+01 0. -1.
        -11    1    4    4    0    0  0.28283179503E+02 -0.10436443603E+02 -0.81985839051E+01  0.31242189039E+02  0.00000000000E+00 0.  1.
         11    1    4    4    0    0 -0.45939490518E+02 -0.31139032516E+02 -0.11711119998E+03  0.12959594629E+03  0.00000000000E+00 0. -1.
</event>
<event>
 8    1  0.6945825E-009  0.1149043E+03  0.7561462E-02  0.1251748E+00
         -2   -1    0    0    0  501 -0.00000000000E+00  0.00000000000E+00  0.19865813613E+03  0.19865813613E+03  0.00000000000E+00 0.  1.
          2   -1    0    0  501    0  0.00000000000E+00 -0.00000000000E+00 -0.93173223634E+02  0.93173223634E+02  0.00000000000E+00 0. -1.
         25    2    1    2    0    0 -0.31112239105E+02  0.50795204153E+02 -0.45312209405E+01  0.13862134563E+03  0.12508885367E+03 0.  0.
         23    2    1    2    0    0  0.31112239105E+02 -0.50795204153E+02  0.11001613344E+03  0.15321001414E+03  0.88440005816E+02 0.  0.
          5    1    3    3  502    0  0.29557790348E+02  0.66672437401E+02 -0.15870391692E+02  0.74754388578E+02  0.41800000000E+01 0.  1.
         -5    1    3    3    0  502 -0.60670029453E+02 -0.15877233248E+02  0.11339170752E+02  0.63866957050E+02  0.41800000000E+01 0.  1.
        -11    1    4    4    0    0 -0.22613419600E+02 -0.26799087980E+02  0.79581173381E+02  0.86963906417E+02  0.00000000000E+00 0.  1.
         11    1    4    4    0    0  0.53725658705E+02 -0.23996116172E+02  0.30434960059E+02  0.66246107723E+02  0.00000000000E+00 0. -1.
</event>
<event>
 8    1  0.6945825E-009  0.1317021E+03  0.7561462E-02  0.1224952E+00
          1   -1    0    0  501    0  0.00000000000E+00  0.00000000000E+00  0.55812290704E+03  0.55812290704E+03  0.00000000000E+00 0. -1.
         -1   -1    0    0    0  501 -0.00000000000E+00 -0.00000000000E+00 -0.55509985781E+02  0.55509985781E+02  0.00000000000E+00 0.  1.
         25    2    1    2    0    0 -0.22112546472E+02  0.79296401210E+02  0.71350214462E+02  0.16588672629E+03  0.12510263347E+03 0.  0.
         23    2    1    2    0    0  0.22112546472E+02 -0.79296401210E+02  0.43126270679E+03  0.44774616652E+03  0.87819265597E+02 0.  0.
          5    1    3    3  502    0  0.48327880586E+02  0.42459961942E+02  0.54739790184E+02  0.84571564012E+02  0.41800000000E+01 0. -1.
         -5    1    3    3    0  502 -0.70440427059E+02  0.36836439269E+02  0.16610424278E+02  0.81315162282E+02  0.41800000000E+01 0. -1.
        -11    1    4    4    0    0  0.53479616844E+02 -0.31196943525E+02  0.25285922487E+03  0.26032884263E+03  0.00000000000E+00 0. -1.
         11    1    4    4    0    0 -0.31367070372E+02 -0.48099457685E+02  0.17840348192E+03  0.18741732389E+03  0.00000000000E+00 0.  1.
</event>
<event>
 8    1  0.6945825E-009  0.1513602E+03  0.7561462E-02  0.1198812E+00
          1   -1    0    0  501    0  0.00000000000E+00  0.00000000000E+00  0.48415928436E+02  0.48415928436E+02  0.00000000000E+00 0. -1.
         -1   -1    0    0    0  501 -0.00000000000E+00 -0.00000000000E+00 -0.52948622598E+03  0.52948622598E+03  0.00000000000E+00 0.  1.
         25    2    1    2    0    0  0.79070769819E+02  0.87313660547E+02 -0.25132830197E+03  0.30445064380E+03  0.12509363366E+03 0.  0.
         23    2    1    2    0    0 -0.79070769819E+02 -0.87313660547E+02 -0.22974199558E+03  0.27345151062E+03  0.90102620217E+02 0.  0.
          5    1    3    3  502    0  0.98163401782E+02  0.44924953860E+02 -0.22792803419E+03  0.25223593340E+03  0.41800000000E+01 0.  1.
         -5    1    3    3    0  502 -0.19092631963E+02  0.42388706686E+02 -0.23400267777E+02  0.52214710397E+02  0.41800000000E+01 0.  1.
        -11    1    4    4    0    0 -0.93305552877E+02 -0.45444729907E+02 -0.15297609136E+03  0.18485895759E+03  0.00000000000E+00 0. -1.
         11    1    4    4    0    0  0.14234783058E+02 -0.41868930640E+02 -0.76765904220E+02  0.88592553030E+02  0.00000000000E+00 0.  1.
</event>
<event>
 8    1  0.6945825E-009  0.7561979E+02  0.7561462E-02  0.1341962E+00
         -1   -1    0    0    0  501 -0.00000000000E+00  0.00000000000E+00  0.13720300014E+02  0.13720300014E+02  0.00000000000E+00 0.  1.
          1   -1    0    0  501    0  0.00000000000E+00 -0.00000000000E+00 -0.10536467880E+04  0.10536467880E+04  0.00000000000E+00 0. -1.
         25    2    1    2    0    0 -0.11925915323E+02 -0.25822513545E+02 -0.77516610354E+03  0.78570874798E+03  0.12508684553E+03 0.  0.
         23    2    1    2    0    0  0.11925915323E+02  0.25822513545E+02 -0.26476038442E+03  0.28165834000E+03  0.91784147171E+02 0.  0.
          5    1    3    3  502    0 -0.30610477298E+02 -0.37402642248E+01 -0.43642912225E+02  0.53601931722E+02  0.41800000000E+01 0. -1.
         -5    1    3    3    0  502  0.18684561974E+02 -0.22082249320E+02 -0.73152319131E+03  0.73210681626E+03  0.41800000000E+01 0. -1.
        -11    1    4    4    0    0 -0.26731381030E+02  0.41346079308E+02 -0.18780227476E+03  0.19414880739E+03  0.00000000000E+00 0. -1.
         11    1    4    4    0    0  0.38657296353E+02 -0.15523565764E+02 -0.76958109661E+02  0.87509532612E+02  0.00000000000E+00 0.  1.
</event>
<event>
 8    1  0.6945825E-009  0.1298727E+03  0.7561462E-02  0.1227645E+00
         -3   -1    0    0    0  501 -0.00000000000E+00  0.00000000000E+00  0.91013261203E+02  0.91013261203E+02  0.00000000000E+00 0.  1.
          3   -1    0    0  501    0  0.00000000000E+00 -0.00000000000E+00 -0.26969180853E+03  0.26969180853E+03  0.00000000000E+00 0. -1.
         25    2    1    2    0    0  0.77576938149E+02 -0.38671858761E+02 -0.18321777711E+03  0.23818112732E+03  0.12509117304E+03 0.  0.
         23    2    1    2    0    0 -0.77576938149E+02  0.38671858761E+02  0.45392297785E+01  0.12252394241E+03  0.86474376923E+02 0.  0.
          5    1    3    3  502    0 -0.13689695451E+02 -0.43522434553E+02 -0.11579881248E+03  0.12453291711E+03  0.41800000000E+01 0.  1.
         -5    1    3    3    0  502  0.91266633599E+02  0.48505757919E+01 -0.67418964623E+02  0.11364821021E+03  0.41800000000E+01 0.  1.
        -11    1    4    4    0    0 -0.19868805901E+01  0.46410891264E+02  0.14550882633E+01  0.46476185345E+02  0.00000000000E+00 0. -1.
         11    1    4    4    0    0 -0.75590057559E+02 -0.77390325026E+01  0.30841415152E+01  0.76047757065E+02  0.00000000000E+00 0.  1.
</event>
<event>
 8    1  0.6945825E-009  0.7602263E+02  0.7561462E-02  0.1340733E+00
          1   -1    0    0  501    0  0.00000000000E+00  0.00000000000E+00  0.60314784365E+03  0.60314784365E+03  0.00000000000E+00 0. -1.
         -1   -1    0    0    0  501 -0.00000000000E+00 -0.00000000000E+00 -0.28952390326E+02  0.28952390326E+02  0.00000000000E+00 0.  1.
         25    2    1    2    0    0 -0.28967852568E+02  0.83016424545E+01  0.48696942532E+03  0.50368353487E+03  0.12509927401E+03 0.  0.
         23    2    1    2    0    0  0.28967852568E+02 -0.83016424545E+01  0.87226028011E+02  0.12841669911E+03  0.89299579494E+02 0.  0.
          5    1    3    3  502    0  0.34593944404E+02  0.16502346689E+02  0.56208599918E+02  0.68161187933E+02  0.41800000000E+01 0. -1.
         -5    1    3    3    0  502 -0.63561796972E+02 -0.82007042348E+01  0.43076082540E+03  0.43552234694E+03  0.41800000000E+01 0. -1.
        -11    1    4    4    0    0  0.19987428742E+02  0.14543019107E+02 -0.11083187426E+02  0.27089366105E+02  0.00000000000E+00 0.  1.
         11    1    4    4    0    0  0.89804238257E+01 -0.22844661562E+02  0.98309215437E+02  0.10132733300E+03  0.00000000000E+00 0. -1.
</event>
<event>
 8    1  0.6945825E-009  0.1152934E+03  0.7561462E-02  0.1251070E+00
          2   -1    0    0  501    0  0.00000000000E+00  0.00000000000E+00  0.84942697967E+02  0.84942697967E+02  0.00000000000E+00 0.  1.
         -2   -1    0    0    0  501 -0.00000000000E+00 -0.00000000000E+00 -0.17858022563E+03  0.17858022563E+03  0.00000000000E+00 0. -1.
         25    2    1    2    0    0 -0.50213403506E+02  0.30250786790E+02 -0.25833229811E+02  0.14054258761E+03  0.12509343378E+03 0.  0.
         23    2    1    2    0    0  0.50213403506E+02 -0.30250786790E+02 -0.67804297853E+02  0.12298033599E+03  0.84203588048E+02 0.  0.
          5    1    3    3  502    0 -0.25137874436E+01  0.67362183936E+02  0.12732523704E+02  0.68728251191E+02  0.41800000000E+01 0.  1.
         -5    1    3    3    0  502 -0.47699616062E+02 -0.37111397146E+02 -0.38565753515E+02  0.71814336415E+02  0.41800000000E+01 0.  1.
        -11    1    4    4    0    0  0.49847042057E+02  0.18904340128E+02 -0.38389397034E+02  0.65695110032E+02  0.00000000000E+00 0.  1.
         11    1    4    4    0    0  0.36636144836E+00 -0.49155126918E+02 -0.29414900820E+02  0.57285225959E+02  0.00000000000E+00 0. -1.
</event>
<event>
 8    1  0.6945825E-009  0.1412655E+03  0.7561462E-02  0.1211636E+00
          2   -1    0    0  501    0  0.00000000000E+00  0.00000000000E+00  0.67462894695E+03  0.67462894695E+03  0.00000000000E+00 0. -1.
         -2   -1    0    0    0  501 -0.00000000000E+00 -0.00000000000E+00 -0.34347312003E+02  0.34347312003E+02  0.00000000000E+00 0.  1.
         25    2    1    2    0    0  0.19242594363E+02 -0.10259772186E+03  0.27853272536E+03  0.32268356500E+03  0.12509050346E+03 0.  0.
         23    2    1    2    0    0 -0.19242594363E+02  0.10259772186E+03  0.36174890958E+03  0.38629269395E+03  0.86389824892E+02 0.  0.
          5    1    3    3  502    0  0.52781529860E+02 -0.14687903042E+01  0.12497531903E+03  0.13573632530E+03  0.41800000000E+01 0. -1.
         -5    1    3    3    0  502 -0.33538935497E+02 -0.10112893156E+03  0.15355740633E+03  0.18694723970E+03  0.41800000000E+01 0. -1.
        -11    1    4    4    0    0  0.65826618874E+01  0.96074923479E+02  0.33490836701E+03  0.34847860286E+03  0.00000000000E+00 0. -1.
         11    1    4    4    0    0 -0.25825256251E+02  0.65227983847E+01  0.26840542572E+02  0.37814091087E+02  0.00000000000E+00 0.  1.
</event>
<event>
 8    1  0.6945825E-009  0.5064256E+02  0.7561462E-02  0.1441906E+00
         -3   -1    0    0    0  501 -0.00000000000E+00  0.00000000000E+00  0.33783589991E+03  0.33783589991E+03  0.00000000000E+00 0.  1.
          3   -1    0    0  501    0  0.00000000000E+00 -0.00000000000E+00 -0.43545166445E+02  0.43545166445E+02  0.00000000000E+00 0. -1.
         25    2    1    2    0    0 -0.53088896984E+01  0.27075356955E+02  0.23629749416E+03  0.26878388047E+03  0.12508800660E+03 0.  0.
         23    2    1    2    0    0  0.53088896984E+01 -0.27075356955E+02  0.57993239310E+02  0.11259718588E+03  0.92485951359E+02 0.  0.
          5    1    3    3  502    0 -0.65448507643E+01 -0.56789515072E+01  0.23553562258E+03  0.23573202469E+03  0.41800000000E+01 0.  1.
         -5    1    3    3    0  502  0.12359610659E+01  0.32754308463E+02  0.76187158112E+00  0.33051855786E+02  0.41800000000E+01 0.  1.
        -11    1    4    4    0    0 -0.21068328910E+02 -0.34985786686E+00 -0.18077671749E+02  0.27763268890E+02  0.00000000000E+00 0. -1.
         11    1    4    4    0    0  0.26377218608E+02 -0.26725499089E+02  0.76070911059E+02  0.84833916993E+02  0.00000000000E+00 0.  1.
</event>
<event>
 8    1  0.6945825E-009  0.1395959E+03  0.7561462E-02  0.1213874E+00
          1   -1    0    0  501    0  0.00000000000E+00  0.00000000000E+00  0.11321104097E+03  0.11321104097E+03  0.00000000000E+00 0. -1.
         -1   -1    0    0    0  501 -0.00000000000E+00 -0.00000000000E+00 -0.20340209260E+03  0.20340209260E+03  0.00000000000E+00 0.  1.
         25    2    1    2    0    0 -0.58783347323E+02 -0.65282958949E+02  0.11087804663E+02  0.15325763440E+03  0.12509043304E+03 0.  0.
         23    2    1    2    0    0  0.58783347323E+02  0.65282958949E+02 -0.10127885629E+03  0.16335549916E+03  0.93328804361E+02 0.  0.
          5    1    3    3  502    0 -0.46071852506E+02 -0.10197438007E+03 -0.22149367010E+01  0.11199896486E+03  0.41800000000E+01 0. -1.
         -5    1    3    3    0  502 -0.12711494817E+02  0.36691421124E+02  0.13302741364E+02  0.41258669542E+02  0.41800000000E+01 0. -1.
        -11    1    4    4    0    0  0.84377508211E+02  0.54079837118E+02 -0.80071972879E+02  0.12827982505E+03  0.00000000000E+00 0. -1.
         11    1    4    4    0    0 -0.25594160888E+02  0.11203121830E+02 -0.21206883416E+02  0.35075674113E+02  0.00000000000E+00 0.  1.
</event>
<event>
 8    1  0.6945825E-009  0.9068504E+02  0.7561462E-02  0.1301201E+00
         -1   -1    0    0    0  501 -0.00000000000E+00  0.00000000000E+00  0.16290027566E+02  0.16290027566E+02  0.00000000000E+00 0.  1.
          1   -1    0    0  501    0  0.00000000000E+00 -0.00000000000E+00 -0.85958732673E+03  0.85958732673E+03  0.00000000000E+00 0. -1.
         25    2    1    2    0    0  0.19519472599E+01  0.45686755387E+02 -0.50050989685E+03  0.51793008987E+03  0.12510128468E+03 0.  0.
         23    2    1    2    0    0 -0.19519472599E+01 -0.45686755387E+02 -0.34278740231E+03  0.35794726443E+03  0.92368561818E+02 0.  0.
          5    1    3    3  502    0  0.28238072959E+02  0.39643544805E+01 -0.43436753916E+03  0.43532256586E+03  0.41800000000E+01 0.  1.
         -5    1    3    3    0  502 -0.26286125699E+02  0.41722400907E+02 -0.66142357693E+02  0.82607524009E+02  0.41800000000E+01 0.  1.
        -11    1    4    4    0    0  0.44557015543E+02 -0.13704946282E+02 -0.15296333140E+03  0.15990914276E+03  0.00000000000E+00 0. -1.
         11    1    4    4    0    0 -0.46508962803E+02 -0.31981809105E+02 -0.18982407091E+03  0.19803812167E+03  0.00000000000E+00 0.  1.
</event>
<event>
 8    1  0.6945825E-009  0.8081280E+02  0.7561462E-02  0.1326761E+00
          2   -1    0    0  501    0  0.00000000000E+00  0.00000000000E+00  0.21328182958E+04  0.21328182958E+04  0.00000000000E+00 0.  1.
         -2   -1    0    0    0  501 -0.00000000000E+00 -0.00000000000E+00 -0.12288760227E+02  0.12288760227E+02  0.00000000000E+00 0. -1.
         25    2    1    2    0    0  0.31531551839E+02  0.19257149417E+02  0.18929827168E+04  0.18974711347E+04  0.12509222214E+03 0.  0.
         23    2    1    2    0    0 -0.31531551839E+02 -0.19257149417E+02  0.22754681870E+03  0.24763592134E+03  0.90448428792E+02 0.  0.
          5    1    3    3  502    0 -0.13636479770E+02  0.16527190098E+02  0.58738281652E+02  0.62663862987E+02  0.41800000000E+01 0.  1.
         -5    1    3    3    0  502  0.45168031610E+02  0.27299593196E+01  0.18342444352E+04  0.18348072717E+04  0.41800000000E+01 0.  1.
        -11    1    4    4    0    0 -0.35761003722E+02 -0.51022151354E+02  0.17837473779E+03  0.18894352701E+03  0.00000000000E+00 0. -1.
         11    1    4    4    0    0  0.42294518822E+01  0.31765001937E+02  0.49172080911E+02  0.58692394331E+02  0.00000000000E+00 0.  1.
</event>
<event>
 8    1  0.6945825E-009  0.7640829E+02  0.7561462E-02  0.1339565E+00
         -1   -1    0    0    0  501 -0.00000000000E+00  0.00000000000E+00  0.37980349232E+02  0.37980349232E+02  0.00000000000E+00 0.  1.
          1   -1    0    0  501    0  0.00000000000E+00 -0.00000000000E+00 -0.37364797072E+03  0.37364797072E+03  0.00000000000E+00 0. -1.
         25    2    1    2    0    0 -0.37591795805E+02  0.29896462893E+02 -0.21191060766E+03  0.25071976701E+03  0.12508938533E+03 0.  0.
         23    2    1    2    0    0  0.37591795805E+02 -0.29896462893E+02 -0.12375701382E+03  0.16090855294E+03  0.90933065130E+02 0.  0.
          5    1    3    3  502    0 -0.47297336628E+02 -0.12434054674E+02 -0.18506803136E+02  0.52455866498E+02  0.41800000000E+01 0. -1.
         -5    1    3    3    0  502  0.97055408232E+01  0.42330517567E+02 -0.19340380453E+03  0.19826390051E+03  0.41800000000E+01 0. -1.
        -11    1    4    4    0    0 -0.31085256148E+01 -0.17186729854E+02  0.10270879467E+02  0.20261726965E+02  0.00000000000E+00 0.  1.
         11    1    4    4    0    0  0.40700321420E+02 -0.12709733039E+02 -0.13402789329E+03  0.14064682597E+03  0.00000000000E+00 0. -1.
</event>
<event>
 8    1  0.6945825E-009  0.1202371E+03  0.7561462E-02  0.1242706E+00
          3   -1    0    0  501    0  0.00000000000E+00  0.00000000000E+00  0.70909197495E+02  0.70909197495E+02  0.00000000000E+00 0. -1.
         -3   -1    0    0    0  501 -0.00000000000E+00 -0.00000000000E+00 -0.37932456469E+03  0.37932456469E+03  0.00000000000E+00 0.  1.
         25    2    1    2    0    0  0.24259959416E+01  0.76366271268E+02 -0.29595070833E+03  0.33026113047E+03  0.12509156523E+03 0.  0.
         23    2    1    2    0    0 -0.24259959416E+01 -0.76366271268E+02 -0.12464658866E+02  0.11997263172E+03  0.91653542197E+02 0.  0.
          5    1    3    3  502    0 -0.21371888573E+02  0.99070785793E+02 -0.15339278234E+03  0.18389833140E+03  0.41800000000E+01 0. -1.
         -5    1    3    3    0  502  0.23797884514E+02 -0.22704514525E+02 -0.14255792599E+03  0.14636279907E+03  0.41800000000E+01 0. -1.
        -11    1    4    4    0    0 -0.33799432347E+02 -0.15034962029E+02 -0.31406010809E+02  0.48526170518E+02  0.00000000000E+00 0.  1.
         11    1    4    4    0    0  0.31373436405E+02 -0.61331309239E+02  0.18941351943E+02  0.71446461201E+02  0.00000000000E+00 0. -1.
</event>
<event>
 8    1  0.6945825E-009  0.1219715E+03  0.7561462E-02  0.1239880E+00
          1   -1    0    0  501    0  0.00000000000E+00  0.00000000000E+00  0.22744056628E+02  0.22744056628E+02  0.00000000000E+00 0. -1.
         -1   -1    0    0    0  501 -0.00000000000E+00 -0.00000000000E+00 -0.69644988789E+03  0.69644988789E+03  0.00000000000E+00 0.  1.
         25    2    1    2    0    0 -0.56108922017E+02 -0.28760895377E+02 -0.34444325516E+03  0.37183530346E+03  0.12507972113E+03 0.  0.
         23    2    1    2    0    0  0.56108922017E+02  0.28760895377E+02 -0.32926257610E+03  0.34735864106E+03  0.90932839317E+02 0.  0.
          5    1    3    3  502    0 -0.21295198706E+02 -0.77118762003E+02 -0.18679086865E+03  0.20324637747E+03  0.41800000000E+01 0. -1.
         -5    1    3    3    0  502 -0.34813723311E+02  0.48357866626E+02 -0.15765238651E+03  0.16858892599E+03  0.41800000000E+01 0. -1.
        -11    1    4    4    0    0  0.55477487833E+02  0.54841330124E+02 -0.28931314977E+03  0.29964549351E+03  0.00000000000E+00 0.  1.
         11    1    4    4    0    0  0.63143418397E+00 -0.26080434747E+02 -0.39949426324E+02  0.47713147552E+02  0.00000000000E+00 0. -1.
</event>
<event>
 8    1  0.6945825E-009  0.1293120E+03  0.7561462E-02  0.1228480E+00
         -2   -1    0    0    0  501 -0.00000000000E+00  0.00000000000E+00  0.54287960316E+02  0.54287960316E+02  0.00000000000E+00 0.  1.
          2   -1    0    0  501    0  0.00000000000E+00 -0.00000000000E+00 -0.35599070791E+03  0.35599070791E+03  0.00000000000E+00 0. -1.
         25    2    1    2    0    0 -0.58115799223E+02 -0.63856534901E+02 -0.16389351385E+03  0.22352531259E+03  0.12508948123E+03 0.  0.
         23    2    1    2    0    0  0.58115799223E+02  0.63856534901E+02 -0.13780923375E+03  0.18675335564E+03  0.91816816379E+02 0.  0.
          5    1    3    3  502    0 -0.61768979241E+02  0.21476319530E+02 -0.58857499074E+02  0.88081307292E+02  0.41800000000E+01 0. -1.
         -5    1    3    3    0  502  0.36531800181E+01 -0.85332854431E+02 -0.10503601478E+03  0.13544400529E+03  0.41800000000E+01 0. -1.
        -11    1    4    4    0    0  0.61375296361E+02  0.21399059282E+02 -0.12723734906E+03  0.14287823395E+03  0.00000000000E+00 0. -1.
         11    1    4    4    0    0 -0.32594971378E+01  0.42457475620E+02 -0.10571884683E+02  0.43875121690E+02  0.00000000000E+00 0.  1.
</event>
<event>
 8    1  0.6945825E-009  0.1017736E+03  0.7561462E-02  0.1276610E+00
          2   -1    0    0  501    0  0.00000000000E+00  0.00000000000E+00  0.81315254836E+02  0.81315254836E+02  0.00000000000E+00 0. -1.
         -2   -1    0    0    0  501 -0.00000000000E+00 -0.00000000000E+00 -0.26802248250E+03  0.26802248250E+03  0.00000000000E+00 0.  1.
         25    2    1    2    0    0  0.84225010075E+02  0.56389040206E+01 -0.36596280698E+02  0.15528068608E+03  0.12508858520E+03 0.  0.
         23    2    1    2    0    0 -0.84225010075E+02 -0.56389040206E+01 -0.15011094697E+03  0.19405705126E+03  0.89438208735E+02 0.  0.
          5    1    3    3  502    0  0.90902205158E+02 -0.58061976462E+01 -0.72685890195E+02  0.11660889274E+03  0.41800000000E+01 0. -1.
         -5    1    3    3    0  502 -0.66771950824E+01  0.11445101667E+02  0.36089609497E+02  0.38671793338E+02  0.41800000000E+01 0. -1.
        -11    1    4    4    0    0 -0.38538595251E+02 -0.27969068395E+02 -0.13158476687E+03  0.13993585310E+03  0.00000000000E+00 0.  1.
         11    1    4    4    0    0 -0.45686414824E+02  0.22330164375E+02 -0.18526180095E+02  0.54121198151E+02  0.00000000000E+00 0. -1.
</event>
<event>
 8    1  0.6945825E-009  0.1294700E+03  0.7561462E-02  0.1228244E+00
          1   -1    0    0  501    0  0.00000000000E+00  0.00000000000E+00  0.55420902202E+03  0.55420902202E+03  0.00000000000E+00 0. -1.
         -1   -1    0    0    0  501 -0.00000000000E+00 -0.00000000000E+00 -0.42674607831E+02  0.42674607831E+02  0.00000000000E+00 0.  1.
         25    2    1    2    0    0 -0.94005082770E+02  0.52796489786E+02  0.30994305116E+03  0.35119696062E+03  0.12510070051E+03 0.  0.
         23    2    1    2    0    0  0.94005082770E+02 -0.52796489786E+02  0.20159136303E+03  0.24568666923E+03  0.89991315517E+02 0.  0.
          5    1    3    3  502    0  0.49107306866E+01 -0.64568575136E-01  0.17741098373E+03  0.17752816394E+03  0.41800000000E+01 0. -1.
         -5    1    3    3    0  502 -0.98915813457E+02  0.52861058361E+02  0.13253206743E+03  0.17366879668E+03  0.41800000000E+01 0. -1.
        -11    1    4    4    0    0  0.10376291377E+02 -0.55622407012E+02  0.87468339831E+02  0.10417403735E+03  0.00000000000E+00 0.  1.
         11    1    4    4    0    0  0.83628791393E+02  0.28259172256E+01  0.11412302320E+03  0.14151263188E+03  0.00000000000E+00 0. -1.
</event>
<event>
 8    1  0.6945825E-009  0.1439992E+03  0.7561462E-02  0.1208047E+00
         -1   -1    0    0    0  501 -0.00000000000E+00  0.00000000000E+00  0.17910025672E+03  0.17910025672E+03  0.00000000000E+00 0.  1.
          1   -1    0    0  501    0  0.00000000000E+00 -0.00000000000E+00 -0.15254385133E+03  0.15254385133E+03  0.00000000000E+00 0. -1.
         25    2    1    2    0    0  0.86598641699E+02  0.90964726946E+02 -0.92144040844E+01  0.17749586860E+03  0.12508385921E+03 0.  0.
         23    2    1    2    0    0 -0.86598641699E+02 -0.90964726946E+02  0.35770809475E+02  0.15414823945E+03  0.81903739985E+02 0.  0.
          5    1    3    3  502    0  0.12097408197E+02  0.65862699423E+02 -0.54705558311E+02  0.86570277639E+02  0.41800000000E+01 0.  1.
         -5    1    3    3    0  502  0.74501233502E+02  0.25102027523E+02  0.45491154226E+02  0.90925590962E+02  0.41800000000E+01 0.  1.
        -11    1    4    4    0    0 -0.40440873317E+02 -0.30458296655E+00 -0.11388988319E+02  0.42015069444E+02  0.00000000000E+00 0. -1.
         11    1    4    4    0    0 -0.46157768381E+02 -0.90660143980E+02  0.47159797794E+02  0.11213317001E+03  0.00000000000E+00 0.  1.
</event>
<event>
 8    1  0.6945825E-009  0.1142200E+03  0.7561462E-02  0.1252949E+00
          3   -1    0    0  501    0  0.00000000000E+00  0.00000000000E+00  0.70412495836E+03  0.70412495836E+03  0.00000000000E+00 0. -1.
         -3   -1    0    0    0  501 -0.00000000000E+00 -0.00000000000E+00 -0.24300789818E+02  0.24300789818E+02  0.00000000000E+00 0.  1.
         25    2    1    2    0    0  0.30209704202E+02  0.64304288713E+02  0.33214612785E+03  0.36196144320E+03  0.12508944136E+03 0.  0.
         23    2    1    2    0    0 -0.30209704202E+02 -0.64304288713E+02  0.34767804069E+03  0.36646430498E+03  0.91478954256E+02 0.  0.
          5    1    3    3  502    0 -0.30649034367E+02 -0.18721541679E+01  0.19805824158E+03  0.20046797182E+03  0.41800000000E+01 0.  1.
         -5    1    3    3    0  502  0.60858738568E+02  0.66176442881E+02  0.13408788628E+03  0.16149347138E+03  0.41800000000E+01 0.  1.
        -11    1    4    4    0    0  0.23605013995E+02 -0.43995693595E+02  0.94988249281E+02  0.10731069491E+03  0.00000000000E+00 0.  1.
         11    1    4    4    0    0 -0.53814718196E+02 -0.20308595118E+02  0.25268979141E+03  0.25915361007E+03  0.00000000000E+00 0. -1.
</event>
<event>
 8    1  0.6945825E-009  0.1399458E+03  0.7561462E-02  0.1213402E+00
         -2   -1    0    0    0  501 -0.00000000000E+00  0.00000000000E+00  0.14038461375E+02  0.14038461375E+02  0.00000000000E+00 0.  1.
          2   -1    0    0  501    0  0.00000000000E+00 -0.00000000000E+00 -0.16164637719E+04  0.16164637719E+04  0.00000000000E+00 0. -1.
         25    2    1    2    0    0  0.47646768825E+02  0.80825273695E+02 -0.11023138838E+04  0.11133491636E+04  0.12509005672E+03 0.  0.
         23    2    1    2    0    0 -0.47646768825E+02 -0.80825273695E+02 -0.50011142674E+03  0.51715306966E+03  0.92373799617E+02 0.  0.
          5    1    3    3  502    0  0.29980953462E+02 -0.26796083581E+02 -0.46531522192E+03  0.46706810619E+03  0.41800000000E+01 0.  1.
         -5    1    3    3    0  502  0.17665815363E+02  0.10762135728E+03 -0.63699866187E+03  0.64628105743E+03  0.41800000000E+01 0.  1.
        -11    1    4    4    0    0 -0.65510963916E+02 -0.22411611270E+02 -0.30215100969E+03  0.30998257914E+03  0.00000000000E+00 0. -1.
         11    1    4    4    0    0  0.17864195091E+02 -0.58413662425E+02 -0.19796041705E+03  0.20717049052E+03  0.00000000000E+00 0.  1.
</event>
<event>
 8    1  0.6945825E-009  0.1100685E+03  0.7561462E-02  0.1260443E+00
         -2   -1    0    0    0  501 -0.00000000000E+00  0.00000000000E+00  0.25836285149E+02  0.25836285149E+02  0.00000000000E+00 0.  1.
          2   -1    0    0  501    0  0.00000000000E+00 -0.00000000000E+00 -0.55120195395E+03  0.55120195395E+03  0.00000000000E+00 0. -1.
         25    2    1    2    0    0  0.41158553579E+02  0.47636702400E+00 -0.37124791908E+03  0.39391096745E+03  0.12508628782E+03 0.  0.
         23    2    1    2    0    0 -0.41158553579E+02 -0.47636702400E+00 -0.15411774972E+03  0.18312727164E+03  0.89939220493E+02 0.  0.
          5    1    3    3  502    0 -0.39890502968E+02 -0.22694458150E+02 -0.10671952114E+03  0.11624465256E+03  0.41800000000E+01 0. -1.
         -5    1    3    3    0  502  0.81049056547E+02  0.23170825174E+02 -0.26452839794E+03  0.27766631489E+03  0.41800000000E+01 0. -1.
        -11    1    4    4    0    0  0.39444007833E+01  0.33156693202E+02 -0.98537222029E+02  0.10404089930E+03  0.00000000000E+00 0. -1.
         11    1    4    4    0    0 -0.45102954363E+02 -0.33633060226E+02 -0.55580527690E+02  0.79086372345E+02  0.00000000000E+00 0.  1.
</event>
<event>
 8    1  0.6945825E-009  0.1681587E+03  0.7561462E-02  0.1179782E+00
         -2   -1    0    0    0  501 -0.00000000000E+00  0.00000000000E+00  0.57611160697E+03  0.57611160697E+03  0.00000000000E+00 0.  1.
          2   -1    0    0  501    0  0.00000000000E+00 -0.00000000000E+00 -0.76657699995E+02  0.76657699995E+02  0.00000000000E+00 0. -1.
         25    2    1    2    0    0 -0.43996005759E+02 -0.14086440675E+03  0.41439018061E+03  0.45732502019E+03  0.12509405539E+03 0.  0.
         23    2    1    2    0    0  0.43996005759E+02  0.14086440675E+03  0.85063726365E+02  0.19544428677E+03  0.95834242708E+02 0.  0.
          5    1    3    3  502    0 -0.11179782604E+02 -0.12176840386E+03  0.16711462983E+03  0.20711664255E+03  0.41800000000E+01 0.  1.
         -5    1    3    3    0  502 -0.32816223155E+02 -0.19096002892E+02  0.24727555078E+03  0.25020837764E+03  0.41800000000E+01 0.  1.
        -11    1    4    4    0    0 -0.24784455648E+02  0.80588467848E+02  0.36224992291E+02  0.91766118248E+02  0.00000000000E+00 0.  1.
         11    1    4    4    0    0  0.68780461407E+02  0.60275938907E+02  0.48838734074E+02  0.10367816852E+03  0.00000000000E+00 0. -1.
</event>
<event>
 8    1  0.6945825E-009  0.1823219E+03  0.7561462E-02  0.1165575E+00
          2   -1    0    0  501    0  0.00000000000E+00  0.00000000000E+00  0.13509366570E+03  0.13509366570E+03  0.00000000000E+00 0. -1.
         -2   -1    0    0    0  501 -0.00000000000E+00 -0.00000000000E+00 -0.42761678214E+03  0.42761678214E+03  0.00000000000E+00 0.  1.
         25    2    1    2    0    0 -0.17616227395E+03  0.34799133195E+01 -0.87194377880E+01  0.21625984123E+03  0.12508810405E+03 0.  0.
         23    2    1    2    0    0  0.17616227395E+03 -0.34799133195E+01 -0.28380367866E+03  0.34645060661E+03  0.91859883746E+02 0.  0.
          5    1    3    3  502    0 -0.14307306589E+03  0.24014467178E+02  0.43011921363E+02  0.15137402219E+03  0.41800000000E+01 0.  1.
         -5    1    3    3    0  502 -0.33089208062E+02 -0.20534553859E+02 -0.51731359151E+02  0.64885819036E+02  0.41800000000E+01 0.  1.
        -11    1    4    4    0    0  0.57894144554E+02 -0.19287439710E+02 -0.17364615428E+03  0.18405630715E+03  0.00000000000E+00 0.  1.
         11    1    4    4    0    0  0.11826812939E+03  0.15807526390E+02 -0.11015752437E+03  0.16239429946E+03  0.00000000000E+00 0. -1.
</event>
<event>
 8    1  0.6945825E-009  0.1742649E+03  0.7561462E-02  0.1173472E+00
          2   -1    0    0  501    0  0.00000000000E+00  0.00000000000E+00  0.95718198269E+03  0.95718198269E+03  0.00000000000E+00 0. -1.
         -2   -1    0    0    0  501 -0.00000000000E+00 -0.00000000000E+00 -0.32992249659E+02  0.32992249659E+02  0.00000000000E+00 0.  1.
         25    2    1    2    0    0 -0.45409794153E+02 -0.13020334312E+03  0.41871003209E+03  0.45823706547E+03  0.12509259465E+03 0.  0.
         23    2    1    2    0    0  0.45409794153E+02  0.13020334312E+03  0.50547970094E+03  0.53193716688E+03  0.91828435011E+02 0.  0.
          5    1    3    3  502    0 -0.70014021690E+01 -0.14256776857E+03  0.35574525564E+03  0.38333633740E+03  0.41800000000E+01 0. -1.
         -5    1    3    3    0  502 -0.38408391984E+02  0.12364425446E+02  0.62964776456E+02  0.74900728071E+02  0.41800000000E+01 0. -1.
        -11    1    4    4    0    0  0.73421811314E+02  0.89701532654E+02  0.37321188626E+03  0.39079948744E+03  0.00000000000E+00 0. -1.
         11    1    4    4    0    0 -0.28012017161E+02  0.40501810464E+02  0.13226781468E+03  0.14113767944E+03  0.00000000000E+00 0.  1.
</event>
<event>
 8    1  0.6945825E-009  0.1486716E+03  0.7561462E-02  0.1202115E+00
          2   -1    0    0  501    0  0.00000000000E+00  0.00000000000E+00  0.59347220887E+02  0.59347220887E+02  0.00000000000E+00 0.  1.
         -2   -1    0    0    0  501 -0.00000000000E+00 -0.00000000000E+00 -0.52147638394E+03  0.52147638394E+03  0.00000000000E+00 0. -1.
         25    2    1    2    0    0  0.69247438082E+02 -0.11108163820E+03 -0.31855591615E+03  0.36641328605E+03  0.12508591631E+03 0.  0.
         23    2    1    2    0    0 -0.69247438082E+02  0.11108163820E+03 -0.14357324691E+03  0.21441031877E+03  0.90687207157E+02 0.  0.
          5    1    3    3  502    0  0.81786186588E+02 -0.34736292323E+02 -0.96582741637E+02  0.13130608784E+03  0.41800000000E+01 0.  1.
         -5    1    3    3    0  502 -0.12538748506E+02 -0.76345345881E+02 -0.22197317451E+03  0.23510719822E+03  0.41800000000E+01 0.  1.
        -11    1    4    4    0    0 -0.15295293431E+02  0.23371922701E+02  0.98633693180E+01  0.29622269092E+02  0.00000000000E+00 0.  1.
         11    1    4    4    0    0 -0.53952144651E+02  0.87709715503E+02 -0.15343661623E+03  0.18478804968E+03  0.00000000000E+00 0. -1.
</event>
<event>
 8    1  0.6945825E-009  0.7154885E+02  0.7561462E-02  0.1354904E+00
          2   -1    0    0  501    0  0.00000000000E+00  0.00000000000E+00  0.27136324688E+03  0.27136324688E+03  0.00000000000E+00 0. -1.
         -2   -1    0    0    0  501 -0.00000000000E+00 -0.00000000000E+00 -0.51181508626E+02  0.51181508626E+02  0.00000000000E+00 0.  1.
         25    2    1    2    0    0  0.42139947065E+02  0.85111708386E+01  0.93170415375E+02  0.16179629341E+03  0.12509635922E+03 0.  0.
         23    2    1    2    0    0 -0.42139947065E+02 -0.85111708386E+01  0.12701132288E+03  0.16074846210E+03  0.88656509969E+02 0.  0.
          5    1    3    3  502    0 -0.17644310968E+02 -0.87031069197E+01 -0.22629551602E+02  0.30275977033E+02  0.41800000000E+01 0.  1.
         -5    1    3    3    0  502  0.59784258033E+02  0.17214277758E+02  0.11579996698E+03  0.13152031637E+03  0.41800000000E+01 0.  1.
        -11    1    4    4    0    0 -0.34637471299E+02 -0.24865091868E+02  0.13462150777E+03  0.14121252624E+03  0.00000000000E+00 0. -1.
         11    1    4    4    0    0 -0.75024757662E+01  0.16353921030E+02 -0.76101848969E+01  0.19535935858E+02  0.00000000000E+00 0.  1.
</event>
<event>
 8    1  0.6945825E-009  0.1044068E+03  0.7561462E-02  0.1271293E+00
          2   -1    0    0  501    0  0.00000000000E+00  0.00000000000E+00  0.51677573429E+03  0.51677573429E+03  0.00000000000E+00 0. -1.
         -2   -1    0    0    0  501 -0.00000000000E+00 -0.00000000000E+00 -0.57454340218E+02  0.57454340218E+02  0.00000000000E+00 0.  1.
         25    2    1    2    0    0 -0.74445438276E+02 -0.15606549198E+02  0.42801123957E+03  0.45235698491E+03  0.12509009930E+03 0.  0.
         23    2    1    2    0    0  0.74445438276E+02  0.15606549198E+02  0.31310154507E+02  0.12187308960E+03  0.89927951915E+02 0.  0.
          5    1    3    3  502    0  0.13789283111E+02 -0.37778180351E+02  0.24077131606E+03  0.24414265149E+03  0.41800000000E+01 0. -1.
         -5    1    3    3    0  502 -0.88234721386E+02  0.22171631154E+02  0.18723992351E+03  0.20821433342E+03  0.41800000000E+01 0. -1.
        -11    1    4    4    0    0  0.46335758378E+02  0.16492749955E+02  0.62725184526E+02  0.79708607310E+02  0.00000000000E+00 0. -1.
         11    1    4    4    0    0  0.28109679898E+02 -0.88620075754E+00 -0.31415030019E+02  0.42164482291E+02  0.00000000000E+00 0.  1.
</event>
<event>
 8    1  0.6945825E-009  0.7892363E+02  0.7561462E-02  0.1332134E+00
          1   -1    0    0  501    0  0.00000000000E+00  0.00000000000E+00  0.13716163129E+03  0.13716163129E+03  0.00000000000E+00 0. -1.
         -1   -1    0    0    0  501 -0.00000000000E+00 -0.00000000000E+00 -0.16953643652E+03  0.16953643652E+03  0.00000000000E+00 0.  1.
         25    2    1    2    0    0 -0.29226278503E+02 -0.67538843786E+02 -0.94721195356E+02  0.17330686648E+03  0.12508994502E+03 0.  0.
         23    2    1    2    0    0  0.29226278503E+02  0.67538843786E+02  0.62346390133E+02  0.13339120133E+03  0.92143743440E+02 0.  0.
          5    1    3    3  502    0  0.35072711752E+01 -0.19763236812E+02 -0.11110056812E+03  0.11297652463E+03  0.41800000000E+01 0.  1.
         -5    1    3    3    0  502 -0.32733549678E+02 -0.47775606974E+02  0.16379372762E+02  0.60330341855E+02  0.41800000000E+01 0.  1.
        -11    1    4    4    0    0  0.31991390874E+02  0.38266402226E+02  0.83435559048E+02  0.97207299844E+02  0.00000000000E+00 0.  1.
         11    1    4    4    0    0 -0.27651123713E+01  0.29272441560E+02 -0.21089168915E+02  0.36183901488E+02  0.00000000000E+00 0. -1.
</event>
<event>
 8    1  0.6945825E-009  0.1256359E+03  0.7561462E-02  0.1234079E+00
         -1   -1    0    0    0  501 -0.00000000000E+00  0.00000000000E+00  0.32561463069E+02  0.32561463069E+02  0.00000000000E+00 0.  1.
          1   -1    0    0  501    0  0.00000000000E+00 -0.00000000000E+00 -0.84668802644E+03  0.84668802644E+03  0.00000000000E+00 0. -1.
         25    2    1    2    0    0 -0.13560325678E+02 -0.92293549412E+02 -0.65657973365E+03  0.67486683077E+03  0.12508521474E+03 0.  0.
         23    2    1    2    0    0  0.13560325678E+02  0.92293549412E+02 -0.15754682973E+03  0.20438265874E+03  0.90825579771E+02 0.  0.
          5    1    3    3  502    0  0.49874108970E+02 -0.33616323667E+02 -0.38913045495E+03  0.39377337053E+03  0.41800000000E+01 0.  1.
         -5    1    3    3    0  502 -0.63434434649E+02 -0.58677225745E+02 -0.26744927869E+03  0.28109346025E+03  0.41800000000E+01 0.  1.
        -11    1    4    4    0    0  0.29178952746E+02  0.37629102882E+02 -0.13512423975E+03  0.14326870152E+03  0.00000000000E+00 0. -1.
         11    1    4    4    0    0 -0.15618627068E+02  0.54664446530E+02 -0.22422589978E+02  0.61113957221E+02  0.00000000000E+00 0.  1.
</event>
<event>
 8    1  0.6945825E-009  0.2958339E+03  0.7561462E-02  0.1087342E+00
         -1   -1    0    0    0  501 -0.00000000000E+00  0.00000000000E+00  0.14722886100E+03  0.14722886100E+03  0.00000000000E+00 0.  1.
          1   -1    0    0  501    0  0.00000000000E+00 -0.00000000000E+00 -0.61072524037E+03  0.61072524037E+03  0.00000000000E+00 0. -1.
         25    2    1    2    0    0 -0.23605221249E+03  0.14520230010E+03 -0.28192600161E+03  0.41465242807E+03  0.12510000299E+03 0.  0.
         23    2    1    2    0    0  0.23605221249E+03 -0.14520230010E+03 -0.18157037776E+03  0.34330167330E+03  0.89910410071E+02 0.  0.
          5    1    3    3  502    0 -0.20775093021E+03  0.68121970921E+02 -0.23025028248E+03  0.31754325203E+03  0.41800000000E+01 0. -1.
         -5    1    3    3    0  502 -0.28301282276E+02  0.77080329175E+02 -0.51675719124E+02  0.97109176040E+02  0.41800000000E+01 0. -1.
        -11    1    4    4    0    0  0.25376205131E+01 -0.30509424808E+02 -0.26072222407E+02  0.40212253123E+02  0.00000000000E+00 0. -1.
         11    1    4    4    0    0  0.23351459197E+03 -0.11469287529E+03 -0.15549815535E+03  0.30308942018E+03  0.00000000000E+00 0.  1.
</event>
<event>
 8    1  0.6945825E-009  0.1363955E+03  0.7561462E-02  0.1218263E+00
          2   -1    0    0  501    0  0.00000000000E+00  0.00000000000E+00  0.14976497888E+03  0.14976497888E+03  0.00000000000E+00 0.  1.
         -2   -1    0    0    0  501 -0.00000000000E+00 -0.00000000000E+00 -0.13861294438E+03  0.13861294438E+03  0.00000000000E+00 0. -1.
         25    2    1    2    0    0 -0.88298947104E+01 -0.89099202995E+02  0.36086112145E+02  0.15801122432E+03  0.12509478209E+03 0.  0.
         23    2    1    2    0    0  0.88298947104E+01  0.89099202995E+02 -0.24934077647E+02  0.13036669894E+03  0.91417355839E+02 0.  0.
          5    1    3    3  502    0  0.88758407624E+01 -0.11747002627E+03  0.39049354933E+02  0.12417854944E+03  0.41800000000E+01 0. -1.
         -5    1    3    3    0  502 -0.17705735473E+02  0.28370823272E+02 -0.29632427877E+01  0.33832674881E+02  0.41800000000E+01 0. -1.
        -11    1    4    4    0    0  0.45233554883E+02  0.56199483159E+02  0.59530336546E+01  0.72387119050E+02  0.00000000000E+00 0. -1.
         11    1    4    4    0    0 -0.36403660172E+02  0.32899719836E+02 -0.30887111302E+02  0.57979579887E+02  0.00000000000E+00 0.  1.
</event>
<event>
 8    1  0.6945825E-009  0.1187342E+03  0.7561462E-02  0.1245200E+00
         -1   -1    0    0    0  501 -0.00000000000E+00  0.00000000000E+00  0.46495963011E+02  0.46495963011E+02  0.00000000000E+00 0.  1.
          1   -1    0    0  501    0  0.00000000000E+00 -0.00000000000E+00 -0.32061727916E+03  0.32061727916E+03  0.00000000000E+00 0. -1.
         25    2    1    2    0    0 -0.22817803596E+01  0.53883412698E+02 -0.16679521064E+03  0.21535295163E+03  0.12509045847E+03 0.  0.
         23    2    1    2    0    0  0.22817803596E+01 -0.53883412698E+02 -0.10732610551E+03  0.15176029054E+03  0.92755938754E+02 0.  0.
          5    1    3    3  502    0  0.10101127815E+02 -0.39843325388E+02 -0.57078684978E+02  0.70462557716E+02  0.41800000000E+01 0.  1.
         -5    1    3    3    0  502 -0.12382908174E+02  0.93726738086E+02 -0.10971652566E+03  0.14489039392E+03  0.41800000000E+01 0.  1.
        -11    1    4    4    0    0  0.10126158865E+02  0.22531535802E+02 -0.75319328033E+01  0.25825166228E+02  0.00000000000E+00 0.  1.
         11    1    4    4    0    0 -0.78443785057E+01 -0.76414948500E+02 -0.99794172710E+02  0.12593512431E+03  0.00000000000E+00 0. -1.
</event>
<event>
 8    1  0.6945825E-009  0.4808633E+03  0.7561462E-02  0.1018898E+00
         -1   -1    0    0    0  501 -0.00000000000E+00  0.00000000000E+00  0.21744710012E+03  0.21744710012E+03  0.00000000000E+00 0.  1.
          1   -1    0    0  501    0  0.00000000000E+00 -0.00000000000E+00 -0.13281301175E+04  0.13281301175E+04  0.00000000000E+00 0. -1.
         25    2    1    2    0    0  0.45771726356E+03  0.13466003434E+03 -0.87768193113E+03  0.10067831061E+04  0.12509289448E+03 0.  0.
         23    2    1    2    0    0 -0.45771726356E+03 -0.13466003434E+03 -0.23300108626E+03  0.53879411155E+03  0.91494099460E+02 0.  0.
          5    1    3    3  502    0  0.98709554084E+01  0.34656070298E+01 -0.93968316025E+02  0.94641233135E+02  0.41800000000E+01 0.  1.
         -5    1    3    3    0  502  0.44784630815E+03  0.13119442731E+03 -0.78371361510E+03  0.91214187294E+03  0.41800000000E+01 0.  1.
        -11    1    4    4    0    0 -0.41779059011E+03 -0.14550195424E+03 -0.22616521575E+03  0.49686064514E+03  0.00000000000E+00 0. -1.
         11    1    4    4    0    0 -0.39926673445E+02  0.10841919901E+02 -0.68358705114E+01  0.41933466410E+02  0.00000000000E+00 0.  1.
</event>
<event>
 8    1  0.6945825E-009  0.9340158E+02  0.7561462E-02  0.1294817E+00
         -3   -1    0    0    0  501 -0.00000000000E+00  0.00000000000E+00  0.19294736649E+04  0.19294736649E+04  0.00000000000E+00 0.  1.
          3   -1    0    0  501    0  0.00000000000E+00 -0.00000000000E+00 -0.89742666591E+01  0.89742666591E+01  0.00000000000E+00 0. -1.
         25    2    1    2    0    0  0.52324149011E+01  0.40263063835E+02  0.15205420366E+04  0.15262198436E+04  0.12510169290E+03 0.  0.
         23    2    1    2    0    0 -0.52324149011E+01 -0.40263063835E+02  0.39995736163E+03  0.41222808791E+03  0.91200947726E+02 0.  0.
          5    1    3    3  502    0 -0.45314811962E+01  0.66292501719E+02  0.41388584003E+03  0.41920662100E+03  0.41800000000E+01 0.  1.
         -5    1    3    3    0  502  0.97638960973E+01 -0.26029437884E+02  0.11066561965E+04  0.11070132226E+04  0.41800000000E+01 0.  1.
        -11    1    4    4    0    0  0.27018284938E+02 -0.51336983446E+02  0.32133462920E+03  0.32652935169E+03  0.00000000000E+00 0.  1.
         11    1    4    4    0    0 -0.32250699839E+02  0.11073919610E+02  0.78622732428E+02  0.85698736223E+02  0.00000000000E+00 0. -1.
</event>
<event>
 8    1  0.6945825E-009  0.1573242E+03  0.7561462E-02  0.1191751E+00
         -1   -1    0    0    0  501 -0.00000000000E+00  0.00000000000E+00  0.61346858813E+02  0.61346858813E+02  0.00000000000E+00 0.  1.
          1   -1    0    0  501    0  0.00000000000E+00 -0.00000000000E+00 -0.57320284746E+03  0.57320284746E+03  0.00000000000E+00 0. -1.
         25    2    1    2    0    0 -0.12900969036E+03 -0.62168834892E+02 -0.18249766577E+03  0.26355566442E+03  0.12509087096E+03 0.  0.
         23    2    1    2    0    0  0.12900969036E+03  0.62168834892E+02 -0.32935832287E+03  0.37099404185E+03  0.93011880968E+02 0.  0.
          5    1    3    3  502    0  0.10503387675E+02 -0.14356846116E+02  0.10149740064E+02  0.20902865985E+02  0.41800000000E+01 0.  1.
         -5    1    3    3    0  502 -0.13951307804E+03 -0.47811988776E+02 -0.19264740583E+03  0.24265279844E+03  0.41800000000E+01 0.  1.
        -11    1    4    4    0    0  0.36465056530E+02  0.39091592822E+02 -0.41294183723E+02  0.67550444754E+02  0.00000000000E+00 0.  1.
         11    1    4    4    0    0  0.92544633833E+02  0.23077242070E+02 -0.28806413915E+03  0.30344359709E+03  0.00000000000E+00 0. -1.
</event>
<event>
 8    1  0.6945825E-009  0.1153749E+03  0.7561462E-02  0.1250928E+00
         -3   -1    0    0    0  501 -0.00000000000E+00  0.00000000000E+00  0.32928414691E+03  0.32928414691E+03  0.00000000000E+00 0.  1.
          3   -1    0    0  501    0  0.00000000000E+00 -0.00000000000E+00 -0.47136733102E+02  0.47136733102E+02  0.00000000000E+00 0. -1.
         25    2    1    2    0    0  0.54197312131E+02 -0.28313785974E+01  0.20052251670E+03  0.24249175194E+03  0.12509038615E+03 0.  0.
         23    2    1    2    0    0 -0.54197312131E+02  0.28313785974E+01  0.81624897110E+02  0.13392912807E+03  0.91263476655E+02 0.  0.
          5    1    3    3  502    0  0.26794758044E+02 -0.60944364552E+02  0.68540108344E+02  0.95642006885E+02  0.41800000000E+01 0. -1.
         -5    1    3    3    0  502  0.27402554087E+02  0.58112985955E+02  0.13198240835E+03  0.14684974505E+03  0.41800000000E+01 0. -1.
        -11    1    4    4    0    0 -0.52106740052E+02 -0.34355319127E+02  0.27442225266E+02  0.68179733343E+02  0.00000000000E+00 0.  1.
         11    1    4    4    0    0 -0.20905720791E+01  0.37186697724E+02  0.54182671844E+02  0.65749394730E+02  0.00000000000E+00 0. -1.
</event>
<event>
 8    1  0.6945825E-009  0.7228939E+02  0.7561462E-02  0.1352476E+00
          2   -1    0    0  501    0  0.00000000000E+00  0.00000000000E+00  0.16580676491E+03  0.16580676491E+03  0.00000000000E+00 0. -1.
         -2   -1    0    0    0  501 -0.00000000000E+00 -0.00000000000E+00 -0.71310944151E+02  0.71310944151E+02  0.00000000000E+00 0.  1.
         25    2    1    2    0    0  0.10715689324E+01 -0.95224655463E+01  0.61477417337E+02  0.13970921531E+03  0.12508943357E+03 0.  0.
         23    2    1    2    0    0 -0.10715689324E+01  0.95224655463E+01  0.33018403420E+02  0.97408493748E+02  0.91139311385E+02 0.  0.
          5    1    3    3  502    0  0.41877231682E+02  0.41779657490E+01  0.81677542883E+02  0.91977450185E+02  0.41800000000E+01 0. -1.
         -5    1    3    3    0  502 -0.40805662749E+02 -0.13700431295E+02 -0.20200125545E+02  0.47731765127E+02  0.41800000000E+01 0. -1.
        -11    1    4    4    0    0  0.11737740812E+02  0.31492274178E+02 -0.19642997592E+02  0.38927949428E+02  0.00000000000E+00 0.  1.
         11    1    4    4    0    0 -0.12809309744E+02 -0.21969808631E+02  0.52661401012E+02  0.58480544320E+02  0.00000000000E+00 0. -1.
</event>
<event>
 8    1  0.6945825E-009  0.1181811E+03  0.7561462E-02  0.1246128E+00
          3   -1    0    0  501    0  0.00000000000E+00  0.00000000000E+00  0.41764022576E+03  0.41764022576E+03  0.00000000000E+00 0. -1.
         -3   -1    0    0    0  501 -0.00000000000E+00 -0.00000000000E+00 -0.58011288322E+02  0.58011288322E+02  0.00000000000E+00 0.  1.
         25    2    1    2    0    0 -0.58216624035E+02 -0.77874744462E+02  0.27591223663E+03  0.31816469717E+03  0.12509021170E+03 0.  0.
         23    2    1    2    0    0  0.58216624035E+02  0.77874744462E+02  0.83716700803E+02  0.15748681691E+03  0.91323383469E+02 0.  0.
          5    1    3    3  502    0  0.16900557807E+02 -0.34134185365E+02  0.19699195120E+03  0.20068401207E+03  0.41800000000E+01 0.  1.
         -5    1    3    3    0  502 -0.75117181842E+02 -0.43740559097E+02  0.78920285437E+02  0.11748068510E+03  0.41800000000E+01 0.  1.
        -11    1    4    4    0    0  0.40374581215E+02  0.83133347468E+02  0.97496028109E+02  0.13433813966E+03  0.00000000000E+00 0. -1.
         11    1    4    4    0    0  0.17842042819E+02 -0.52586030063E+01 -0.13779327306E+02  0.23148677253E+02  0.00000000000E+00 0.  1.
</event>
<event>
 8    1  0.6945825E-009  0.8871617E+02  0.7561462E-02  0.1305991E+00
         -2   -1    0    0    0  501 -0.00000000000E+00  0.00000000000E+00  0.16772433099E+02  0.16772433099E+02  0.00000000000E+00 0.  1.
          2   -1    0    0  501    0  0.00000000000E+00 -0.00000000000E+00 -0.10190634047E+04  0.10190634047E+04  0.00000000000E+00 0. -1.
         25    2    1    2    0    0 -0.31612629266E+02  0.29086811530E+02 -0.78645563909E+03  0.79750021215E+03  0.12509482479E+03 0.  0.
         23    2    1    2    0    0  0.31612629266E+02 -0.29086811530E+02 -0.21583533256E+03  0.23833562570E+03  0.91507260702E+02 0.  0.
          5    1    3    3  502    0  0.37585918876E+02 -0.10111002653E+02 -0.11814985362E+03  0.12446603546E+03  0.41800000000E+01 0.  1.
         -5    1    3    3    0  502 -0.69198548142E+02  0.39197814182E+02 -0.66830578547E+03  0.67303417669E+03  0.41800000000E+01 0.  1.
        -11    1    4    4    0    0 -0.28850755622E+01 -0.23528472607E+02 -0.44962750573E+01  0.24127353224E+02  0.00000000000E+00 0.  1.
         11    1    4    4    0    0  0.34497704828E+02 -0.55583389230E+01 -0.21133905750E+03  0.21420827247E+03  0.00000000000E+00 0. -1.
</event>
<event>
 8    1  0.6945825E-009  0.1717806E+03  0.7561462E-02  0.1176004E+00
         -1   -1    0    0    0  501 -0.00000000000E+00  0.00000000000E+00  0.17729910956E+04  0.17729910956E+04  0.00000000000E+00 0.  1.
          1   -1    0    0  501    0  0.00000000000E+00 -0.00000000000E+00 -0.19855535476E+02  0.19855535476E+02  0.00000000000E+00 0. -1.
         25    2    1    2    0    0  0.88519815836E+02 -0.12449219529E+03  0.97952700039E+03  0.99922700881E+03  0.12508959254E+03 0.  0.
         23    2    1    2    0    0 -0.88519815836E+02  0.12449219529E+03  0.77360855975E+03  0.79361962227E+03  0.89598195645E+02 0.  0.
          5    1    3    3  502    0  0.22571343502E+02 -0.11217722140E+03  0.40805891325E+03  0.42381923462E+03  0.41800000000E+01 0.  1.
         -5    1    3    3    0  502  0.65948472334E+02 -0.12314973892E+02  0.57146808714E+03  0.57540777419E+03  0.41800000000E+01 0.  1.
        -11    1    4    4    0    0 -0.95334910167E+02  0.10836050599E+03  0.75238875653E+03  0.76610677148E+03  0.00000000000E+00 0.  1.
         11    1    4    4    0    0  0.68150943305E+01  0.16131689297E+02  0.21219803219E+02  0.27512850797E+02  0.00000000000E+00 0. -1.
</event>
<event>
 8    1  0.6945825E-009  0.5478492E+02  0.7561462E-02  0.1421119E+00
          1   -1    0    0  501    0  0.00000000000E+00  0.00000000000E+00  0.81714977431E+02  0.81714977431E+02  0.00000000000E+00 0. -1.
         -1   -1    0    0    0  501 -0.00000000000E+00 -0.00000000000E+00 -0.19789283747E+03  0.19789283747E+03  0.00000000000E+00 0.  1.
         25    2    1    2    0    0 -0.38119345565E+02 -0.18486807487E+02 -0.12333017921E+03  0.18069900085E+03  0.12508776618E+03 0.  0.
         23    2    1    2    0    0  0.38119345565E+02  0.18486807487E+02  0.71523191661E+01  0.98908814053E+02  0.89089568809E+02 0.  0.
          5    1    3    3  502    0 -0.73573607062E+01 -0.25820778498E+02 -0.14143407379E+03  0.14402052975E+03  0.41800000000E+01 0. -1.
         -5    1    3    3    0  502 -0.30761984859E+02  0.73339710118E+01  0.18103894587E+02  0.36678471103E+02  0.41800000000E+01 0. -1.
        -11    1    4    4    0    0  0.19127016389E+02  0.24030959076E+02 -0.38443161178E+02  0.49205755674E+02  0.00000000000E+00 0.  1.
         11    1    4    4    0    0  0.18992329177E+02 -0.55441515897E+01  0.45595480345E+02  0.49703058379E+02  0.00000000000E+00 0. -1.
</event>
<event>
 8    1  0.6945825E-009  0.1045575E+03  0.7561462E-02  0.1270994E+00
          2   -1    0    0  501    0  0.00000000000E+00  0.00000000000E+00  0.16909189036E+03  0.16909189036E+03  0.00000000000E+00 0. -1.
         -2   -1    0    0    0  501 -0.00000000000E+00 -0.00000000000E+00 -0.84991133315E+02  0.84991133315E+02  0.00000000000E+00 0.  1.
         25    2    1    2    0    0  0.32144174690E+02 -0.30396136722E+02  0.66703153062E+02  0.14850679282E+03  0.12509110196E+03 0.  0.
         23    2    1    2    0    0 -0.32144174690E+02  0.30396136722E+02  0.17397603978E+02  0.10557623085E+03  0.94268185527E+02 0.  0.
          5    1    3    3  502    0  0.62898939103E+02 -0.37217767128E+02 -0.15471104624E+01  0.73220930622E+02  0.41800000000E+01 0.  1.
         -5    1    3    3    0  502 -0.30754764413E+02  0.68216304067E+01  0.68250263525E+02  0.75285862197E+02  0.41800000000E+01 0.  1.
        -11    1    4    4    0    0  0.32259949548E+02  0.22308724167E+02  0.63570126340E+01  0.39734055022E+02  0.00000000000E+00 0. -1.
         11    1    4    4    0    0 -0.64404124239E+02  0.80874125543E+01  0.11040591344E+02  0.65842175830E+02  0.00000000000E+00 0.  1.
</event>
<event>
 8    1  0.6945825E-009  0.1143201E+03  0.7561462E-02  0.1252773E+00
         -2   -1    0    0    0  501 -0.00000000000E+00  0.00000000000E+00  0.17764239906E+03  0.17764239906E+03  0.00000000000E+00 0.  1.
          2   -1    0    0  501    0  0.00000000000E+00 -0.00000000000E+00 -0.12854308891E+03  0.12854308891E+03  0.00000000000E+00 0. -1.
         25    2    1    2    0    0 -0.67197196837E+02  0.35765915878E+02 -0.46598115940E+02  0.15366630924E+03  0.12508911298E+03 0.  0.
         23    2    1    2    0    0  0.67197196837E+02 -0.35765915878E+02  0.95697426095E+02  0.15251917873E+03  0.91156121663E+02 0.  0.
          5    1    3    3  502    0 -0.15606889256E+02  0.76192847852E+02 -0.10126116178E+02  0.78542572436E+02  0.41800000000E+01 0. -1.
         -5    1    3    3    0  502 -0.51590307581E+02 -0.40426931974E+02 -0.36471999762E+02  0.75123736806E+02  0.41800000000E+01 0. -1.
        -11    1    4    4    0    0  0.48310650067E+02 -0.43172105842E+02  0.11002422195E+03  0.12768351126E+03  0.00000000000E+00 0.  1.
         11    1    4    4    0    0  0.18886546770E+02  0.74061899644E+01 -0.14326795857E+02  0.24835667461E+02  0.00000000000E+00 0. -1.
</event>
<event>
 8    1  0.6945825E-009  0.1060478E+03  0.7561462E-02  0.1268069E+00
         -2   -1    0    0    0  501 -0.00000000000E+00  0.00000000000E+00  0.26665459771E+02  0.26665459771E+02  0.00000000000E+00 0.  1.
          2   -1    0    0  501    0  0.00000000000E+00 -0.00000000000E+00 -0.50290137120E+03  0.50290137120E+03  0.00000000000E+00 0. -1.
         25    2    1    2    0    0  0.16264216891E+02 -0.35410962955E+02 -0.24918654740E+03  0.28153158035E+03  0.12509050435E+03 0.  0.
         23    2    1    2    0    0 -0.16264216891E+02  0.35410962955E+02 -0.22704936402E+03  0.24803525062E+03  0.91932642720E+02 0.  0.
          5    1    3    3  502    0  0.62354595231E+02 -0.27195363248E+02 -0.76018441930E+02  0.10209779254E+03  0.41800000000E+01 0. -1.
         -5    1    3    3    0  502 -0.46090378340E+02 -0.82155997071E+01 -0.17316810547E+03  0.17943378781E+03  0.41800000000E+01 0. -1.
        -11    1    4    4    0    0 -0.36237996470E+02  0.56988354109E+02 -0.12812908560E+03  0.14483758997E+03  0.00000000000E+00 0.  1.
         11    1    4    4    0    0  0.19973779578E+02 -0.21577391154E+02 -0.98920278422E+02  0.10319766065E+03  0.00000000000E+00 0. -1.
</event>
<event>
 8    1  0.6945825E-009  0.1298578E+03  0.7561462E-02  0.1227667E+00
          1   -1    0    0  501    0  0.00000000000E+00  0.00000000000E+00  0.94245898168E+03  0.94245898168E+03  0.00000000000E+00 0. -1.
         -1   -1    0    0    0  501 -0.00000000000E+00 -0.00000000000E+00 -0.23421860132E+02  0.23421860132E+02  0.00000000000E+00 0.  1.
         25    2    1    2    0    0  0.94669858329E+02  0.30155091552E+02  0.59332499435E+03  0.61445401888E+03  0.12508989082E+03 0.  0.
         23    2    1    2    0    0 -0.94669858329E+02 -0.30155091552E+02  0.32571212720E+03  0.35142682293E+03  0.86837264143E+02 0.  0.
          5    1    3    3  502    0  0.59457996829E+01  0.37934581145E+02  0.46692081915E+02  0.60597094766E+02  0.41800000000E+01 0.  1.
         -5    1    3    3    0  502  0.88724058646E+02 -0.77794895925E+01  0.54663291243E+03  0.55385692412E+03  0.41800000000E+01 0.  1.
        -11    1    4    4    0    0 -0.93416066263E+02 -0.54099993181E+02  0.26924601095E+03  0.29008065277E+03  0.00000000000E+00 0.  1.
         11    1    4    4    0    0 -0.12537920656E+01  0.23944901629E+02  0.56466116257E+02  0.61346170163E+02  0.00000000000E+00 0. -1.
</event>
<event>
 8    1  0.6945825E-009  0.8000437E+02  0.7561462E-02  0.1329039E+00
         -2   -1    0    0    0  501 -0.00000000000E+00  0.00000000000E+00  0.37461742541E+03  0.37461742541E+03  0.00000000000E+00 0.  1.
          2   -1    0    0  501    0  0.00000000000E+00 -0.00000000000E+00 -0.34174723461E+02  0.34174723461E+02  0.00000000000E+00 0. -1.
         25    2    1    2    0    0  0.12356877333E+02  0.73778236614E+01  0.24933905021E+03  0.27932776440E+03  0.12508762253E+03 0.  0.
         23    2    1    2    0    0 -0.12356877333E+02 -0.73778236614E+01  0.91103651739E+02  0.12946438446E+03  0.90851674641E+02 0.  0.
          5    1    3    3  502    0  0.27517679807E+02  0.57477298813E+02  0.81944182243E+02  0.10389024971E+03  0.41800000000E+01 0.  1.
         -5    1    3    3    0  502 -0.15160802475E+02 -0.50099475152E+02  0.16739486796E+03  0.17543751470E+03  0.41800000000E+01 0.  1.
        -11    1    4    4    0    0 -0.85901027228E+01  0.16959016816E+02  0.10111062721E+03  0.10288224848E+03  0.00000000000E+00 0.  1.
         11    1    4    4    0    0 -0.37667746098E+01 -0.24336840477E+02 -0.10006975476E+02  0.26582135986E+02  0.00000000000E+00 0. -1.
</event>
<event>
 8    1  0.6945825E-009  0.1536731E+03  0.7561462E-02  0.1196031E+00
         -2   -1    0    0    0  501 -0.00000000000E+00  0.00000000000E+00  0.59122379113E+02  0.59122379113E+02  0.00000000000E+00 0.  1.
          2   -1    0    0  501    0  0.00000000000E+00 -0.00000000000E+00 -0.43216250758E+03  0.43216250758E+03  0.00000000000E+00 0. -1.
         25    2    1    2    0    0  0.10324381105E+03  0.31740994655E+02 -0.13387464773E+03  0.21268931342E+03  0.12509015738E+03 0.  0.
         23    2    1    2    0    0 -0.10324381105E+03 -0.31740994655E+02 -0.23916548074E+03  0.27859557328E+03  0.93533903007E+02 0.  0.
          5    1    3    3  502    0 -0.28395001140E+02  0.13294629983E+02 -0.18608459805E+02  0.36698371250E+02  0.41800000000E+01 0.  1.
         -5    1    3    3    0  502  0.13163881219E+03  0.18446364672E+02 -0.11526618793E+03  0.17599094217E+03  0.41800000000E+01 0.  1.
        -11    1    4    4    0    0 -0.28974528060E+02 -0.57276699422E+02 -0.11409102141E+03  0.13090800105E+03  0.00000000000E+00 0. -1.
         11    1    4    4    0    0 -0.74269282994E+02  0.25535704767E+02 -0.12507445933E+03  0.14768757223E+03  0.00000000000E+00 0.  1.
</event>
<event>
 8    1  0.6945825E-009  0.1832910E+03  0.7561462E-02  0.1164655E+00
         -1   -1    0    0    0  501 -0.00000000000E+00  0.00000000000E+00  0.51962095438E+02  0.51962095438E+02  0.00000000000E+00 0.  1.
          1   -1    0    0  501    0  0.00000000000E+00 -0.00000000000E+00 -0.73404475804E+03  0.73404475804E+03  0.00000000000E+00 0. -1.
         25    2    1    2    0    0  0.95050694607E+02  0.11336841039E+03 -0.22521742014E+03  0.29708234535E+03  0.12509197641E+03 0.  0.
         23    2    1    2    0    0 -0.95050694607E+02 -0.11336841039E+03 -0.45686524246E+03  0.48892450813E+03  0.91838411676E+02 0.  0.
          5    1    3    3  502    0  0.20286236003E+02  0.11681053513E+03 -0.13234345118E+03  0.17773152213E+03  0.41800000000E+01 0. -1.
         -5    1    3    3    0  502  0.74764458604E+02 -0.34421247312E+01 -0.92873968954E+02  0.11935082322E+03  0.41800000000E+01 0. -1.
        -11    1    4    4    0    0 -0.10187682836E+03 -0.58057559540E+02 -0.33475837069E+03  0.35470090939E+03  0.00000000000E+00 0. -1.
         11    1    4    4    0    0  0.68261337510E+01 -0.55310850855E+02 -0.12210687177E+03  0.13422359874E+03  0.00000000000E+00 0.  1.
</event>
<event>
 8    1  0.6945825E-009  0.2020504E+03  0.7561462E-02  0.1148020E+00
          1   -1    0    0  501    0  0.00000000000E+00  0.00000000000E+00  0.63268370715E+02  0.63268370715E+02  0.00000000000E+00 0. -1.
         -1   -1    0    0    0  501 -0.00000000000E+00 -0.00000000000E+00 -0.69549406806E+03  0.69549406806E+03  0.00000000000E+00 0.  1.
         25    2    1    2    0    0  0.13414810989E+03 -0.11827343981E+03 -0.31924580555E+03  0.38671660848E+03  0.12509008338E+03 0.  0.
         23    2    1    2    0    0 -0.13414810989E+03  0.11827343981E+03 -0.31297989179E+03  0.37204583029E+03  0.92072608410E+02 0.  0.
          5    1    3    3  502    0 -0.27827171930E+01  0.17656004146E+02 -0.64877368365E+02  0.67424204284E+02  0.41800000000E+01 0. -1.
         -5    1    3    3    0  502  0.13693082709E+03 -0.13592944396E+03 -0.25436843719E+03  0.31929240420E+03  0.41800000000E+01 0. -1.
        -11    1    4    4    0    0 -0.53242163627E+02  0.94438569060E+02 -0.12163798537E+03  0.16293916288E+03  0.00000000000E+00 0. -1.
         11    1    4    4    0    0 -0.80905946266E+02  0.23834870750E+02 -0.19134190642E+03  0.20910666741E+03  0.00000000000E+00 0.  1.
</event>
<event>
 8    1  0.6945825E-009  0.1262824E+03  0.7561462E-02  0.1233079E+00
          2   -1    0    0  501    0  0.00000000000E+00  0.00000000000E+00  0.19790152803E+03  0.19790152803E+03  0.00000000000E+00 0.  1.
         -2   -1    0    0    0  501 -0.00000000000E+00 -0.00000000000E+00 -0.13323080665E+03  0.13323080665E+03  0.00000000000E+00 0. -1.
         25    2    1    2    0    0 -0.39377032778E+00  0.65084851395E+02 -0.67898701797E+02  0.15650805963E+03  0.12509334949E+03 0.  0.
         23    2    1    2    0    0  0.39377032778E+00 -0.65084851395E+02  0.13256942318E+03  0.17462427506E+03  0.93181503215E+02 0.  0.
          5    1    3    3  502    0 -0.60323177173E+02  0.49664211720E+02 -0.29876551990E+02  0.83758583971E+02  0.41800000000E+01 0. -1.
         -5    1    3    3    0  502  0.59929406845E+02  0.15420639675E+02 -0.38022149807E+02  0.72749475659E+02  0.41800000000E+01 0. -1.
        -11    1    4    4    0    0 -0.40587584546E+02 -0.57865669023E+02  0.69973924770E+02  0.99459226915E+02  0.00000000000E+00 0.  1.
         11    1    4    4    0    0  0.40981354873E+02 -0.72191823720E+01  0.62595498406E+02  0.75165048141E+02  0.00000000000E+00 0. -1.
</event>
<event>
 8    1  0.6945825E-009  0.8603196E+02  0.7561462E-02  0.1312756E+00
         -2   -1    0    0    0  501 -0.00000000000E+00  0.00000000000E+00  0.64499416598E+02  0.64499416598E+02  0.00000000000E+00 0.  1.
          2   -1    0    0  501    0  0.00000000000E+00 -0.00000000000E+00 -0.29276324674E+03  0.29276324674E+03  0.00000000000E+00 0. -1.
         25    2    1    2    0    0 -0.40621379863E+02 -0.42677476751E+02 -0.19583090787E+03  0.23972504556E+03  0.12508752723E+03 0.  0.
         23    2    1    2    0    0  0.40621379863E+02  0.42677476751E+02 -0.32432922275E+02  0.11753761778E+03  0.96393638910E+02 0.  0.
          5    1    3    3  502    0 -0.41339878799E+02  0.75815656665E+00 -0.19139868972E+03  0.19585834475E+03  0.41800000000E+01 0.  1.
         -5    1    3    3    0  502  0.71849893509E+00 -0.43435633317E+02 -0.44322181477E+01  0.43866700812E+02  0.41800000000E+01 0.  1.
        -11    1    4    4    0    0 -0.17445021212E+02  0.76304555053E+01  0.23059957630E+02  0.29905087564E+02  0.00000000000E+00 0.  1.
         11    1    4    4    0    0  0.58066401075E+02  0.35047021245E+02 -0.55492879905E+02  0.87632530217E+02  0.00000000000E+00 0. -1.
</event>
<event>
 8    1  0.6945825E-009  0.1116985E+03  0.7561462E-02  0.1257456E+00
         -2   -1    0    0    0  501 -0.00000000000E+00  0.00000000000E+00  0.34773028499E+02  0.34773028499E+02  0.00000000000E+00 0.  1.
          2   -1    0    0  501    0  0.00000000000E+00 -0.00000000000E+00 -0.65353165293E+03  0.65353165293E+03  0.00000000000E+00 0. -1.
         25    2    1    2    0    0  0.46333091417E+02  0.10875226877E+02 -0.54902787780E+03  0.56510517898E+03  0.12508887555E+03 0.  0.
         23    2    1    2    0    0 -0.46333091417E+02 -0.10875226877E+02 -0.69730746624E+02  0.12319950244E+03  0.89725773653E+02 0.  0.
          5    1    3    3  502    0  0.57939922748E+02  0.59479754631E+02 -0.36672109237E+03  0.37602753602E+03  0.41800000000E+01 0.  1.
         -5    1    3    3    0  502 -0.11606831331E+02 -0.48604527754E+02 -0.18230678544E+03  0.18907764296E+03  0.41800000000E+01 0.  1.
        -11    1    4    4    0    0  0.20284920634E+02 -0.11836625200E+02  0.40021048587E+01  0.23824368712E+02  0.00000000000E+00 0.  1.
         11    1    4    4    0    0 -0.66618012051E+02  0.96139832254E+00 -0.73732851483E+02  0.99375133731E+02  0.00000000000E+00 0. -1.
</event>
<event>
 8    1  0.6945825E-009  0.1142297E+03  0.7561462E-02  0.1252932E+00
         -2   -1    0    0    0  501 -0.00000000000E+00  0.00000000000E+00  0.38147241775E+03  0.38147241775E+03  0.00000000000E+00 0.  1.
          2   -1    0    0  501    0  0.00000000000E+00 -0.00000000000E+00 -0.43804610117E+02  0.43804610117E+02  0.00000000000E+00 0. -1.
         25    2    1    2    0    0  0.39298733792E+02 -0.11503036610E+02  0.93706998586E+02  0.16157258076E+03  0.12509191397E+03 0.  0.
         23    2    1    2    0    0 -0.39298733792E+02  0.11503036610E+02  0.24396080905E+03  0.26370444711E+03  0.91358900734E+02 0.  0.
          5    1    3    3  502    0 -0.35244012974E+02 -0.37989837306E+02  0.30915831979E+02  0.60486603939E+02  0.41800000000E+01 0.  1.
         -5    1    3    3    0  502  0.74542746766E+02  0.26486800696E+02  0.62791166607E+02  0.10108597682E+03  0.41800000000E+01 0.  1.
        -11    1    4    4    0    0 -0.58867425190E+02 -0.18257588936E+02  0.12253382337E+03  0.13716140554E+03  0.00000000000E+00 0. -1.
         11    1    4    4    0    0  0.19568691398E+02  0.29760625547E+02  0.12142698568E+03  0.12654304156E+03  0.00000000000E+00 0.  1.
</event>
<event>
 8    1  0.6945825E-009  0.1270288E+03  0.7561462E-02  0.1231932E+00
         -2   -1    0    0    0  501 -0.00000000000E+00  0.00000000000E+00  0.43148961694E+03  0.43148961694E+03  0.00000000000E+00 0.  1.
          2   -1    0    0  501    0  0.00000000000E+00 -0.00000000000E+00 -0.44393728899E+02  0.44393728899E+02  0.00000000000E+00 0. -1.
         25    2    1    2    0    0  0.64577317733E+02 -0.41998475127E+02  0.27309817163E+03  0.31010955318E+03  0.12510484303E+03 0.  0.
         23    2    1    2    0    0 -0.64577317733E+02  0.41998475127E+02  0.11399771641E+03  0.16577379265E+03  0.92473613025E+02 0.  0.
          5    1    3    3  502    0 -0.29887360549E+02 -0.38825244500E+02  0.12551810367E+03  0.13480697564E+03  0.41800000000E+01 0.  1.
         -5    1    3    3    0  502  0.94464678282E+02 -0.31732306277E+01  0.14758006796E+03  0.17530257754E+03  0.41800000000E+01 0.  1.
        -11    1    4    4    0    0  0.70595183421E+01  0.37864302178E+02  0.74494132233E+02  0.83862494095E+02  0.00000000000E+00 0.  1.
         11    1    4    4    0    0 -0.71636836076E+02  0.41341729496E+01  0.39503584174E+02  0.81911298558E+02  0.00000000000E+00 0. -1.
</event>
<event>
 8    1  0.6945825E-009  0.1001557E+03  0.7561462E-02  0.1279969E+00
         -2   -1    0    0    0  501 -0.00000000000E+00  0.00000000000E+00  0.26500123181E+02  0.26500123181E+02  0.00000000000E+00 0.  1.
          2   -1    0    0  501    0  0.00000000000E+00 -0.00000000000E+00 -0.49545844275E+03  0.49545844275E+03  0.00000000000E+00 0. -1.
         25    2    1    2    0    0  0.84717343788E+01  0.38836487818E+02 -0.26525605513E+03  0.29595377336E+03  0.12509123917E+03 0.  0.
         23    2    1    2    0    0 -0.84717343788E+01 -0.38836487818E+02 -0.20370226445E+03  0.22600479257E+03  0.89462342112E+02 0.  0.
          5    1    3    3  502    0 -0.95678182792E+00  0.74601420783E+02 -0.90912918766E+02  0.11768142850E+03  0.41800000000E+01 0. -1.
         -5    1    3    3    0  502  0.94285162068E+01 -0.35764932965E+02 -0.17434313636E+03  0.17827234486E+03  0.41800000000E+01 0. -1.
        -11    1    4    4    0    0  0.35209788132E+02 -0.12527459588E+02 -0.13722257493E+03  0.14222060855E+03  0.00000000000E+00 0. -1.
         11    1    4    4    0    0 -0.43681522511E+02 -0.26309028230E+02 -0.66479689513E+02  0.83784184027E+02  0.00000000000E+00 0.  1.
</event>
<event>
 8    1  0.6945825E-009  0.9925363E+02  0.7561462E-02  0.1281873E+00
         -2   -1    0    0    0  501 -0.00000000000E+00  0.00000000000E+00  0.85445092243E+02  0.85445092243E+02  0.00000000000E+00 0.  1.
          2   -1    0    0  501    0  0.00000000000E+00 -0.00000000000E+00 -0.21469818804E+03  0.21469818804E+03  0.00000000000E+00 0. -1.
         25    2    1    2    0    0  0.43022439356E+02 -0.38883123859E+02 -0.79033140523E+01  0.13810389924E+03  0.12508955593E+03 0.  0.
         23    2    1    2    0    0 -0.43022439356E+02  0.38883123859E+02 -0.12134978174E+03  0.16203938104E+03  0.90377894811E+02 0.  0.
          5    1    3    3  502    0 -0.19891599105E+02  0.28189950236E+02 -0.27095284285E+02  0.44067854949E+02  0.41800000000E+01 0. -1.
         -5    1    3    3    0  502  0.62914038461E+02 -0.67073074096E+02  0.19191970233E+02  0.94036044289E+02  0.41800000000E+01 0. -1.
        -11    1    4    4    0    0 -0.14016802483E+02  0.40288453423E+02 -0.12564048917E+03  0.13268444803E+03  0.00000000000E+00 0. -1.
         11    1    4    4    0    0 -0.29005636873E+02 -0.14053295639E+01  0.42907074292E+01  0.29354933007E+02  0.00000000000E+00 0.  1.
</event>
<event>
 8    1  0.6945825E-009  0.1719226E+03  0.7561462E-02  0.1175858E+00
         -2   -1    0    0    0  501 -0.00000000000E+00  0.00000000000E+00  0.20875037917E+02  0.20875037917E+02  0.00000000000E+00 0.  1.
          2   -1    0    0  501    0  0.00000000000E+00 -0.00000000000E+00 -0.29629741332E+04  0.29629741332E+04  0.00000000000E+00 0. -1.
         25    2    1    2    0    0 -0.13164407914E+03  0.38024579719E+02 -0.25717067788E+04  0.25783907842E+04  0.12508895857E+03 0.  0.
         23    2    1    2    0    0  0.13164407914E+03 -0.38024579719E+02 -0.37039231653E+03  0.40545838698E+03  0.91815048876E+02 0.  0.
          5    1    3    3  502    0  0.70339625833E+01 -0.28136824542E+02 -0.59260319180E+03  0.59332720556E+03  0.41800000000E+01 0.  1.
         -5    1    3    3    0  502 -0.13867804172E+03  0.66161404261E+02 -0.19791035870E+04  0.19850635786E+04  0.41800000000E+01 0.  1.
        -11    1    4    4    0    0  0.10504145507E+03 -0.64531172861E+02 -0.31746702785E+03  0.34056320019E+03  0.00000000000E+00 0.  1.
         11    1    4    4    0    0  0.26602624069E+02  0.26506593142E+02 -0.52925288676E+02  0.64895186792E+02  0.00000000000E+00 0. -1.
</event>
<event>
 8    1  0.6945825E-009  0.1254589E+03  0.7561462E-02  0.1234354E+00
         -3   -1    0    0    0  501 -0.00000000000E+00  0.00000000000E+00  0.60591405391E+03  0.60591405391E+03  0.00000000000E+00 0.  1.
          3   -1    0    0  501    0  0.00000000000E+00 -0.00000000000E+00 -0.31653903118E+02  0.31653903118E+02  0.00000000000E+00 0. -1.
         25    2    1    2    0    0  0.29955528505E+02 -0.81022757136E+02  0.29573322516E+03  0.33251675392E+03  0.12508888964E+03 0.  0.
         23    2    1    2    0    0 -0.29955528505E+02  0.81022757136E+02  0.27852692563E+03  0.30505120311E+03  0.89537519250E+02 0.  0.
          5    1    3    3  502    0 -0.33694208656E+02  0.78011112373E+01  0.33219621694E+02  0.48137020047E+02  0.41800000000E+01 0. -1.
         -5    1    3    3    0  502  0.63649737161E+02 -0.88823868373E+02  0.26251360346E+03  0.28437973387E+03  0.41800000000E+01 0. -1.
        -11    1    4    4    0    0  0.69477819753E+01  0.66825677402E+02  0.24223883393E+03  0.25138336361E+03  0.00000000000E+00 0.  1.
         11    1    4    4    0    0 -0.36903310480E+02  0.14197079734E+02  0.36288091704E+02  0.53667839503E+02  0.00000000000E+00 0. -1.
</event>
<event>
 8    1  0.6945825E-009  0.1394279E+03  0.7561462E-02  0.1214101E+00
         -4   -1    0    0    0  501 -0.00000000000E+00  0.00000000000E+00  0.62688197991E+02  0.62688197991E+02  0.00000000000E+00 0.  1.
          4   -1    0    0  501    0  0.00000000000E+00 -0.00000000000E+00 -0.46274490593E+03  0.46274490593E+03  0.00000000000E+00 0. -1.
         25    2    1    2    0    0 -0.47165885264E+02  0.11765626597E+03 -0.15848926234E+03  0.23839947813E+03  0.12509135559E+03 0.  0.
         23    2    1    2    0    0  0.47165885264E+02 -0.11765626597E+03 -0.24156744560E+03  0.28703362579E+03  0.89251632505E+02 0.  0.
          5    1    3    3  502    0 -0.36060703814E+02  0.12872944202E+03 -0.74991496494E+02  0.15333897270E+03  0.41800000000E+01 0. -1.
         -5    1    3    3    0  502 -0.11105181450E+02 -0.11073176053E+02 -0.83497765846E+02  0.85060505431E+02  0.41800000000E+01 0. -1.
        -11    1    4    4    0    0  0.41432862653E+02 -0.73708012785E+02 -0.22387772579E+03  0.23931316169E+03  0.00000000000E+00 0. -1.
         11    1    4    4    0    0  0.57330226108E+01 -0.43948253185E+02 -0.17689719811E+02  0.47720464093E+02  0.00000000000E+00 0.  1.
</event>
<event>
 8    1  0.6945825E-009  0.1000345E+03  0.7561462E-02  0.1280223E+00
         -1   -1    0    0    0  501 -0.00000000000E+00  0.00000000000E+00  0.33837810998E+02  0.33837810998E+02  0.00000000000E+00 0.  1.
          1   -1    0    0  501    0  0.00000000000E+00 -0.00000000000E+00 -0.51944704692E+03  0.51944704692E+03  0.00000000000E+00 0. -1.
         25    2    1    2    0    0  0.54101368241E+02  0.52115691485E+02 -0.30592388136E+03  0.33893935560E+03  0.12508981672E+03 0.  0.
         23    2    1    2    0    0 -0.54101368241E+02 -0.52115691485E+02 -0.17968535457E+03  0.21434550232E+03  0.89521865340E+02 0.  0.
          5    1    3    3  502    0 -0.21909936331E+02  0.37513310704E+02 -0.31621539276E+02  0.53895156890E+02  0.41800000000E+01 0.  1.
         -5    1    3    3    0  502  0.76011304572E+02  0.14602380780E+02 -0.27430234209E+03  0.28504419871E+03  0.41800000000E+01 0.  1.
        -11    1    4    4    0    0 -0.28610830087E+02 -0.11241175144E+02 -0.26278742497E+01  0.30852055685E+02  0.00000000000E+00 0.  1.
         11    1    4    4    0    0 -0.25490538154E+02 -0.40874516340E+02 -0.17705748032E+03  0.18349344663E+03  0.00000000000E+00 0. -1.
</event>
<event>
 8    1  0.6945825E-009  0.1230212E+03  0.7561462E-02  0.1238195E+00
          2   -1    0    0  501    0  0.00000000000E+00  0.00000000000E+00  0.10447132109E+03  0.10447132109E+03  0.00000000000E+00 0. -1.
         -2   -1    0    0    0  501 -0.00000000000E+00 -0.00000000000E+00 -0.16382098061E+03  0.16382098061E+03  0.00000000000E+00 0.  1.
         25    2    1    2    0    0  0.59927715827E+02 -0.18779631641E+02  0.47185346593E+01  0.14005271257E+03  0.12509393286E+03 0.  0.
         23    2    1    2    0    0 -0.59927715827E+02  0.18779631641E+02 -0.64068194177E+02  0.12823958913E+03  0.91633252846E+02 0.  0.
          5    1    3    3  502    0  0.77303394401E+02  0.29984986509E+02  0.20979830319E+02  0.85630250975E+02  0.41800000000E+01 0. -1.
         -5    1    3    3    0  502 -0.17375678574E+02 -0.48764618150E+02 -0.16261295660E+02  0.54422461592E+02  0.41800000000E+01 0. -1.
        -11    1    4    4    0    0 -0.29945711954E+02 -0.37095953384E+02 -0.27936816432E+02  0.55256865041E+02  0.00000000000E+00 0.  1.
         11    1    4    4    0    0 -0.29982003873E+02  0.55875585024E+02 -0.36131377746E+02  0.72982724092E+02  0.00000000000E+00 0. -1.
</event>
<event>
 8    1  0.6945825E-009  0.2348883E+03  0.7561462E-02  0.1123246E+00
          2   -1    0    0  501    0  0.00000000000E+00  0.00000000000E+00  0.42299481663E+03  0.42299481663E+03  0.00000000000E+00 0. -1.
         -2   -1    0    0    0  501 -0.00000000000E+00 -0.00000000000E+00 -0.15750611306E+03  0.15750611306E+03  0.00000000000E+00 0.  1.
         25    2    1    2    0    0  0.25299174133E+02  0.22382279884E+03  0.20706173918E+03  0.33053942672E+03  0.12508019545E+03 0.  0.
         23    2    1    2    0    0 -0.25299174133E+02 -0.22382279884E+03  0.58426964387E+02  0.24996150296E+03  0.91270747240E+02 0.  0.
          5    1    3    3  502    0  0.32142511278E+01  0.19656817681E+03  0.10580519499E+03  0.22329709186E+03  0.41800000000E+01 0. -1.
         -5    1    3    3    0  502  0.22084923006E+02  0.27254622031E+02  0.10125654419E+03  0.10724233487E+03  0.41800000000E+01 0. -1.
        -11    1    4    4    0    0 -0.47767709931E+02 -0.87881348587E+02  0.50239944483E+02  0.11193273678E+03  0.00000000000E+00 0.  1.
         11    1    4    4    0    0  0.22468535798E+02 -0.13594145026E+03  0.81870199039E+01  0.13802876618E+03  0.00000000000E+00 0. -1.
</event>
<event>
 8    1  0.6945825E-009  0.1162881E+03  0.7561462E-02  0.1249349E+00
          1   -1    0    0  501    0  0.00000000000E+00  0.00000000000E+00  0.28995601625E+03  0.28995601625E+03  0.00000000000E+00 0. -1.
         -1   -1    0    0    0  501 -0.00000000000E+00 -0.00000000000E+00 -0.50904743321E+02  0.50904743321E+02  0.00000000000E+00 0.  1.
         25    2    1    2    0    0 -0.22097175534E+02 -0.48718156882E+02  0.16037497036E+03  0.21031018847E+03  0.12509396581E+03 0.  0.
         23    2    1    2    0    0  0.22097175534E+02  0.48718156882E+02  0.78676302571E+02  0.13055057110E+03  0.89396571809E+02 0.  0.
          5    1    3    3  502    0 -0.61722503510E+02 -0.67873950273E+02  0.10742891249E+03  0.14133288437E+03  0.41800000000E+01 0.  1.
         -5    1    3    3    0  502  0.39625327977E+02  0.19155793392E+02  0.52946057863E+02  0.68977304101E+02  0.41800000000E+01 0.  1.
        -11    1    4    4    0    0  0.41053310731E+02 -0.32788270822E+01  0.58709867472E+02  0.71714528288E+02  0.00000000000E+00 0.  1.
         11    1    4    4    0    0 -0.18956135197E+02  0.51996983964E+02  0.19966435099E+02  0.58836042810E+02  0.00000000000E+00 0. -1.
</event>
<event>
 8    1  0.6945825E-009  0.1125191E+03  0.7561462E-02  0.1255975E+00
         -2   -1    0    0    0  501 -0.00000000000E+00  0.00000000000E+00  0.48078123711E+02  0.48078123711E+02  0.00000000000E+00 0.  1.
          2   -1    0    0  501    0  0.00000000000E+00 -0.00000000000E+00 -0.27759047349E+03  0.27759047349E+03  0.00000000000E+00 0. -1.
         25    2    1    2    0    0  0.11498803438E+02 -0.36527997326E+02 -0.10652968621E+03  0.16870999994E+03  0.12509185812E+03 0.  0.
         23    2    1    2    0    0 -0.11498803438E+02  0.36527997326E+02 -0.12298266357E+03  0.15695859726E+03  0.89692522799E+02 0.  0.
          5    1    3    3  502    0  0.64567331162E+02 -0.36534610840E+02 -0.80167831678E+02  0.10930723525E+03  0.41800000000E+01 0. -1.
         -5    1    3    3    0  502 -0.53068527724E+02  0.66135142784E-02 -0.26361854532E+02  0.59402764690E+02  0.41800000000E+01 0. -1.
        -11    1    4    4    0    0 -0.47289614042E+02  0.13392153370E+01 -0.57891023221E+02  0.74762769234E+02  0.00000000000E+00 0.  1.
         11    1    4    4    0    0  0.35790810604E+02  0.35188781989E+02 -0.65091640351E+02  0.82195828028E+02  0.00000000000E+00 0. -1.
</event>
<event>
 8    1  0.6945825E-009  0.1042627E+03  0.7561462E-02  0.1271579E+00
          2   -1    0    0  501    0  0.00000000000E+00  0.00000000000E+00  0.10777474537E+04  0.10777474537E+04  0.00000000000E+00 0. -1.
         -2   -1    0    0    0  501 -0.00000000000E+00 -0.00000000000E+00 -0.17550934699E+02  0.17550934699E+02  0.00000000000E+00 0.  1.
         25    2    1    2    0    0 -0.59191178011E+02 -0.86013207579E+01  0.77309398112E+03  0.78542881096E+03  0.12508611104E+03 0.  0.
         23    2    1    2    0    0  0.59191178011E+02  0.86013207579E+01  0.28710253785E+03  0.30986957740E+03  0.10006852396E+03 0.  0.
          5    1    3    3  502    0  0.15367263812E+02 -0.17955481037E+02  0.29472046723E+02  0.38008236402E+02  0.41800000000E+01 0.  1.
         -5    1    3    3    0  502 -0.74558441822E+02  0.93541602791E+01  0.74362193439E+03  0.74742057456E+03  0.41800000000E+01 0.  1.
        -11    1    4    4    0    0  0.44269708462E+02 -0.39236448385E+02  0.10013098375E+03  0.11629926860E+03  0.00000000000E+00 0.  1.
         11    1    4    4    0    0  0.14921469549E+02  0.47837769143E+02  0.18697155410E+03  0.19357030881E+03  0.00000000000E+00 0. -1.
</event>
<event>
 8    1  0.6945825E-009  0.1114705E+03  0.7561462E-02  0.1257871E+00
          2   -1    0    0  501    0  0.00000000000E+00  0.00000000000E+00  0.16246206953E+03  0.16246206953E+03  0.00000000000E+00 0. -1.
         -2   -1    0    0    0  501 -0.00000000000E+00 -0.00000000000E+00 -0.12135661931E+03  0.12135661931E+03  0.00000000000E+00 0.  1.
         25    2    1    2    0    0  0.50234325254E+02 -0.74995802283E+02  0.18847348078E+02  0.15539965122E+03  0.12508385698E+03 0.  0.
         23    2    1    2    0    0 -0.50234325254E+02  0.74995802283E+02  0.22258102144E+02  0.12841903762E+03  0.88589888350E+02 0.  0.
          5    1    3    3  502    0  0.66176780957E+02 -0.70209430612E+02  0.57999921734E+02  0.11265076034E+03  0.41800000000E+01 0. -1.
         -5    1    3    3    0  502 -0.15942455703E+02 -0.47863716711E+01 -0.39152573655E+02  0.42748890880E+02  0.41800000000E+01 0. -1.
        -11    1    4    4    0    0 -0.16328608923E+02 -0.89864654132E+01  0.32304131360E+02  0.37295266897E+02  0.00000000000E+00 0. -1.
         11    1    4    4    0    0 -0.33905716331E+02  0.83982267696E+02 -0.10046029217E+02  0.91123770720E+02  0.00000000000E+00 0.  1.
</event>
<event>
 8    1  0.6945825E-009  0.2998291E+03  0.7561462E-02  0.1085326E+00
          2   -1    0    0  501    0  0.00000000000E+00  0.00000000000E+00  0.57422601737E+03  0.57422601737E+03  0.00000000000E+00 0. -1.
         -2   -1    0    0    0  501 -0.00000000000E+00 -0.00000000000E+00 -0.19059464144E+03  0.19059464144E+03  0.00000000000E+00 0.  1.
         25    2    1    2    0    0  0.28526248078E+03  0.62688372285E+02  0.32243322762E+03  0.45267630028E+03  0.12509249216E+03 0.  0.
         23    2    1    2    0    0 -0.28526248078E+03 -0.62688372285E+02  0.61198148315E+02  0.31214435853E+03  0.91566217816E+02 0.  0.
          5    1    3    3  502    0  0.13134975943E+03  0.50316553909E+02  0.23839702553E+03  0.27683050606E+03  0.41800000000E+01 0.  1.
         -5    1    3    3    0  502  0.15391272135E+03  0.12371818376E+02  0.84036202090E+02  0.17584579422E+03  0.41800000000E+01 0.  1.
        -11    1    4    4    0    0 -0.25693557241E+03 -0.26182985955E+02  0.40145746005E+02  0.26136778311E+03  0.00000000000E+00 0.  1.
         11    1    4    4    0    0 -0.28326908369E+02 -0.36505386330E+02  0.21052402310E+02  0.50776575425E+02  0.00000000000E+00 0. -1.
</event>
<event>
 8    1  0.6945825E-009  0.1135339E+03  0.7561462E-02  0.1254162E+00
          1   -1    0    0  501    0  0.00000000000E+00  0.00000000000E+00  0.28685739393E+03  0.28685739393E+03  0.00000000000E+00 0. -1.
         -1   -1    0    0    0  501 -0.00000000000E+00 -0.00000000000E+00 -0.74548996212E+02  0.74548996212E+02  0.00000000000E+00 0.  1.
         25    2    1    2    0    0  0.35767306627E+02 -0.48182135960E+02  0.21134306144E+03  0.25281330866E+03  0.12509141044E+03 0.  0.
         23    2    1    2    0    0 -0.35767306627E+02  0.48182135960E+02  0.96533628023E+00  0.10859308149E+03  0.90502524959E+02 0.  0.
          5    1    3    3  502    0  0.70750649065E+02 -0.20235002950E+02  0.18844977451E+03  0.20235093180E+03  0.41800000000E+01 0. -1.
         -5    1    3    3    0  502 -0.34983342438E+02 -0.27947133010E+02  0.22893286931E+02  0.50462376858E+02  0.41800000000E+01 0. -1.
        -11    1    4    4    0    0 -0.58935755573E+02  0.47012268931E+01 -0.27334949580E+01  0.59186120112E+02  0.00000000000E+00 0. -1.
         11    1    4    4    0    0  0.23168448946E+02  0.43480909067E+02  0.36988312383E+01  0.49406961375E+02  0.00000000000E+00 0.  1.
</event>
<event>
 8    1  0.6945825E-009  0.1131501E+03  0.7561462E-02  0.1254845E+00
         -3   -1    0    0    0  501 -0.00000000000E+00  0.00000000000E+00  0.10983850762E+03  0.10983850762E+03  0.00000000000E+00 0.  1.
          3   -1    0    0  501    0  0.00000000000E+00 -0.00000000000E+00 -0.31555959943E+03  0.31555959943E+03  0.00000000000E+00 0. -1.
         25    2    1    2    0    0  0.55812560710E+02  0.38025370552E+02 -0.25849030807E+03  0.29500168075E+03  0.12509109297E+03 0.  0.
         23    2    1    2    0    0 -0.55812560710E+02 -0.38025370552E+02  0.52769216264E+02  0.13039642630E+03  0.98273430121E+02 0.  0.
          5    1    3    3  502    0 -0.29238874691E+02  0.15349695007E+02 -0.15874775484E+02  0.36878256828E+02  0.41800000000E+01 0. -1.
         -5    1    3    3    0  502  0.85051435401E+02  0.22675675545E+02 -0.24261553258E+03  0.25812342392E+03  0.41800000000E+01 0. -1.
        -11    1    4    4    0    0 -0.28696874721E+02 -0.62240743290E+02  0.62506707062E+02  0.92760493594E+02  0.00000000000E+00 0.  1.
         11    1    4    4    0    0 -0.27115685990E+02  0.24215372738E+02 -0.97374907976E+01  0.37635932705E+02  0.00000000000E+00 0. -1.
</event>
<event>
 8    1  0.6945825E-009  0.3000918E+03  0.7561462E-02  0.1085195E+00
         -2   -1    0    0    0  501 -0.00000000000E+00  0.00000000000E+00  0.56858373453E+02  0.56858373453E+02  0.00000000000E+00 0. -1.
          2   -1    0    0  501    0  0.00000000000E+00 -0.00000000000E+00 -0.16622258422E+04  0.16622258422E+04  0.00000000000E+00 0.  1.
         25    2    1    2    0    0  0.99974405688E+02  0.26887269105E+03 -0.80645758505E+03  0.86504847800E+03  0.12509047532E+03 0.  0.
         23    2    1    2    0    0 -0.99974405688E+02 -0.26887269105E+03 -0.79890988369E+03  0.85403573765E+03  0.93982089434E+02 0.  0.
          5    1    3    3  502    0  0.73245375066E+02  0.26583247138E+03 -0.77904521664E+03  0.82641436929E+03  0.41800000000E+01 0.  1.
         -5    1    3    3    0  502  0.26729030622E+02  0.30402196789E+01 -0.27412368414E+02  0.38634108709E+02  0.41800000000E+01 0.  1.
        -11    1    4    4    0    0 -0.11557745069E+02 -0.14243767524E+03 -0.30984813379E+03  0.34121538478E+03  0.00000000000E+00 0.  1.
         11    1    4    4    0    0 -0.88416660618E+02 -0.12643501582E+03 -0.48906174990E+03  0.51282035286E+03  0.00000000000E+00 0. -1.
</event>
<event>
 8    1  0.6945825E-009  0.7954301E+02  0.7561462E-02  0.1330353E+00
          2   -1    0    0  501    0  0.00000000000E+00  0.00000000000E+00  0.10073566665E+03  0.10073566665E+03  0.00000000000E+00 0. -1.
         -2   -1    0    0    0  501 -0.00000000000E+00 -0.00000000000E+00 -0.15901744599E+03  0.15901744599E+03  0.00000000000E+00 0.  1.
         25    2    1    2    0    0 -0.49579811873E+02 -0.13469439702E+02 -0.83952673054E+02  0.15917268781E+03  0.12509320397E+03 0.  0.
         23    2    1    2    0    0  0.49579811873E+02  0.13469439702E+02  0.25670893714E+02  0.10058042483E+03  0.82570233880E+02 0.  0.
          5    1    3    3  502    0 -0.54497649959E+02  0.17182305191E+01  0.16698696170E+02  0.57177487011E+02  0.41800000000E+01 0.  1.
         -5    1    3    3    0  502  0.49178380853E+01 -0.15187670221E+02 -0.10065136922E+03  0.10199520079E+03  0.41800000000E+01 0.  1.
        -11    1    4    4    0    0  0.43568676756E+02 -0.24142017150E+02 -0.71256778407E+01  0.50317411212E+02  0.00000000000E+00 0.  1.
         11    1    4    4    0    0  0.60111351168E+01  0.37611456852E+02  0.32796571555E+02  0.50263013615E+02  0.00000000000E+00 0. -1.
</event>
<event>
 8    1  0.6945825E-009  0.7432825E+02  0.7561462E-02  0.1345964E+00
         -2   -1    0    0    0  501 -0.00000000000E+00  0.00000000000E+00  0.22053363931E+03  0.22053363931E+03  0.00000000000E+00 0.  1.
          2   -1    0    0  501    0  0.00000000000E+00 -0.00000000000E+00 -0.74272738672E+02  0.74272738672E+02  0.00000000000E+00 0. -1.
         25    2    1    2    0    0 -0.19621665018E+02 -0.41690544417E+01  0.66908026730E+01  0.12686452015E+03  0.12508976329E+03 0.  0.
         23    2    1    2    0    0  0.19621665018E+02  0.41690544417E+01  0.13957009796E+03  0.16794185783E+03  0.91226446895E+02 0.  0.
          5    1    3    3  502    0 -0.14543626128E+02 -0.51628558913E+02  0.41245003361E+02  0.67791207827E+02  0.41800000000E+01 0. -1.
         -5    1    3    3    0  502 -0.50780388893E+01  0.47459504471E+02 -0.34554200688E+02  0.59073312323E+02  0.41800000000E+01 0. -1.
        -11    1    4    4    0    0  0.32041645830E+02 -0.36773804128E+01  0.14768025664E+03  0.15116100157E+03  0.00000000000E+00 0.  1.
         11    1    4    4    0    0 -0.12419980812E+02  0.78464348545E+01 -0.81101586727E+01  0.16780856265E+02  0.00000000000E+00 0. -1.
</event>
<event>
 8    1  0.6945825E-009  0.7718184E+02  0.7561462E-02  0.1337245E+00
          1   -1    0    0  501    0  0.00000000000E+00  0.00000000000E+00  0.11664215549E+04  0.11664215549E+04  0.00000000000E+00 0. -1.
         -1   -1    0    0    0  501 -0.00000000000E+00 -0.00000000000E+00 -0.33799166247E+02  0.33799166247E+02  0.00000000000E+00 0.  1.
         25    2    1    2    0    0 -0.58144029239E+02 -0.36700862335E+02  0.10490797170E+04  0.10587460646E+04  0.12508914920E+03 0.  0.
         23    2    1    2    0    0  0.58144029239E+02  0.36700862335E+02  0.83542671687E+02  0.14147465658E+03  0.91148335314E+02 0.  0.
          5    1    3    3  502    0 -0.61419983046E+02 -0.28554811292E+02  0.10464829508E+04  0.10486809955E+04  0.41800000000E+01 0. -1.
         -5    1    3    3    0  502  0.32759538075E+01 -0.81460510435E+01  0.25967661535E+01  0.10065069071E+02  0.41800000000E+01 0. -1.
        -11    1    4    4    0    0  0.15788451152E+01  0.16708567701E+02 -0.17320333623E+02  0.24117689428E+02  0.00000000000E+00 0.  1.
         11    1    4    4    0    0  0.56565184123E+02  0.19992294634E+02  0.10086300531E+03  0.11735696716E+03  0.00000000000E+00 0. -1.
</event>
<event>
 8    1  0.6945825E-009  0.1561685E+03  0.7561462E-02  0.1193092E+00
          3   -1    0    0  501    0  0.00000000000E+00  0.00000000000E+00  0.79916235833E+02  0.79916235833E+02  0.00000000000E+00 0. -1.
         -3   -1    0    0    0  501 -0.00000000000E+00 -0.00000000000E+00 -0.40008657171E+03  0.40008657171E+03  0.00000000000E+00 0.  1.
         25    2    1    2    0    0  0.13363206562E+03 -0.45247374763E+02 -0.17749117913E+03  0.25895094780E+03  0.12509045052E+03 0.  0.
         23    2    1    2    0    0 -0.13363206562E+03  0.45247374763E+02 -0.14267915675E+03  0.22105185974E+03  0.92745506854E+02 0.  0.
          5    1    3    3  502    0  0.14826586593E+03 -0.34101788115E+02 -0.18418970492E+03  0.23893308425E+03  0.41800000000E+01 0. -1.
         -5    1    3    3    0  502 -0.14633800308E+02 -0.11145586648E+02  0.66985257905E+01  0.20017863546E+02  0.41800000000E+01 0. -1.
        -11    1    4    4    0    0 -0.36966728510E+02  0.16045162236E+02  0.65906855172E+01  0.40834095845E+02  0.00000000000E+00 0. -1.
         11    1    4    4    0    0 -0.96665337108E+02  0.29202212528E+02 -0.14926984227E+03  0.18021776390E+03  0.00000000000E+00 0.  1.
</event>
<event>
 8    1  0.6945825E-009  0.1272144E+03  0.7561462E-02  0.1231649E+00
          1   -1    0    0  501    0  0.00000000000E+00  0.00000000000E+00  0.16923255784E+03  0.16923255784E+03  0.00000000000E+00 0. -1.
         -1   -1    0    0    0  501 -0.00000000000E+00 -0.00000000000E+00 -0.14483893969E+03  0.14483893969E+03  0.00000000000E+00 0.  1.
         25    2    1    2    0    0 -0.34672815241E+02 -0.81938995632E+02  0.82113189116E+02  0.17408627000E+03  0.12508897015E+03 0.  0.
         23    2    1    2    0    0  0.34672815241E+02  0.81938995632E+02 -0.57719570960E+02  0.13998522754E+03  0.91368002793E+02 0.  0.
          5    1    3    3  502    0  0.33899352278E+02 -0.49893823365E+02 -0.24558892000E+01  0.60514985636E+02  0.41800000000E+01 0.  1.
         -5    1    3    3    0  502 -0.68572167519E+02 -0.32045172268E+02  0.84569078316E+02  0.11357128436E+03  0.41800000000E+01 0.  1.
        -11    1    4    4    0    0  0.51161282733E+02  0.21474136034E+02 -0.53648932308E+02  0.77180459360E+02  0.00000000000E+00 0.  1.
         11    1    4    4    0    0 -0.16488467492E+02  0.60464859598E+02 -0.40706386523E+01  0.62804768175E+02  0.00000000000E+00 0. -1.
</event>
<event>
 8    1  0.6945825E-009  0.1816049E+03  0.7561462E-02  0.1166259E+00
         -2   -1    0    0    0  501 -0.00000000000E+00  0.00000000000E+00  0.50259360057E+02  0.50259360057E+02  0.00000000000E+00 0. -1.
          2   -1    0    0  501    0  0.00000000000E+00 -0.00000000000E+00 -0.69685071383E+03  0.69685071383E+03  0.00000000000E+00 0.  1.
         25    2    1    2    0    0  0.17420877891E+02  0.15198189529E+03 -0.35012555462E+03  0.40203980833E+03  0.12508445148E+03 0.  0.
         23    2    1    2    0    0 -0.17420877891E+02 -0.15198189529E+03 -0.29646579915E+03  0.34507026555E+03  0.88201670179E+02 0.  0.
          5    1    3    3  502    0 -0.45615986621E+02  0.56395653686E+02 -0.20268661079E+03  0.21531517035E+03  0.41800000000E+01 0.  1.
         -5    1    3    3    0  502  0.63036864511E+02  0.95586241602E+02 -0.14743894384E+03  0.18672463798E+03  0.41800000000E+01 0.  1.
        -11    1    4    4    0    0  0.26480209725E+02 -0.11667044063E+03 -0.21450852354E+03  0.24561575661E+03  0.00000000000E+00 0.  1.
         11    1    4    4    0    0 -0.43901087616E+02 -0.35311454656E+02 -0.81957275610E+02  0.99454508943E+02  0.00000000000E+00 0. -1.
</event>
<event>
 8    1  0.6945825E-009  0.1183826E+03  0.7561462E-02  0.1245789E+00
          2   -1    0    0  501    0  0.00000000000E+00  0.00000000000E+00  0.13744559858E+03  0.13744559858E+03  0.00000000000E+00 0. -1.
         -2   -1    0    0    0  501 -0.00000000000E+00 -0.00000000000E+00 -0.12444136337E+03  0.12444136337E+03  0.00000000000E+00 0.  1.
         25    2    1    2    0    0 -0.21918558441E+02 -0.69134565010E+02  0.14577041132E+02  0.14532481338E+03  0.12508716950E+03 0.  0.
         23    2    1    2    0    0  0.21918558441E+02  0.69134565010E+02 -0.15728059301E+01  0.11656214857E+03  0.91237325019E+02 0.  0.
          5    1    3    3  502    0 -0.16893821066E+02 -0.93453224489E+02  0.45547754524E+02  0.10540861777E+03  0.41800000000E+01 0. -1.
         -5    1    3    3    0  502 -0.50247373753E+01  0.24318659479E+02 -0.30970713391E+02  0.39916195617E+02  0.41800000000E+01 0. -1.
        -11    1    4    4    0    0  0.49373138908E+02  0.86844869276E+01 -0.19399051832E+01  0.50168619584E+02  0.00000000000E+00 0.  1.
         11    1    4    4    0    0 -0.27454580467E+02  0.60450078083E+02  0.36709925315E+00  0.66393528982E+02  0.00000000000E+00 0. -1.
</event>
<event>
 8    1  0.6945825E-009  0.1677938E+03  0.7561462E-02  0.1180168E+00
         -2   -1    0    0    0  501 -0.00000000000E+00  0.00000000000E+00  0.25178691942E+03  0.25178691942E+03  0.00000000000E+00 0.  1.
          2   -1    0    0  501    0  0.00000000000E+00 -0.00000000000E+00 -0.21964470898E+03  0.21964470898E+03  0.00000000000E+00 0. -1.
         25    2    1    2    0    0 -0.13608689232E+03 -0.19293814433E+02  0.17360911767E+03  0.25432173266E+03  0.12509006527E+03 0.  0.
         23    2    1    2    0    0  0.13608689232E+03  0.19293814433E+02 -0.14146690723E+03  0.21710989574E+03  0.90729969976E+02 0.  0.
          5    1    3    3  502    0 -0.52577583143E+02  0.41892590680E+02  0.22326483711E+02  0.70960099196E+02  0.41800000000E+01 0.  1.
         -5    1    3    3    0  502 -0.83509309180E+02 -0.61186405112E+02  0.15128263396E+03  0.18336163347E+03  0.41800000000E+01 0.  1.
        -11    1    4    4    0    0  0.70026876865E+02  0.55442392357E+02 -0.73554161304E+02  0.11570582094E+03  0.00000000000E+00 0.  1.
         11    1    4    4    0    0  0.66060015458E+02 -0.36148577925E+02 -0.67912745923E+02  0.10140407481E+03  0.00000000000E+00 0. -1.
</event>
<event>
 8    1  0.6945825E-009  0.2291090E+03  0.7561462E-02  0.1127268E+00
         -2   -1    0    0    0  501 -0.00000000000E+00  0.00000000000E+00  0.98838157587E+02  0.98838157587E+02  0.00000000000E+00 0. -1.
          2   -1    0    0  501    0  0.00000000000E+00 -0.00000000000E+00 -0.65476174282E+03  0.65476174282E+03  0.00000000000E+00 0.  1.
         25    2    1    2    0    0  0.14400795520E+03  0.16486567806E+03 -0.18316802539E+03  0.31163577198E+03  0.12508935163E+03 0.  0.
         23    2    1    2    0    0 -0.14400795520E+03 -0.16486567806E+03 -0.37275555984E+03  0.44196412842E+03  0.92014131800E+02 0.  0.
          5    1    3    3  502    0  0.37667806761E+02  0.11283307719E+03 -0.39464040898E+02  0.12539956100E+03  0.41800000000E+01 0.  1.
         -5    1    3    3    0  502  0.10634014844E+03  0.52032600868E+02 -0.14370398449E+03  0.18623621098E+03  0.41800000000E+01 0.  1.
        -11    1    4    4    0    0 -0.18922407601E+02 -0.38632520553E+02 -0.15520289449E+03  0.16105423811E+03  0.00000000000E+00 0.  1.
         11    1    4    4    0    0 -0.12508554760E+03 -0.12623315751E+03 -0.21755266535E+03  0.28090989031E+03  0.00000000000E+00 0. -1.
</event>
<event>
 8    1  0.6945825E-009  0.1140509E+03  0.7561462E-02  0.1253247E+00
          1   -1    0    0  501    0  0.00000000000E+00  0.00000000000E+00  0.63061425063E+03  0.63061425063E+03  0.00000000000E+00 0. -1.
         -1   -1    0    0    0  501 -0.00000000000E+00 -0.00000000000E+00 -0.23453765297E+02  0.23453765297E+02  0.00000000000E+00 0.  1.
         25    2    1    2    0    0  0.10114096097E+02 -0.43934456565E+02  0.42249006176E+03  0.44292026763E+03  0.12509188537E+03 0.  0.
         23    2    1    2    0    0 -0.10114096097E+02  0.43934456565E+02  0.18467042357E+03  0.21114774829E+03  0.91911233538E+02 0.  0.
          5    1    3    3  502    0  0.65274556158E+02 -0.39583536874E+02  0.27139998472E+03  0.28196284894E+03  0.41800000000E+01 0.  1.
         -5    1    3    3    0  502 -0.55160460060E+02 -0.43509196910E+01  0.15109007703E+03  0.16095741870E+03  0.41800000000E+01 0.  1.
        -11    1    4    4    0    0 -0.21960090280E+02 -0.20861420269E+02  0.96154367036E+02  0.10081223498E+03  0.00000000000E+00 0. -1.
         11    1    4    4    0    0  0.11845994183E+02  0.64795876834E+02  0.88516056539E+02  0.11033551331E+03  0.00000000000E+00 0.  1.
</event>
<event>
 8    1  0.6945825E-009  0.1154985E+03  0.7561462E-02  0.1250713E+00
          1   -1    0    0  501    0  0.00000000000E+00  0.00000000000E+00  0.54801862523E+02  0.54801862523E+02  0.00000000000E+00 0. -1.
         -1   -1    0    0    0  501 -0.00000000000E+00 -0.00000000000E+00 -0.33505464904E+03  0.33505464904E+03  0.00000000000E+00 0.  1.
         25    2    1    2    0    0  0.24048426443E+02 -0.53278292748E+02 -0.72980587539E+02  0.15617361167E+03  0.12508847881E+03 0.  0.
         23    2    1    2    0    0 -0.24048426443E+02  0.53278292748E+02 -0.20727219898E+03  0.23368289990E+03  0.90714000809E+02 0.  0.
          5    1    3    3  502    0  0.71028791118E+02 -0.26563758677E+02 -0.67644936672E+02  0.10170561587E+03  0.41800000000E+01 0.  1.
         -5    1    3    3    0  502 -0.46980364675E+02 -0.26714534071E+02 -0.53356508679E+01  0.54467995794E+02  0.41800000000E+01 0.  1.
        -11    1    4    4    0    0 -0.54360803067E+02  0.26865928045E+02 -0.81117478724E+02  0.10127645508E+03  0.00000000000E+00 0.  1.
         11    1    4    4    0    0  0.30312376624E+02  0.26412364703E+02 -0.12615472026E+03  0.13240644482E+03  0.00000000000E+00 0. -1.
</event>
<event>
 8    1  0.6945825E-009  0.2395934E+03  0.7561462E-02  0.1120064E+00
          1   -1    0    0  501    0  0.00000000000E+00  0.00000000000E+00  0.59346423997E+03  0.59346423997E+03  0.00000000000E+00 0. -1.
         -1   -1    0    0    0  501 -0.00000000000E+00 -0.00000000000E+00 -0.10130817500E+03  0.10130817500E+03  0.00000000000E+00 0.  1.
         25    2    1    2    0    0 -0.20946221580E+03  0.58487321615E+02  0.21209678674E+03  0.32852310270E+03  0.12508875021E+03 0.  0.
         23    2    1    2    0    0  0.20946221580E+03 -0.58487321615E+02  0.28005927823E+03  0.36624931227E+03  0.91706994167E+02 0.  0.
          5    1    3    3  502    0 -0.17369247378E+03 -0.92007524560E+01  0.15355427466E+03  0.23205627972E+03  0.41800000000E+01 0.  1.
         -5    1    3    3    0  502 -0.35769742021E+02  0.67688074071E+02  0.58542512074E+02  0.96466822979E+02  0.41800000000E+01 0.  1.
        -11    1    4    4    0    0  0.14702577744E+03 -0.63113404241E+01  0.22178277620E+03  0.26616538481E+03  0.00000000000E+00 0. -1.
         11    1    4    4    0    0  0.62436438357E+02 -0.52175981191E+02  0.58276502034E+02  0.10008392747E+03  0.00000000000E+00 0.  1.
</event>
<event>
 8    1  0.6945825E-009  0.1125810E+03  0.7561462E-02  0.1255864E+00
         -2   -1    0    0    0  501 -0.00000000000E+00  0.00000000000E+00  0.13821645065E+03  0.13821645065E+03  0.00000000000E+00 0.  1.
          2   -1    0    0  501    0  0.00000000000E+00 -0.00000000000E+00 -0.14614100042E+03  0.14614100042E+03  0.00000000000E+00 0. -1.
         25    2    1    2    0    0  0.82143092203E+02 -0.34826022048E+02  0.20548326529E+02  0.15502176614E+03  0.12509666200E+03 0.  0.
         23    2    1    2    0    0 -0.82143092203E+02  0.34826022048E+02 -0.28472876298E+02  0.12933568494E+03  0.89200197902E+02 0.  0.
          5    1    3    3  502    0  0.52342497775E+02 -0.46180833009E+02 -0.44199591814E+02  0.82725345132E+02  0.41800000000E+01 0.  1.
         -5    1    3    3    0  502  0.29800594427E+02  0.11354810961E+02  0.64747918343E+02  0.72296421004E+02  0.41800000000E+01 0.  1.
        -11    1    4    4    0    0 -0.71637532966E+01 -0.25719501651E+02  0.52948065425E+01  0.27218506623E+02  0.00000000000E+00 0.  1.
         11    1    4    4    0    0 -0.74979338906E+02  0.60545523699E+02 -0.33767682841E+02  0.10211717832E+03  0.00000000000E+00 0. -1.
</event>
<event>
 8    1  0.6945825E-009  0.1147991E+03  0.7561462E-02  0.1251932E+00
         -1   -1    0    0    0  501 -0.00000000000E+00  0.00000000000E+00  0.15003088912E+03  0.15003088912E+03  0.00000000000E+00 0.  1.
          1   -1    0    0  501    0  0.00000000000E+00 -0.00000000000E+00 -0.12196337566E+03  0.12196337566E+03  0.00000000000E+00 0. -1.
         25    2    1    2    0    0 -0.22631148194E+02 -0.54579811860E+02  0.69772969672E+02  0.15494005135E+03  0.12508807891E+03 0.  0.
         23    2    1    2    0    0  0.22631148194E+02  0.54579811860E+02 -0.41705456214E+02  0.11705421342E+03  0.92039225715E+02 0.  0.
          5    1    3    3  502    0  0.47747366961E+02 -0.46503091585E+02  0.26661438879E+02  0.71907254862E+02  0.41800000000E+01 0. -1.
         -5    1    3    3    0  502 -0.70378515155E+02 -0.80767202753E+01  0.43111530793E+02  0.83032796491E+02  0.41800000000E+01 0. -1.
        -11    1    4    4    0    0 -0.24090200741E+01  0.64772567445E+02  0.29145980940E+01  0.64882846371E+02  0.00000000000E+00 0.  1.
         11    1    4    4    0    0  0.25040168268E+02 -0.10192755585E+02 -0.44620054308E+02  0.52171367049E+02  0.00000000000E+00 0. -1.
</event>
<event>
 8    1  0.6945825E-009  0.1481499E+03  0.7561462E-02  0.1202765E+00
         -2   -1    0    0    0  501 -0.00000000000E+00  0.00000000000E+00  0.71240175529E+02  0.71240175529E+02  0.00000000000E+00 0.  1.
          2   -1    0    0  501    0  0.00000000000E+00 -0.00000000000E+00 -0.36099663518E+03  0.36099663518E+03  0.00000000000E+00 0. -1.
         25    2    1    2    0    0  0.11429587866E+03  0.98489352347E+01 -0.19838938798E+03  0.26108561638E+03  0.12508717125E+03 0.  0.
         23    2    1    2    0    0 -0.11429587866E+03 -0.98489352347E+01 -0.91367071669E+02  0.17115119433E+03  0.88228340866E+02 0.  0.
          5    1    3    3  502    0  0.61648285033E+02  0.57456112623E+02 -0.15849593616E+03  0.17955542349E+03  0.41800000000E+01 0. -1.
         -5    1    3    3    0  502  0.52647593630E+02 -0.47607177388E+02 -0.39893451821E+02  0.81530192886E+02  0.41800000000E+01 0. -1.
        -11    1    4    4    0    0 -0.10909236616E+03 -0.35441469632E+02 -0.88501220162E+02  0.14487825266E+03  0.00000000000E+00 0. -1.
         11    1    4    4    0    0 -0.52035125014E+01  0.25592534397E+02 -0.28658515077E+01  0.26272941672E+02  0.00000000000E+00 0.  1.
</event>
<event>
 8    1  0.6945825E-009  0.9063013E+02  0.7561462E-02  0.1301333E+00
          4   -1    0    0  501    0  0.00000000000E+00  0.00000000000E+00  0.57336574956E+02  0.57336574956E+02  0.00000000000E+00 0. -1.
         -4   -1    0    0    0  501 -0.00000000000E+00 -0.00000000000E+00 -0.20805639906E+03  0.20805639906E+03  0.00000000000E+00 0.  1.
         25    2    1    2    0    0 -0.44609500974E+01 -0.30597274133E+02 -0.88828886399E+02  0.15650263542E+03  0.12508561298E+03 0.  0.
         23    2    1    2    0    0  0.44609500974E+01  0.30597274133E+02 -0.61890937706E+02  0.10889033859E+03  0.84086410371E+02 0.  0.
          5    1    3    3  502    0  0.12541178792E+02 -0.77585192452E+02 -0.53697841233E+02  0.95276827227E+02  0.41800000000E+01 0. -1.
         -5    1    3    3    0  502 -0.17002128889E+02  0.46987918319E+02 -0.35131045166E+02  0.61225808196E+02  0.41800000000E+01 0. -1.
        -11    1    4    4    0    0 -0.11655471075E+02 -0.54950714860E+01  0.16596462069E+02  0.21011624636E+02  0.00000000000E+00 0. -1.
         11    1    4    4    0    0  0.16116421172E+02  0.36092345619E+02 -0.78487399775E+02  0.87878713959E+02  0.00000000000E+00 0.  1.
</event>
<event>
 8    1  0.6945825E-009  0.2892455E+03  0.7561462E-02  0.1090744E+00
          2   -1    0    0  501    0  0.00000000000E+00  0.00000000000E+00  0.15327367158E+04  0.15327367158E+04  0.00000000000E+00 0. -1.
         -2   -1    0    0    0  501 -0.00000000000E+00 -0.00000000000E+00 -0.62935962304E+02  0.62935962304E+02  0.00000000000E+00 0.  1.
         25    2    1    2    0    0 -0.16851474090E+02 -0.27350448697E+03  0.49959320194E+03  0.58337704278E+03  0.12508688999E+03 0.  0.
         23    2    1    2    0    0  0.16851474090E+02  0.27350448697E+03  0.97020755158E+03  0.10122956353E+04  0.91384263612E+02 0.  0.
          5    1    3    3  502    0  0.39952529816E+02 -0.20283926082E+03  0.30286775868E+03  0.36672376800E+03  0.41800000000E+01 0.  1.
         -5    1    3    3    0  502 -0.56804003907E+02 -0.70665226148E+02  0.19672544327E+03  0.21665327479E+03  0.41800000000E+01 0.  1.
        -11    1    4    4    0    0  0.39053436478E+02  0.13003170750E+03  0.58730122078E+03  0.60279029503E+03  0.00000000000E+00 0. -1.
         11    1    4    4    0    0 -0.22201962388E+02  0.14347277947E+03  0.38290633080E+03  0.40950534032E+03  0.00000000000E+00 0.  1.
</event>
<event>
 8    1  0.6945825E-009  0.1063634E+03  0.7561462E-02  0.1267456E+00
          3   -1    0    0  501    0  0.00000000000E+00  0.00000000000E+00  0.43835982757E+03  0.43835982757E+03  0.00000000000E+00 0. -1.
         -3   -1    0    0    0  501 -0.00000000000E+00 -0.00000000000E+00 -0.35623349168E+02  0.35623349168E+02  0.00000000000E+00 0.  1.
         25    2    1    2    0    0 -0.58164311256E+01 -0.61514306168E+02  0.23322385231E+03  0.27176800880E+03  0.12508654838E+03 0.  0.
         23    2    1    2    0    0  0.58164311256E+01  0.61514306168E+02  0.16951262610E+03  0.20221516794E+03  0.91315951539E+02 0.  0.
          5    1    3    3  502    0 -0.32958688081E+02  0.29402256852E+02  0.67994250933E+02  0.81187797039E+02  0.41800000000E+01 0.  1.
         -5    1    3    3    0  502  0.27142256955E+02 -0.90916563019E+02  0.16522960137E+03  0.19058021176E+03  0.41800000000E+01 0.  1.
        -11    1    4    4    0    0 -0.16701247321E+02  0.33616661647E+02  0.10171379195E+02  0.38890468718E+02  0.00000000000E+00 0.  1.
         11    1    4    4    0    0  0.22517678447E+02  0.27897644521E+02  0.15934124690E+03  0.16332469923E+03  0.00000000000E+00 0. -1.
</event>
<event>
 8    1  0.6945825E-009  0.1068146E+03  0.7561462E-02  0.1266585E+00
         -1   -1    0    0    0  501 -0.00000000000E+00  0.00000000000E+00  0.10181888724E+02  0.10181888724E+02  0.00000000000E+00 0.  1.
          1   -1    0    0  501    0  0.00000000000E+00 -0.00000000000E+00 -0.18249822389E+04  0.18249822389E+04  0.00000000000E+00 0. -1.
         25    2    1    2    0    0  0.26372364568E+02 -0.49396325336E+02 -0.14076199702E+04  0.14142760207E+04  0.12508870332E+03 0.  0.
         23    2    1    2    0    0 -0.26372364568E+02  0.49396325336E+02 -0.40718037997E+03  0.42088810690E+03  0.90639054108E+02 0.  0.
          5    1    3    3  502    0 -0.10984510128E+01  0.26990565287E+02 -0.87826920258E+02  0.91982267482E+02  0.41800000000E+01 0.  1.
         -5    1    3    3    0  502  0.27470815581E+02 -0.76386890622E+02 -0.13197930499E+04  0.13222937532E+04  0.41800000000E+01 0.  1.
        -11    1    4    4    0    0 -0.21668123875E+01 -0.25863615935E+02 -0.72767028608E+02  0.77257117197E+02  0.00000000000E+00 0.  1.
         11    1    4    4    0    0 -0.24205552180E+02  0.75259941271E+02 -0.33441335136E+03  0.34363098970E+03  0.00000000000E+00 0. -1.
</event>
<event>
 8    1  0.6945825E-009  0.8078679E+02  0.7561462E-02  0.1326833E+00
          1   -1    0    0  501    0  0.00000000000E+00  0.00000000000E+00  0.22440929514E+03  0.22440929514E+03  0.00000000000E+00 0. -1.
         -1   -1    0    0    0  501 -0.00000000000E+00 -0.00000000000E+00 -0.60860661417E+02  0.60860661417E+02  0.00000000000E+00 0.  1.
         25    2    1    2    0    0  0.25207102367E+02  0.50390438076E+01  0.50650042367E+02  0.13737876084E+03  0.12508679853E+03 0.  0.
         23    2    1    2    0    0 -0.25207102367E+02 -0.50390438076E+01  0.11289859135E+03  0.14789119571E+03  0.92005020883E+02 0.  0.
          5    1    3    3  502    0  0.24361397046E+02 -0.31636896289E+02 -0.29040544636E+02  0.49549939511E+02  0.41800000000E+01 0.  1.
         -5    1    3    3    0  502  0.84570532169E+00  0.36675940096E+02  0.79690587003E+02  0.87828821331E+02  0.41800000000E+01 0.  1.
        -11    1    4    4    0    0  0.11336912067E+02  0.31103268742E+02  0.80736510093E+02  0.87260088034E+02  0.00000000000E+00 0. -1.
         11    1    4    4    0    0 -0.36544014434E+02 -0.36142312550E+02  0.32162081260E+02  0.60631107679E+02  0.00000000000E+00 0.  1.
</event>
<event>
 8    1  0.6945825E-009  0.1404052E+03  0.7561462E-02  0.1212785E+00
          1   -1    0    0  501    0  0.00000000000E+00  0.00000000000E+00  0.41768599888E+03  0.41768599888E+03  0.00000000000E+00 0. -1.
         -1   -1    0    0    0  501 -0.00000000000E+00 -0.00000000000E+00 -0.52166572306E+02  0.52166572306E+02  0.00000000000E+00 0.  1.
         25    2    1    2    0    0 -0.13883254093E+02  0.97662746202E+02  0.22566172102E+03  0.27622858090E+03  0.12509300473E+03 0.  0.
         23    2    1    2    0    0  0.13883254093E+02 -0.97662746202E+02  0.13985770555E+03  0.19362399029E+03  0.90550069419E+02 0.  0.
          5    1    3    3  502    0 -0.50375977667E+02  0.10854227092E+03  0.15512300489E+03  0.19595862509E+03  0.41800000000E+01 0. -1.
         -5    1    3    3    0  502  0.36492723574E+02 -0.10879524719E+02  0.70538716134E+02  0.80269955810E+02  0.41800000000E+01 0. -1.
        -11    1    4    4    0    0  0.29738375095E+02 -0.67680111532E+01  0.60570572688E+01  0.31094450808E+02  0.00000000000E+00 0.  1.
         11    1    4    4    0    0 -0.15855121003E+02 -0.90894735048E+02  0.13380064828E+03  0.16252953948E+03  0.00000000000E+00 0. -1.
</event>
<event>
 8    1  0.6945825E-009  0.1942498E+03  0.7561462E-02  0.1154683E+00
          1   -1    0    0  501    0  0.00000000000E+00  0.00000000000E+00  0.80927782502E+02  0.80927782502E+02  0.00000000000E+00 0. -1.
         -1   -1    0    0    0  501 -0.00000000000E+00 -0.00000000000E+00 -0.52429338855E+03  0.52429338855E+03  0.00000000000E+00 0.  1.
         25    2    1    2    0    0 -0.44152048431E+02  0.15964012547E+03 -0.31090101847E+03  0.37382079687E+03  0.12509265305E+03 0.  0.
         23    2    1    2    0    0  0.44152048431E+02 -0.15964012547E+03 -0.13246458759E+03  0.23140037419E+03  0.92546708049E+02 0.  0.
          5    1    3    3  502    0  0.35381152943E+02  0.10310184457E+03 -0.18042333587E+03  0.21083611850E+03  0.41800000000E+01 0. -1.
         -5    1    3    3    0  502 -0.79533201374E+02  0.56538280899E+02 -0.13047768260E+03  0.16298467837E+03  0.41800000000E+01 0. -1.
        -11    1    4    4    0    0 -0.17226766328E+02 -0.76423982751E+02 -0.90782639702E+02  0.11991194390E+03  0.00000000000E+00 0.  1.
         11    1    4    4    0    0  0.61378814759E+02 -0.83216142714E+02 -0.41681947883E+02  0.11148843029E+03  0.00000000000E+00 0. -1.
</event>
<event>
 8    1  0.6945825E-009  0.1108858E+03  0.7561462E-02  0.1258938E+00
          2   -1    0    0  501    0  0.00000000000E+00  0.00000000000E+00  0.29246538712E+03  0.29246538712E+03  0.00000000000E+00 0. -1.
         -2   -1    0    0    0  501 -0.00000000000E+00 -0.00000000000E+00 -0.90049621834E+02  0.90049621834E+02  0.00000000000E+00 0.  1.
         25    2    1    2    0    0  0.40017069441E+02  0.29555634604E+02 -0.19982690247E+02  0.13609250898E+03  0.12508781598E+03 0.  0.
         23    2    1    2    0    0 -0.40017069441E+02 -0.29555634604E+02  0.22239845553E+03  0.24642249997E+03  0.93744728311E+02 0.  0.
          5    1    3    3  502    0  0.73510060634E+01  0.76607396717E+02 -0.14204958757E+02  0.78370809459E+02  0.41800000000E+01 0.  1.
         -5    1    3    3    0  502  0.32666063378E+02 -0.47051762113E+02 -0.57777314902E+01  0.57721699523E+02  0.41800000000E+01 0.  1.
        -11    1    4    4    0    0 -0.26522472494E+02 -0.53538754861E+02  0.20577205522E+03  0.21427080653E+03  0.00000000000E+00 0. -1.
         11    1    4    4    0    0 -0.13494596948E+02  0.23983120258E+02  0.16626400307E+02  0.32151693443E+02  0.00000000000E+00 0.  1.
</event>
<event>
 8    1  0.6945825E-009  0.1375850E+03  0.7561462E-02  0.1216616E+00
          1   -1    0    0  501    0  0.00000000000E+00  0.00000000000E+00  0.16914461969E+03  0.16914461969E+03  0.00000000000E+00 0. -1.
         -1   -1    0    0    0  501 -0.00000000000E+00 -0.00000000000E+00 -0.19430296429E+03  0.19430296429E+03  0.00000000000E+00 0.  1.
         25    2    1    2    0    0 -0.81257389074E+02 -0.81542659258E+02 -0.10241954015E+03  0.19847797010E+03  0.12510704957E+03 0.  0.
         23    2    1    2    0    0  0.81257389074E+02  0.81542659258E+02  0.77261195557E+02  0.16496961387E+03  0.89407564581E+02 0.  0.
          5    1    3    3  502    0 -0.26959369200E+02 -0.84043204415E+02 -0.70685241681E+01  0.88642564437E+02  0.41800000000E+01 0. -1.
         -5    1    3    3    0  502 -0.54298019875E+02  0.25005451575E+01 -0.95351015986E+02  0.10983540567E+03  0.41800000000E+01 0. -1.
        -11    1    4    4    0    0  0.23412017666E+01  0.45458976700E+02 -0.45039818579E+01  0.45741508948E+02  0.00000000000E+00 0. -1.
         11    1    4    4    0    0  0.78916187308E+02  0.36083682558E+02  0.81765177415E+02  0.11922810492E+03  0.00000000000E+00 0.  1.
</event>
<event>
 8    1  0.6945825E-009  0.1366449E+03  0.7561462E-02  0.1217916E+00
          1   -1    0    0  501    0  0.00000000000E+00  0.00000000000E+00  0.58056702188E+03  0.58056702188E+03  0.00000000000E+00 0. -1.
         -1   -1    0    0    0  501 -0.00000000000E+00 -0.00000000000E+00 -0.37814484286E+02  0.37814484286E+02  0.00000000000E+00 0.  1.
         25    2    1    2    0    0 -0.74778727456E+02 -0.68211134617E+02  0.32823498598E+03  0.36556019903E+03  0.12510569983E+03 0.  0.
         23    2    1    2    0    0  0.74778727456E+02  0.68211134617E+02  0.21451755162E+03  0.25282130714E+03  0.87499808137E+02 0.  0.
          5    1    3    3  502    0  0.33639005664E+02 -0.14045167061E+02  0.10915198803E+03  0.11515415021E+03  0.41800000000E+01 0. -1.
         -5    1    3    3    0  502 -0.10841773312E+03 -0.54165967556E+02  0.21908299794E+03  0.25040604882E+03  0.41800000000E+01 0. -1.
        -11    1    4    4    0    0  0.70091528016E+02  0.29023345810E+02  0.70746810886E+02  0.10373180878E+03  0.00000000000E+00 0.  1.
         11    1    4    4    0    0  0.46871994397E+01  0.39187788807E+02  0.14377074073E+03  0.14908949836E+03  0.00000000000E+00 0. -1.
</event>
<event>
 8    1  0.6945825E-009  0.1666970E+03  0.7561462E-02  0.1181337E+00
         -1   -1    0    0    0  501 -0.00000000000E+00  0.00000000000E+00  0.58941083751E+02  0.58941083751E+02  0.00000000000E+00 0.  1.
          1   -1    0    0  501    0  0.00000000000E+00 -0.00000000000E+00 -0.48192358715E+03  0.48192358715E+03  0.00000000000E+00 0. -1.
         25    2    1    2    0    0 -0.11409623509E+03 -0.60727541760E+02 -0.22843556162E+03  0.29074747513E+03  0.12508198628E+03 0.  0.
         23    2    1    2    0    0  0.11409623509E+03  0.60727541760E+02 -0.19454694178E+03  0.25011719577E+03  0.89466831136E+02 0.  0.
          5    1    3    3  502    0  0.22751378562E+02  0.10169160882E+02 -0.25646447352E+02  0.36003468184E+02  0.41800000000E+01 0.  1.
         -5    1    3    3    0  502 -0.13684761366E+03 -0.70896702642E+02 -0.20278911427E+03  0.25474400695E+03  0.41800000000E+01 0.  1.
        -11    1    4    4    0    0  0.84087905167E+02 -0.23219446582E+01 -0.80749516723E+02  0.11660468118E+03  0.00000000000E+00 0.  1.
         11    1    4    4    0    0  0.30008329928E+02  0.63049486419E+02 -0.11379742506E+03  0.13351251459E+03  0.00000000000E+00 0. -1.
</event>
<event>
 8    1  0.6945825E-009  0.1037237E+03  0.7561462E-02  0.1272655E+00
          4   -1    0    0  501    0  0.00000000000E+00  0.00000000000E+00  0.46875832567E+02  0.46875832567E+02  0.00000000000E+00 0. -1.
         -4   -1    0    0    0  501 -0.00000000000E+00 -0.00000000000E+00 -0.28048611527E+03  0.28048611527E+03  0.00000000000E+00 0.  1.
         25    2    1    2    0    0 -0.34438120294E+02  0.14713020190E+02 -0.12918062027E+03  0.18367061344E+03  0.12507919289E+03 0.  0.
         23    2    1    2    0    0  0.34438120294E+02 -0.14713020190E+02 -0.10442966243E+03  0.14369133440E+03  0.91319155130E+02 0.  0.
          5    1    3    3  502    0  0.12472855000E+02 -0.44576206942E+02 -0.19522064470E+02  0.50410254298E+02  0.41800000000E+01 0.  1.
         -5    1    3    3    0  502 -0.46910975294E+02  0.59289227132E+02 -0.10965855580E+03  0.13326035914E+03  0.41800000000E+01 0.  1.
        -11    1    4    4    0    0  0.64977617190E+01 -0.44173682782E+02 -0.17889598345E+02  0.48099614207E+02  0.00000000000E+00 0. -1.
         11    1    4    4    0    0  0.27940358575E+02  0.29460662592E+02 -0.86540064081E+02  0.95591720189E+02  0.00000000000E+00 0.  1.
</event>
<event>
 8    1  0.6945825E-009  0.2314180E+03  0.7561462E-02  0.1125646E+00
          1   -1    0    0  501    0  0.00000000000E+00  0.00000000000E+00  0.18734061606E+03  0.18734061606E+03  0.00000000000E+00 0. -1.
         -1   -1    0    0    0  501 -0.00000000000E+00 -0.00000000000E+00 -0.48558788572E+03  0.48558788572E+03  0.00000000000E+00 0.  1.
         25    2    1    2    0    0  0.21729017503E+03 -0.11275015012E+02 -0.34872210050E+03  0.42964773776E+03  0.12509168258E+03 0.  0.
         23    2    1    2    0    0 -0.21729017503E+03  0.11275015012E+02  0.50474830851E+02  0.24328076403E+03  0.96414083346E+02 0.  0.
          5    1    3    3  502    0  0.14696658942E+03  0.40292277797E+02 -0.15623812586E+03  0.21828987706E+03  0.41800000000E+01 0.  1.
         -5    1    3    3    0  502  0.70323585605E+02 -0.51567292809E+02 -0.19248397465E+03  0.21135786069E+03  0.41800000000E+01 0.  1.
        -11    1    4    4    0    0 -0.45248895920E+02 -0.17761575877E+02 -0.23232021452E+02  0.53876367550E+02  0.00000000000E+00 0. -1.
         11    1    4    4    0    0 -0.17204127911E+03  0.29036590889E+02  0.73706852302E+02  0.18940439648E+03  0.00000000000E+00 0.  1.
</event>
<event>
 8    1  0.6945825E-009  0.1306315E+03  0.7561462E-02  0.1226522E+00
          1   -1    0    0  501    0  0.00000000000E+00  0.00000000000E+00  0.30152551246E+03  0.30152551246E+03  0.00000000000E+00 0. -1.
         -1   -1    0    0    0  501 -0.00000000000E+00 -0.00000000000E+00 -0.84815663684E+02  0.84815663684E+02  0.00000000000E+00 0.  1.
         25    2    1    2    0    0  0.10493872748E+03  0.46526650369E+02  0.85117469673E+02  0.18992013118E+03  0.12509119419E+03 0.  0.
         23    2    1    2    0    0 -0.10493872748E+03 -0.46526650369E+02  0.13159237910E+03  0.19642104496E+03  0.89932235302E+02 0.  0.
          5    1    3    3  502    0  0.48102563887E+02  0.12609428486E+02 -0.29156307531E+02  0.57796340785E+02  0.41800000000E+01 0.  1.
         -5    1    3    3    0  502  0.56836163593E+02  0.33917221883E+02  0.11427377720E+03  0.13212379040E+03  0.41800000000E+01 0.  1.
        -11    1    4    4    0    0 -0.53708723643E+02  0.23209994954E+02  0.63196662652E+02  0.86122871709E+02  0.00000000000E+00 0.  1.
         11    1    4    4    0    0 -0.51230003838E+02 -0.69736645323E+02  0.68395716450E+02  0.11029817325E+03  0.00000000000E+00 0. -1.
</event>
<event>
 8    1  0.6945825E-009  0.7239756E+02  0.7561462E-02  0.1352125E+00
         -1   -1    0    0    0  501 -0.00000000000E+00  0.00000000000E+00  0.47039064367E+03  0.47039064367E+03  0.00000000000E+00 0.  1.
          1   -1    0    0  501    0  0.00000000000E+00 -0.00000000000E+00 -0.49543064270E+02  0.49543064270E+02  0.00000000000E+00 0. -1.
         25    2    1    2    0    0 -0.34955443639E+02  0.60337180745E+00  0.39891238756E+03  0.41952367759E+03  0.12508707372E+03 0.  0.
         23    2    1    2    0    0  0.34955443639E+02 -0.60337180745E+00  0.21935191844E+02  0.10041003035E+03  0.91535645828E+02 0.  0.
          5    1    3    3  502    0 -0.29390379550E+02  0.13506108774E+02  0.15994049625E+02  0.36324804304E+02  0.41800000000E+01 0.  1.
         -5    1    3    3    0  502 -0.55650640890E+01 -0.12902736967E+02  0.38291833793E+03  0.38319887328E+03  0.41800000000E+01 0.  1.
        -11    1    4    4    0    0  0.60335849359E+02  0.21310734761E+02  0.97218523958E+01  0.64723075853E+02  0.00000000000E+00 0. -1.
         11    1    4    4    0    0 -0.25380405719E+02 -0.21914106568E+02  0.12213339448E+02  0.35686954502E+02  0.00000000000E+00 0.  1.
</event>
<event>
 8    1  0.6945825E-009  0.9569830E+02  0.7561462E-02  0.1289611E+00
          1   -1    0    0  501    0  0.00000000000E+00  0.00000000000E+00  0.17255316478E+03  0.17255316478E+03  0.00000000000E+00 0. -1.
         -1   -1    0    0    0  501 -0.00000000000E+00 -0.00000000000E+00 -0.90915970817E+02  0.90915970817E+02  0.00000000000E+00 0.  1.
         25    2    1    2    0    0  0.44150840433E+02  0.38082951221E+02  0.20226093600E+02  0.13948560426E+03  0.12509009173E+03 0.  0.
         23    2    1    2    0    0 -0.44150840433E+02 -0.38082951221E+02  0.61411100366E+02  0.12398353134E+03  0.90559289477E+02 0.  0.
          5    1    3    3  502    0  0.26782664509E+02  0.69619567322E+02 -0.27452461123E+02  0.79594631063E+02  0.41800000000E+01 0. -1.
         -5    1    3    3    0  502  0.17368175924E+02 -0.31536616102E+02  0.47678554723E+02  0.59890973197E+02  0.41800000000E+01 0. -1.
        -11    1    4    4    0    0 -0.55147614583E+01 -0.41304577486E+02  0.72531675937E+02  0.83650013326E+02  0.00000000000E+00 0. -1.
         11    1    4    4    0    0 -0.38636078975E+02  0.32216262649E+01 -0.11120575571E+02  0.40333518014E+02  0.00000000000E+00 0.  1.
</event>
<event>
 8    1  0.6945825E-009  0.1386890E+03  0.7561462E-02  0.1215104E+00
          1   -1    0    0  501    0  0.00000000000E+00  0.00000000000E+00  0.74266924745E+03  0.74266924745E+03  0.00000000000E+00 0. -1.
         -1   -1    0    0    0  501 -0.00000000000E+00 -0.00000000000E+00 -0.35613677490E+02  0.35613677490E+02  0.00000000000E+00 0.  1.
         25    2    1    2    0    0 -0.25698314867E+02  0.83860053082E+02  0.17855350182E+03  0.23499181074E+03  0.12508751422E+03 0.  0.
         23    2    1    2    0    0  0.25698314867E+02 -0.83860053082E+02  0.52850206814E+03  0.54329111420E+03  0.90321021089E+02 0.  0.
          5    1    3    3  502    0 -0.23994659294E+02 -0.29429981253E+02  0.32932481773E+02  0.50436972817E+02  0.41800000000E+01 0. -1.
         -5    1    3    3    0  502 -0.17036555728E+01  0.11329003434E+03  0.14562102005E+03  0.18455483793E+03  0.41800000000E+01 0. -1.
        -11    1    4    4    0    0 -0.23492800601E+02 -0.71238383326E+02  0.32585469219E+03  0.33437718128E+03  0.00000000000E+00 0. -1.
         11    1    4    4    0    0  0.49191115468E+02 -0.12621669756E+02  0.20264737595E+03  0.20891393292E+03  0.00000000000E+00 0.  1.
</event>
<event>
 8    1  0.6945825E-009  0.1201075E+03  0.7561462E-02  0.1242920E+00
          2   -1    0    0  501    0  0.00000000000E+00  0.00000000000E+00  0.21154635772E+03  0.21154635772E+03  0.00000000000E+00 0. -1.
         -2   -1    0    0    0  501 -0.00000000000E+00 -0.00000000000E+00 -0.95640025518E+02  0.95640025518E+02  0.00000000000E+00 0.  1.
         25    2    1    2    0    0  0.89345386916E+02 -0.16233645818E+02  0.73443676328E+02  0.17113403651E+03  0.12508699149E+03 0.  0.
         23    2    1    2    0    0 -0.89345386916E+02  0.16233645818E+02  0.42462655878E+02  0.13605234673E+03  0.91983881675E+02 0.  0.
          5    1    3    3  502    0  0.46987005986E+02 -0.67535124656E+02  0.62896952421E+02  0.10364492664E+03  0.41800000000E+01 0. -1.
         -5    1    3    3    0  502  0.42358380930E+02  0.51301478838E+02  0.10546723908E+02  0.67489109870E+02  0.41800000000E+01 0. -1.
        -11    1    4    4    0    0 -0.42552109099E+02  0.11889221758E+02 -0.27301242443E+02  0.51936436359E+02  0.00000000000E+00 0.  1.
         11    1    4    4    0    0 -0.46793277817E+02  0.43444240599E+01  0.69763898321E+02  0.84115910375E+02  0.00000000000E+00 0. -1.
</event>
<event>
 8    1  0.6945825E-009  0.1202801E+03  0.7561462E-02  0.1242636E+00
         -2   -1    0    0    0  501 -0.00000000000E+00  0.00000000000E+00  0.68344853272E+02  0.68344853272E+02  0.00000000000E+00 0.  1.
          2   -1    0    0  501    0  0.00000000000E+00 -0.00000000000E+00 -0.26407007434E+03  0.26407007434E+03  0.00000000000E+00 0. -1.
         25    2    1    2    0    0  0.27951438083E+02  0.54837499777E+02 -0.16638396926E+03  0.21707080647E+03  0.12509066921E+03 0.  0.
         23    2    1    2    0    0 -0.27951438083E+02 -0.54837499777E+02 -0.29341251815E+02  0.11534412115E+03  0.93031838379E+02 0.  0.
          5    1    3    3  502    0  0.63730102848E+01 -0.35630136668E+02 -0.15112243992E+02  0.39445839040E+02  0.41800000000E+01 0. -1.
         -5    1    3    3    0  502  0.21578427798E+02  0.90467636445E+02 -0.15127172527E+03  0.17762496743E+03  0.41800000000E+01 0. -1.
        -11    1    4    4    0    0  0.20955613794E+02 -0.58342870991E+02 -0.21918541251E+02  0.65752952751E+02  0.00000000000E+00 0.  1.
         11    1    4    4    0    0 -0.48907051876E+02  0.35053712142E+01 -0.74227105637E+01  0.49591168394E+02  0.00000000000E+00 0. -1.
</event>
<event>
 8    1  0.6945825E-009  0.1160793E+03  0.7561462E-02  0.1249709E+00
          2   -1    0    0  501    0  0.00000000000E+00  0.00000000000E+00  0.32983665121E+03  0.32983665121E+03  0.00000000000E+00 0. -1.
         -2   -1    0    0    0  501 -0.00000000000E+00 -0.00000000000E+00 -0.50449860028E+02  0.50449860028E+02  0.00000000000E+00 0.  1.
         25    2    1    2    0    0  0.70508051473E+02 -0.45014942449E+01  0.17168960397E+03  0.22386540304E+03  0.12508696892E+03 0.  0.
         23    2    1    2    0    0 -0.70508051473E+02  0.45014942449E+01  0.10769718720E+03  0.15642110819E+03  0.88753761512E+02 0.  0.
          5    1    3    3  502    0  0.50912720808E+02 -0.63415662501E+02  0.96915064915E+02  0.12658457093E+03  0.41800000000E+01 0.  1.
         -5    1    3    3    0  502  0.19595330665E+02  0.58914168256E+02  0.74774539058E+02  0.97280832113E+02  0.41800000000E+01 0.  1.
        -11    1    4    4    0    0 -0.32472558696E+00  0.17177028262E+02 -0.91979611733E+01  0.19487386597E+02  0.00000000000E+00 0.  1.
         11    1    4    4    0    0 -0.70183325886E+02 -0.12675534017E+02  0.11689514838E+03  0.13693372159E+03  0.00000000000E+00 0. -1.
</event>
<event>
 8    1  0.6945825E-009  0.8804764E+02  0.7561462E-02  0.1307650E+00
         -1   -1    0    0    0  501 -0.00000000000E+00  0.00000000000E+00  0.23908709436E+03  0.23908709436E+03  0.00000000000E+00 0.  1.
          1   -1    0    0  501    0  0.00000000000E+00 -0.00000000000E+00 -0.69500577165E+02  0.69500577165E+02  0.00000000000E+00 0. -1.
         25    2    1    2    0    0  0.55274524797E+02  0.35963032541E+02  0.12208621113E+03  0.18681697037E+03  0.12508766793E+03 0.  0.
         23    2    1    2    0    0 -0.55274524797E+02 -0.35963032541E+02  0.47500306064E+02  0.12177070115E+03  0.90681926437E+02 0.  0.
          5    1    3    3  502    0 -0.16861203214E+01  0.11780875786E+02 -0.24551440194E+02  0.27602131288E+02  0.41800000000E+01 0.  1.
         -5    1    3    3    0  502  0.56960645119E+02  0.24182156755E+02  0.14663765133E+03  0.15921483908E+03  0.41800000000E+01 0.  1.
        -11    1    4    4    0    0 -0.71633890598E+02 -0.43111520254E+02  0.57345466041E+02  0.10138303574E+03  0.00000000000E+00 0.  1.
         11    1    4    4    0    0  0.16359365801E+02  0.71484877131E+01 -0.98451599769E+01  0.20387665412E+02  0.00000000000E+00 0. -1.
</event>
<event>
 8    1  0.6945825E-009  0.6823668E+02  0.7561462E-02  0.1366194E+00
         -1   -1    0    0    0  501 -0.00000000000E+00  0.00000000000E+00  0.63255799518E+02  0.63255799518E+02  0.00000000000E+00 0.  1.
          1   -1    0    0  501    0  0.00000000000E+00 -0.00000000000E+00 -0.25100192660E+03  0.25100192660E+03  0.00000000000E+00 0. -1.
         25    2    1    2    0    0 -0.51348669277E+02  0.15650422776E+02 -0.92728382495E+02  0.16470951548E+03  0.12509616301E+03 0.  0.
         23    2    1    2    0    0  0.51348669277E+02 -0.15650422776E+02 -0.95017744585E+02  0.14954821064E+03  0.10224809998E+03 0.  0.
          5    1    3    3  502    0 -0.34219732560E+02  0.15296837388E+02  0.25271327351E+02  0.45399292028E+02  0.41800000000E+01 0.  1.
         -5    1    3    3    0  502 -0.17128936716E+02  0.35358538747E+00 -0.11799970985E+03  0.11931022345E+03  0.41800000000E+01 0.  1.
        -11    1    4    4    0    0  0.38739668507E+02  0.19793119015E+02  0.39397373980E+01  0.43681243195E+02  0.00000000000E+00 0.  1.
         11    1    4    4    0    0  0.12609000770E+02 -0.35443541790E+02 -0.98957481983E+02  0.10586696744E+03  0.00000000000E+00 0. -1.
</event>
<event>
 8    1  0.6945825E-009  0.1136139E+03  0.7561462E-02  0.1254020E+00
         -2   -1    0    0    0  501 -0.00000000000E+00  0.00000000000E+00  0.13041345334E+03  0.13041345334E+03  0.00000000000E+00 0.  1.
          2   -1    0    0  501    0  0.00000000000E+00 -0.00000000000E+00 -0.21151537108E+03  0.21151537108E+03  0.00000000000E+00 0. -1.
         25    2    1    2    0    0  0.65577317394E+02 -0.73468095573E+02  0.36624305345E+02  0.16336054231E+03  0.12508949364E+03 0.  0.
         23    2    1    2    0    0 -0.65577317394E+02  0.73468095573E+02 -0.11772622309E+03  0.17856828211E+03  0.91264572262E+02 0.  0.
          5    1    3    3  502    0 -0.10157080344E+02  0.35556105266E+01 -0.32876934887E+02  0.34844998133E+02  0.41800000000E+01 0. -1.
         -5    1    3    3    0  502  0.75734397738E+02 -0.77023706099E+02  0.69501240232E+02  0.12851554418E+03  0.41800000000E+01 0. -1.
        -11    1    4    4    0    0 -0.64750259107E+02  0.44420073475E+02 -0.26575732826E+02  0.82897578718E+02  0.00000000000E+00 0.  1.
         11    1    4    4    0    0 -0.82705828647E+00  0.29048022098E+02 -0.91150490259E+02  0.95670703393E+02  0.00000000000E+00 0. -1.
</event>
<event>
 8    1  0.6945825E-009  0.1310647E+03  0.7561462E-02  0.1225884E+00
         -2   -1    0    0    0  501 -0.00000000000E+00  0.00000000000E+00  0.53182725202E+03  0.53182725202E+03  0.00000000000E+00 0.  1.
          2   -1    0    0  501    0  0.00000000000E+00 -0.00000000000E+00 -0.40669986290E+02  0.40669986290E+02  0.00000000000E+00 0. -1.
         25    2    1    2    0    0  0.28346246393E+02 -0.85506491383E+02  0.34883548304E+03  0.38137592305E+03  0.12508609314E+03 0.  0.
         23    2    1    2    0    0 -0.28346246393E+02  0.85506491383E+02  0.14232178268E+03  0.19112131526E+03  0.90316098051E+02 0.  0.
          5    1    3    3  502    0  0.42662535824E+02  0.15502045306E+02  0.62325533523E+02  0.77216254122E+02  0.41800000000E+01 0.  1.
         -5    1    3    3    0  502 -0.14316289432E+02 -0.10100853669E+03  0.28650994952E+03  0.30415966893E+03  0.41800000000E+01 0.  1.
        -11    1    4    4    0    0 -0.28946755316E+02  0.13285553437E-01  0.80695841364E+02  0.85730587501E+02  0.00000000000E+00 0.  1.
         11    1    4    4    0    0  0.60050892301E+00  0.85493205830E+02  0.61625941320E+02  0.10539072776E+03  0.00000000000E+00 0. -1.
</event>
<event>
 8    1  0.6945825E-009  0.1311973E+03  0.7561462E-02  0.1225690E+00
         -1   -1    0    0    0  501 -0.00000000000E+00  0.00000000000E+00  0.14123640928E+03  0.14123640928E+03  0.00000000000E+00 0.  1.
          1   -1    0    0  501    0  0.00000000000E+00 -0.00000000000E+00 -0.17781455762E+03  0.17781455762E+03  0.00000000000E+00 0. -1.
         25    2    1    2    0    0 -0.33843246004E+02 -0.89169782296E+02  0.46172300554E+02  0.16394298474E+03  0.12509518589E+03 0.  0.
         23    2    1    2    0    0  0.33843246004E+02  0.89169782296E+02 -0.82750448890E+02  0.15510798216E+03  0.90079042857E+02 0.  0.
          5    1    3    3  502    0 -0.49721287946E+02 -0.10133544943E+03  0.69740729534E+02  0.13274909244E+03  0.41800000000E+01 0.  1.
         -5    1    3    3    0  502  0.15878041943E+02  0.12165667135E+02 -0.23568428980E+02  0.31193892309E+02  0.41800000000E+01 0.  1.
        -11    1    4    4    0    0 -0.26441044310E+02  0.74769402052E+01 -0.30043513864E+02  0.40714201261E+02  0.00000000000E+00 0. -1.
         11    1    4    4    0    0  0.60284290313E+02  0.81692842091E+02 -0.52706935026E+02  0.11439378089E+03  0.00000000000E+00 0.  1.
</event>
<event>
 8    1  0.6945825E-009  0.2049634E+03  0.7561462E-02  0.1145618E+00
          2   -1    0    0  501    0  0.00000000000E+00  0.00000000000E+00  0.21161645872E+04  0.21161645872E+04  0.00000000000E+00 0. -1.
         -2   -1    0    0    0  501 -0.00000000000E+00 -0.00000000000E+00 -0.22312529802E+02  0.22312529802E+02  0.00000000000E+00 0.  1.
         25    2    1    2    0    0  0.34164406716E+02  0.17943575018E+03  0.13031814106E+04  0.13218514141E+04  0.12507988296E+03 0.  0.
         23    2    1    2    0    0 -0.34164406716E+02 -0.17943575018E+03  0.79067064687E+03  0.81662570289E+03  0.91395140292E+02 0.  0.
          5    1    3    3  502    0  0.22792598941E+02  0.19319387441E+03  0.12600597478E+04  0.12749946730E+04  0.41800000000E+01 0. -1.
         -5    1    3    3    0  502  0.11371807775E+02 -0.13758124229E+02  0.43121662740E+02  0.46856741156E+02  0.41800000000E+01 0. -1.
        -11    1    4    4    0    0 -0.53195683466E+02 -0.82033095653E+02  0.28489037851E+03  0.30120049351E+03  0.00000000000E+00 0.  1.
         11    1    4    4    0    0  0.19031276750E+02 -0.97402654525E+02  0.50578026836E+03  0.51542520938E+03  0.00000000000E+00 0. -1.
</event>
<event>
 8    1  0.6945825E-009  0.1132040E+03  0.7561462E-02  0.1254749E+00
         -2   -1    0    0    0  501 -0.00000000000E+00  0.00000000000E+00  0.34122407486E+02  0.34122407486E+02  0.00000000000E+00 0.  1.
          2   -1    0    0  501    0  0.00000000000E+00 -0.00000000000E+00 -0.59410695180E+03  0.59410695180E+03  0.00000000000E+00 0. -1.
         25    2    1    2    0    0 -0.83736938533E+02 -0.24868590272E+02 -0.34566941533E+03  0.37784272532E+03  0.12508980264E+03 0.  0.
         23    2    1    2    0    0  0.83736938533E+02  0.24868590272E+02 -0.21431512899E+03  0.25038663397E+03  0.95562389570E+02 0.  0.
          5    1    3    3  502    0 -0.54009291310E+02 -0.51799660778E+02 -0.32299232472E+03  0.33157461096E+03  0.41800000000E+01 0.  1.
         -5    1    3    3    0  502 -0.29727647223E+02  0.26931070506E+02 -0.22677090610E+02  0.46268114361E+02  0.41800000000E+01 0.  1.
        -11    1    4    4    0    0  0.52826778887E+02  0.48891428743E+02 -0.19261962292E+03  0.20562917960E+03  0.00000000000E+00 0. -1.
         11    1    4    4    0    0  0.30910159646E+02 -0.24022838471E+02 -0.21695506071E+02  0.44757454365E+02  0.00000000000E+00 0.  1.
</event>
<event>
 8    1  0.6945825E-009  0.1114638E+03  0.7561462E-02  0.1257883E+00
         -2   -1    0    0    0  501 -0.00000000000E+00  0.00000000000E+00  0.15151630662E+03  0.15151630662E+03  0.00000000000E+00 0.  1.
          2   -1    0    0  501    0  0.00000000000E+00 -0.00000000000E+00 -0.13446778690E+03  0.13446778690E+03  0.00000000000E+00 0. -1.
         25    2    1    2    0    0 -0.16773404424E+02  0.42090806584E+02 -0.70789903603E+02  0.15070746569E+03  0.12509415121E+03 0.  0.
         23    2    1    2    0    0  0.16773404424E+02 -0.42090806584E+02  0.87838423321E+02  0.13527662783E+03  0.92364464660E+02 0.  0.
          5    1    3    3  502    0 -0.27826944211E+02 -0.40260902722E+02 -0.34010085294E+02  0.59744768924E+02  0.41800000000E+01 0. -1.
         -5    1    3    3    0  502  0.11053539787E+02  0.82351709306E+02 -0.36779818309E+02  0.90962696762E+02  0.41800000000E+01 0. -1.
        -11    1    4    4    0    0 -0.30803186555E+02 -0.72552658438E+01  0.27664456592E+01  0.31766781486E+02  0.00000000000E+00 0. -1.
         11    1    4    4    0    0  0.47576590979E+02 -0.34835540740E+02  0.85071977662E+02  0.10350984635E+03  0.00000000000E+00 0.  1.
</event>
<event>
 8    1  0.6945825E-009  0.1508915E+03  0.7561462E-02  0.1199382E+00
         -1   -1    0    0    0  501 -0.00000000000E+00  0.00000000000E+00  0.10537885838E+03  0.10537885838E+03  0.00000000000E+00 0.  1.
          1   -1    0    0  501    0  0.00000000000E+00 -0.00000000000E+00 -0.30106834757E+03  0.30106834757E+03  0.00000000000E+00 0. -1.
         25    2    1    2    0    0  0.80757503586E+02  0.11472970798E+03 -0.12489826244E+03  0.22567957739E+03  0.12508803065E+03 0.  0.
         23    2    1    2    0    0 -0.80757503586E+02 -0.11472970798E+03 -0.70791226744E+02  0.18076762857E+03  0.89335645046E+02 0.  0.
          5    1    3    3  502    0  0.71892985398E+02  0.10672628399E+03 -0.32996774607E+02  0.13291110028E+03  0.41800000000E+01 0. -1.
         -5    1    3    3    0  502  0.88645181883E+01  0.80034239871E+01 -0.91901487835E+02  0.92768477106E+02  0.41800000000E+01 0. -1.
        -11    1    4    4    0    0  0.15254547157E+02 -0.22948696470E+02  0.47541140572E+01  0.27963288059E+02  0.00000000000E+00 0.  1.
         11    1    4    4    0    0 -0.96012050743E+02 -0.91781011507E+02 -0.75545340801E+02  0.15280434051E+03  0.00000000000E+00 0. -1.
</event>
<event>
 8    1  0.6945825E-009  0.1585426E+03  0.7561462E-02  0.1190352E+00
          1   -1    0    0  501    0  0.00000000000E+00  0.00000000000E+00  0.65507255842E+03  0.65507255842E+03  0.00000000000E+00 0. -1.
         -1   -1    0    0    0  501 -0.00000000000E+00 -0.00000000000E+00 -0.64970675684E+02  0.64970675684E+02  0.00000000000E+00 0.  1.
         25    2    1    2    0    0 -0.12406632317E+03  0.13890798950E+02  0.52628453605E+03  0.55516466518E+03  0.12508791206E+03 0.  0.
         23    2    1    2    0    0  0.12406632317E+03 -0.13890798950E+02  0.63817346689E+02  0.16487856892E+03  0.86757604351E+02 0.  0.
          5    1    3    3  502    0  0.56889434272E+01  0.36193023870E+02  0.19862048392E+03  0.20201452445E+03  0.41800000000E+01 0. -1.
         -5    1    3    3    0  502 -0.12975526659E+03 -0.22302224920E+02  0.32766405213E+03  0.35315014073E+03  0.41800000000E+01 0. -1.
        -11    1    4    4    0    0  0.82162821313E+02 -0.47379068423E+02  0.57383684664E+02  0.11085302250E+03  0.00000000000E+00 0.  1.
         11    1    4    4    0    0  0.41903501853E+02  0.33488269473E+02  0.64336620242E+01  0.54025546428E+02  0.00000000000E+00 0. -1.
</event>
<event>
 8    1  0.6945825E-009  0.1033838E+03  0.7561462E-02  0.1273337E+00
          1   -1    0    0  501    0  0.00000000000E+00  0.00000000000E+00  0.14829982656E+03  0.14829982656E+03  0.00000000000E+00 0. -1.
         -1   -1    0    0    0  501 -0.00000000000E+00 -0.00000000000E+00 -0.95302090942E+02  0.95302090942E+02  0.00000000000E+00 0.  1.
         25    2    1    2    0    0 -0.26777762972E+01  0.42352181759E+02  0.58626335100E+02  0.14451982182E+03  0.12509218180E+03 0.  0.
         23    2    1    2    0    0  0.26777762972E+01 -0.42352181759E+02 -0.56285994843E+01  0.99082095676E+02  0.89357164042E+02 0.  0.
          5    1    3    3  502    0 -0.60604770056E+02  0.38344187133E+02  0.19704233888E+02  0.74491234878E+02  0.41800000000E+01 0.  1.
         -5    1    3    3    0  502  0.57926993759E+02  0.40079946260E+01  0.38922101212E+02  0.70028586946E+02  0.41800000000E+01 0.  1.
        -11    1    4    4    0    0  0.32407007704E+02 -0.31132054549E+02  0.27894885111E+02  0.52891810181E+02  0.00000000000E+00 0. -1.
         11    1    4    4    0    0 -0.29729231407E+02 -0.11220127210E+02 -0.33523484596E+02  0.46190285495E+02  0.00000000000E+00 0.  1.
</event>
<event>
 8    1  0.6945825E-009  0.8636262E+02  0.7561462E-02  0.1311907E+00
         -1   -1    0    0    0  501 -0.00000000000E+00  0.00000000000E+00  0.76692237762E+02  0.76692237762E+02  0.00000000000E+00 0.  1.
          1   -1    0    0  501    0  0.00000000000E+00 -0.00000000000E+00 -0.16763178134E+03  0.16763178134E+03  0.00000000000E+00 0. -1.
         25    2    1    2    0    0 -0.29323810190E+02  0.39602758579E+00 -0.33815787393E+02  0.13285421365E+03  0.12508673761E+03 0.  0.
         23    2    1    2    0    0  0.29323810190E+02 -0.39602758579E+00 -0.57123756183E+02  0.11146980545E+03  0.91117239444E+02 0.  0.
          5    1    3    3  502    0  0.47396863281E+02  0.30898012838E+01 -0.29031306674E+02  0.55823818286E+02  0.41800000000E+01 0. -1.
         -5    1    3    3    0  502 -0.76720673471E+02 -0.26937736980E+01 -0.47844807189E+01  0.77030395366E+02  0.41800000000E+01 0. -1.
        -11    1    4    4    0    0  0.86780831392E+01 -0.18671779827E+02  0.20523930580E+02  0.29071914545E+02  0.00000000000E+00 0.  1.
         11    1    4    4    0    0  0.20645727050E+02  0.18275752241E+02 -0.77647686763E+02  0.82397890902E+02  0.00000000000E+00 0. -1.
</event>
<event>
 8    1  0.6945825E-009  0.1384350E+03  0.7561462E-02  0.1215450E+00
          1   -1    0    0  501    0  0.00000000000E+00  0.00000000000E+00  0.17748390558E+03  0.17748390558E+03  0.00000000000E+00 0. -1.
         -1   -1    0    0    0  501 -0.00000000000E+00 -0.00000000000E+00 -0.14526950991E+03  0.14526950991E+03  0.00000000000E+00 0.  1.
         25    2    1    2    0    0  0.11834407692E+03 -0.65067336568E+01  0.24663191027E+02  0.17408034464E+03  0.12509210716E+03 0.  0.
         23    2    1    2    0    0 -0.11834407692E+03  0.65067336568E+01  0.75512046450E+01  0.14867307086E+03  0.89437146544E+02 0.  0.
          5    1    3    3  502    0  0.94275056788E+01 -0.41925946375E+02 -0.24195596535E+02  0.49493051375E+02  0.41800000000E+01 0.  1.
         -5    1    3    3    0  502  0.10891657124E+03  0.35419212718E+02  0.48858787563E+02  0.12458729326E+03  0.41800000000E+01 0.  1.
        -11    1    4    4    0    0 -0.97417903221E+02  0.97759860512E+01  0.43352459639E+02  0.10707592413E+03  0.00000000000E+00 0. -1.
         11    1    4    4    0    0 -0.20926173698E+02 -0.32692523944E+01 -0.35801254994E+02  0.41597146729E+02  0.00000000000E+00 0.  1.
</event>
<event>
 8    1  0.6945825E-009  0.1078802E+03  0.7561462E-02  0.1264547E+00
         -1   -1    0    0    0  501 -0.00000000000E+00  0.00000000000E+00  0.48797410934E+02  0.48797410934E+02  0.00000000000E+00 0.  1.
          1   -1    0    0  501    0  0.00000000000E+00 -0.00000000000E+00 -0.24983930482E+03  0.24983930482E+03  0.00000000000E+00 0. -1.
         25    2    1    2    0    0 -0.65632067883E+01 -0.13394907971E+02 -0.91817279861E+02  0.15587526280E+03  0.12507671817E+03 0.  0.
         23    2    1    2    0    0  0.65632067883E+01  0.13394907971E+02 -0.10922461402E+03  0.14276145295E+03  0.90710070543E+02 0.  0.
          5    1    3    3  502    0 -0.62041589536E+02 -0.28283914286E+02 -0.52149010517E+02  0.85942599085E+02  0.41800000000E+01 0.  1.
         -5    1    3    3    0  502  0.55478382748E+02  0.14889006315E+02 -0.39668269344E+02  0.69932663714E+02  0.41800000000E+01 0.  1.
        -11    1    4    4    0    0 -0.89807496175E+01  0.49624678040E+02 -0.46035239046E+02  0.68282543657E+02  0.00000000000E+00 0.  1.
         11    1    4    4    0    0  0.15543956406E+02 -0.36229770069E+02 -0.63189374975E+02  0.74478909295E+02  0.00000000000E+00 0. -1.
</event>
<event>
 8    1  0.6945825E-009  0.1012143E+03  0.7561462E-02  0.1277763E+00
         -1   -1    0    0    0  501 -0.00000000000E+00  0.00000000000E+00  0.27672302278E+02  0.27672302278E+02  0.00000000000E+00 0.  1.
          1   -1    0    0  501    0  0.00000000000E+00 -0.00000000000E+00 -0.72835513127E+03  0.72835513127E+03  0.00000000000E+00 0. -1.
         25    2    1    2    0    0 -0.52057703289E+02  0.69945612135E+02 -0.45047346898E+03  0.47558067996E+03  0.12509294052E+03 0.  0.
         23    2    1    2    0    0  0.52057703289E+02 -0.69945612135E+02 -0.25020936001E+03  0.28044675358E+03  0.91887238675E+02 0.  0.
          5    1    3    3  502    0 -0.26103360682E+02  0.48145787129E+02 -0.43435923358E+03  0.43781824819E+03  0.41800000000E+01 0.  1.
         -5    1    3    3    0  502 -0.25954342607E+02  0.21799825006E+02 -0.16114235403E+02  0.37762431768E+02  0.41800000000E+01 0.  1.
        -11    1    4    4    0    0  0.41255124231E+02  0.13151335301E+01 -0.37170562829E+02  0.55546067300E+02  0.00000000000E+00 0.  1.
         11    1    4    4    0    0  0.10802579058E+02 -0.71260745665E+02 -0.21303879718E+03  0.22490068628E+03  0.00000000000E+00 0. -1.
</event>
<event>
 8    1  0.6945825E-009  0.1712902E+03  0.7561462E-02  0.1176509E+00
          1   -1    0    0  501    0  0.00000000000E+00  0.00000000000E+00  0.53693603556E+03  0.53693603556E+03  0.00000000000E+00 0. -1.
         -1   -1    0    0    0  501 -0.00000000000E+00 -0.00000000000E+00 -0.56632791415E+02  0.56632791415E+02  0.00000000000E+00 0.  1.
         25    2    1    2    0    0 -0.10137989067E+03 -0.88079889164E+02  0.27981042719E+03  0.33462658481E+03  0.12508048206E+03 0.  0.
         23    2    1    2    0    0  0.10137989067E+03  0.88079889164E+02  0.20049281696E+03  0.25894224216E+03  0.93902960641E+02 0.  0.
          5    1    3    3  502    0 -0.65857520224E+02 -0.11714771379E+03  0.23248965494E+03  0.26856975234E+03  0.41800000000E+01 0.  1.
         -5    1    3    3    0  502 -0.35522370446E+02  0.29067824626E+02  0.47320772246E+02  0.66056832475E+02  0.41800000000E+01 0.  1.
        -11    1    4    4    0    0  0.71959624678E+02  0.30107845275E+01  0.10857220571E+03  0.13028881863E+03  0.00000000000E+00 0.  1.
         11    1    4    4    0    0  0.29420265993E+02  0.85069104637E+02  0.91920611253E+02  0.12865342354E+03  0.00000000000E+00 0. -1.
</event>
<event>
 8    1  0.6945825E-009  0.1369234E+03  0.7561462E-02  0.1217530E+00
         -2   -1    0    0    0  501 -0.00000000000E+00  0.00000000000E+00  0.50853338859E+02  0.50853338859E+02  0.00000000000E+00 0.  1.
          2   -1    0    0  501    0  0.00000000000E+00 -0.00000000000E+00 -0.57308183097E+03  0.57308183097E+03  0.00000000000E+00 0. -1.
         25    2    1    2    0    0  0.12166589780E+03 -0.23273057610E+02 -0.20267563501E+03  0.26845711548E+03  0.12509030309E+03 0.  0.
         23    2    1    2    0    0 -0.12166589780E+03  0.23273057610E+02 -0.31955285710E+03  0.35547805435E+03  0.94373686714E+02 0.  0.
          5    1    3    3  502    0  0.67105830279E+02  0.27700343297E+02 -0.27074581290E+02  0.77595146937E+02  0.41800000000E+01 0. -1.
         -5    1    3    3    0  502  0.54560067524E+02 -0.50973400908E+02 -0.17560105372E+03  0.19086196854E+03  0.41800000000E+01 0. -1.
        -11    1    4    4    0    0 -0.43685422123E+02  0.20650546589E+02 -0.23704668309E+03  0.24192145656E+03  0.00000000000E+00 0. -1.
         11    1    4    4    0    0 -0.77980475680E+02  0.26225110215E+01 -0.82506174009E+02  0.11355659779E+03  0.00000000000E+00 0.  1.
</event>
<event>
 8    1  0.6945825E-009  0.1257714E+03  0.7561462E-02  0.1233869E+00
          2   -1    0    0  501    0  0.00000000000E+00  0.00000000000E+00  0.64171166645E+02  0.64171166645E+02  0.00000000000E+00 0. -1.
         -2   -1    0    0    0  501 -0.00000000000E+00 -0.00000000000E+00 -0.25735021753E+03  0.25735021753E+03  0.00000000000E+00 0.  1.
         25    2    1    2    0    0  0.24232115597E+02 -0.63052790707E+02 -0.89938754890E+02  0.16822590554E+03  0.12509246908E+03 0.  0.
         23    2    1    2    0    0 -0.24232115597E+02  0.63052790707E+02 -0.10324029600E+03  0.15329547864E+03  0.90984038225E+02 0.  0.
          5    1    3    3  502    0  0.26063324519E+02  0.33158526223E+02 -0.11249886759E+02  0.43849938408E+02  0.41800000000E+01 0. -1.
         -5    1    3    3    0  502 -0.18312089228E+01 -0.96211316930E+02 -0.78688868131E+02  0.12437596713E+03  0.41800000000E+01 0. -1.
        -11    1    4    4    0    0 -0.58400004055E+02  0.47599911557E+02 -0.62165222835E+02  0.97677156920E+02  0.00000000000E+00 0.  1.
         11    1    4    4    0    0  0.34167888458E+02  0.15452879150E+02 -0.41075073162E+02  0.55618321720E+02  0.00000000000E+00 0. -1.
</event>
<event>
 8    1  0.6945825E-009  0.9457847E+02  0.7561462E-02  0.1292128E+00
         -3   -1    0    0    0  501 -0.00000000000E+00  0.00000000000E+00  0.84195947568E+02  0.84195947568E+02  0.00000000000E+00 0.  1.
          3   -1    0    0  501    0  0.00000000000E+00 -0.00000000000E+00 -0.21953572373E+03  0.21953572373E+03  0.00000000000E+00 0. -1.
         25    2    1    2    0    0  0.57024797935E+02  0.35328747803E+02 -0.12564596078E+03  0.18956465614E+03  0.12509158003E+03 0.  0.
         23    2    1    2    0    0 -0.57024797935E+02 -0.35328747803E+02 -0.96938153767E+01  0.11416701516E+03  0.91870502841E+02 0.  0.
          5    1    3    3  502    0  0.11877138275E+02  0.26773205861E+02 -0.13853364269E+03  0.14165773372E+03  0.41800000000E+01 0.  1.
         -5    1    3    3    0  502  0.45147659660E+02  0.85555419413E+01  0.12887681908E+02  0.47906922418E+02  0.41800000000E+01 0.  1.
        -11    1    4    4    0    0  0.25362975048E+02 -0.70603077456E+01 -0.59089735286E+01  0.26982298214E+02  0.00000000000E+00 0.  1.
         11    1    4    4    0    0 -0.82387772983E+02 -0.28268440057E+02 -0.37848418480E+01  0.87184716942E+02  0.00000000000E+00 0. -1.
</event>
<event>
 8    1  0.6945825E-009  0.1220253E+03  0.7561462E-02  0.1239793E+00
         -2   -1    0    0    0  501 -0.00000000000E+00  0.00000000000E+00  0.60821369779E+02  0.60821369779E+02  0.00000000000E+00 0.  1.
          2   -1    0    0  501    0  0.00000000000E+00 -0.00000000000E+00 -0.28232950414E+03  0.28232950414E+03  0.00000000000E+00 0. -1.
         25    2    1    2    0    0  0.62879972929E+02 -0.10361001589E+02 -0.17221096424E+03  0.22218178656E+03  0.12508752426E+03 0.  0.
         23    2    1    2    0    0 -0.62879972929E+02  0.10361001589E+02 -0.49297170127E+02  0.12096908736E+03  0.90233407145E+02 0.  0.
          5    1    3    3  502    0 -0.36940005709E+02 -0.63882455456E+01 -0.29286510864E+02  0.47755060690E+02  0.41800000000E+01 0.  1.
         -5    1    3    3    0  502  0.99819978638E+02 -0.39727560435E+01 -0.14292445337E+03  0.17442672587E+03  0.41800000000E+01 0.  1.
        -11    1    4    4    0    0 -0.13943855928E+02 -0.36202004502E+02 -0.26622911804E+01  0.38885782008E+02  0.00000000000E+00 0.  1.
         11    1    4    4    0    0 -0.48936117002E+02  0.46563006091E+02 -0.46634878946E+02  0.82083305353E+02  0.00000000000E+00 0. -1.
</event>
<event>
 8    1  0.6945825E-009  0.1244857E+03  0.7561462E-02  0.1235875E+00
         -2   -1    0    0    0  501 -0.00000000000E+00  0.00000000000E+00  0.53010808075E+02  0.53010808075E+02  0.00000000000E+00 0.  1.
          2   -1    0    0  501    0  0.00000000000E+00 -0.00000000000E+00 -0.62657230702E+03  0.62657230702E+03  0.00000000000E+00 0. -1.
         25    2    1    2    0    0  0.85870950756E+02 -0.12085527973E+02 -0.79312710009E+02  0.17163325867E+03  0.12509032474E+03 0.  0.
         23    2    1    2    0    0 -0.85870950756E+02  0.12085527973E+02 -0.49424878894E+03  0.50794985643E+03  0.78811871608E+02 0.  0.
          5    1    3    3  502    0  0.39777818686E+02 -0.62372207432E+02 -0.10829023686E+02  0.74881955593E+02  0.41800000000E+01 0. -1.
         -5    1    3    3    0  502  0.46093132070E+02  0.50286679459E+02 -0.68483686323E+02  0.96751303079E+02  0.41800000000E+01 0. -1.
        -11    1    4    4    0    0 -0.22141891256E+02  0.32754547967E+02 -0.91642040258E+02  0.99806749790E+02  0.00000000000E+00 0.  1.
         11    1    4    4    0    0 -0.63729059499E+02 -0.20669019993E+02 -0.40260674868E+03  0.40814310664E+03  0.00000000000E+00 0. -1.
</event>
<event>
 8    1  0.6945825E-009  0.1457605E+03  0.7561462E-02  0.1205781E+00
         -1   -1    0    0    0  501 -0.00000000000E+00  0.00000000000E+00  0.31704151580E+02  0.31704151580E+02  0.00000000000E+00 0.  1.
          1   -1    0    0  501    0  0.00000000000E+00 -0.00000000000E+00 -0.12920701040E+04  0.12920701040E+04  0.00000000000E+00 0. -1.
         25    2    1    2    0    0  0.13755055148E+03 -0.12130337981E+02 -0.98381351291E+03  0.10013008027E+04  0.12508784896E+03 0.  0.
         23    2    1    2    0    0 -0.13755055148E+03  0.12130337981E+02 -0.27655243949E+03  0.32247345288E+03  0.91872611311E+02 0.  0.
          5    1    3    3  502    0  0.28643333031E+02  0.11593198444E+02 -0.39032591773E+02  0.49958566811E+02  0.41800000000E+01 0. -1.
         -5    1    3    3    0  502  0.10890721845E+03 -0.23723536425E+02 -0.94478092114E+03  0.95134223587E+03  0.41800000000E+01 0. -1.
        -11    1    4    4    0    0 -0.67507075013E+02  0.33779401063E+02 -0.68691489212E+02  0.10206259747E+03  0.00000000000E+00 0.  1.
         11    1    4    4    0    0 -0.70043476471E+02 -0.21649063082E+02 -0.20786095028E+03  0.22041085541E+03  0.00000000000E+00 0. -1.
</event>
<event>
 8    1  0.6945825E-009  0.8384086E+02  0.7561462E-02  0.1318492E+00
          1   -1    0    0  501    0  0.00000000000E+00  0.00000000000E+00  0.90357373537E+02  0.90357373537E+02  0.00000000000E+00 0. -1.
         -1   -1    0    0    0  501 -0.00000000000E+00 -0.00000000000E+00 -0.14877716036E+03  0.14877716036E+03  0.00000000000E+00 0.  1.
         25    2    1    2    0    0  0.25647074138E+02 -0.52169144839E+00 -0.78244850130E+01  0.12793253246E+03  0.12508983061E+03 0.  0.
         23    2    1    2    0    0 -0.25647074138E+02  0.52169144839E+00 -0.50595301812E+02  0.11120200143E+03  0.95644947508E+02 0.  0.
          5    1    3    3  502    0 -0.63946976394E+01 -0.29500158845E+02 -0.55588584351E+02  0.63393332772E+02  0.41800000000E+01 0.  1.
         -5    1    3    3    0  502  0.32041771777E+02  0.28978467396E+02  0.47764099339E+02  0.64539199692E+02  0.41800000000E+01 0.  1.
        -11    1    4    4    0    0  0.13993803260E+02 -0.36792680081E+02 -0.39256717421E+02  0.55593324238E+02  0.00000000000E+00 0.  1.
         11    1    4    4    0    0 -0.39640877398E+02  0.37314371530E+02 -0.11338584391E+02  0.55608677196E+02  0.00000000000E+00 0. -1.
</event>
<event>
 8    1  0.6945825E-009  0.2353198E+03  0.7561462E-02  0.1122950E+00
          1   -1    0    0  501    0  0.00000000000E+00  0.00000000000E+00  0.62618741151E+03  0.62618741151E+03  0.00000000000E+00 0. -1.
         -1   -1    0    0    0  501 -0.00000000000E+00 -0.00000000000E+00 -0.10003573779E+03  0.10003573779E+03  0.00000000000E+00 0.  1.
         25    2    1    2    0    0  0.19608293171E+03  0.10988052442E+03  0.28387937117E+03  0.38308812353E+03  0.12508703875E+03 0.  0.
         23    2    1    2    0    0 -0.19608293171E+03 -0.10988052442E+03  0.24227230255E+03  0.34313502577E+03  0.92322974235E+02 0.  0.
          5    1    3    3  502    0  0.55794300390E+02  0.95820995290E+01  0.74546728555E+01  0.57252643037E+02  0.41800000000E+01 0. -1.
         -5    1    3    3    0  502  0.14028863132E+03  0.10029842489E+03  0.27642469831E+03  0.32583548050E+03  0.41800000000E+01 0. -1.
        -11    1    4    4    0    0 -0.19357416779E+03 -0.76894437734E+02  0.19417239650E+03  0.28475714662E+03  0.00000000000E+00 0.  1.
         11    1    4    4    0    0 -0.25087639163E+01 -0.32986086685E+02  0.48099906057E+02  0.58377879149E+02  0.00000000000E+00 0. -1.
</event>
<event>
 8    1  0.6945825E-009  0.1322290E+03  0.7561462E-02  0.1224185E+00
         -2   -1    0    0    0  501 -0.00000000000E+00  0.00000000000E+00  0.46805360507E+03  0.46805360507E+03  0.00000000000E+00 0.  1.
          2   -1    0    0  501    0  0.00000000000E+00 -0.00000000000E+00 -0.54294528001E+02  0.54294528001E+02  0.00000000000E+00 0. -1.
         25    2    1    2    0    0 -0.27643838071E+02 -0.11175623278E+03  0.25104892900E+03  0.30319421424E+03  0.12509008532E+03 0.  0.
         23    2    1    2    0    0  0.27643838071E+02  0.11175623278E+03  0.16271014807E+03  0.21915391884E+03  0.91105491099E+02 0.  0.
          5    1    3    3  502    0 -0.36416324614E+02 -0.23570715057E+02  0.78015603216E+01  0.44272610609E+02  0.41800000000E+01 0.  1.
         -5    1    3    3    0  502  0.87724865425E+01 -0.88185517721E+02  0.24324736868E+03  0.25892160363E+03  0.41800000000E+01 0.  1.
        -11    1    4    4    0    0  0.11132120646E+02  0.11482597816E+03  0.95159627328E+02  0.14954692923E+03  0.00000000000E+00 0. -1.
         11    1    4    4    0    0  0.16511717425E+02 -0.30697453794E+01  0.67550520744E+02  0.69606989605E+02  0.00000000000E+00 0.  1.
</event>
<event>
 8    1  0.6945825E-009  0.1169498E+03  0.7561462E-02  0.1248215E+00
          1   -1    0    0  501    0  0.00000000000E+00  0.00000000000E+00  0.58001413440E+03  0.58001413440E+03  0.00000000000E+00 0. -1.
         -1   -1    0    0    0  501 -0.00000000000E+00 -0.00000000000E+00 -0.33708793702E+02  0.33708793702E+02  0.00000000000E+00 0.  1.
         25    2    1    2    0    0  0.25156160436E+02  0.83762473120E+02  0.30187057186E+03  0.33826345202E+03  0.12508931410E+03 0.  0.
         23    2    1    2    0    0 -0.25156160436E+02 -0.83762473120E+02  0.24443476883E+03  0.27545947608E+03  0.92090077849E+02 0.  0.
          5    1    3    3  502    0  0.36165801941E+02 -0.37329681641E+01  0.20061119020E+03  0.20392209865E+03  0.41800000000E+01 0.  1.
         -5    1    3    3    0  502 -0.11009641504E+02  0.87495441284E+02  0.10125938166E+03  0.13434135337E+03  0.41800000000E+01 0.  1.
        -11    1    4    4    0    0 -0.36300418199E+02 -0.14867094715E+02  0.16554781243E+03  0.17013179911E+03  0.00000000000E+00 0. -1.
         11    1    4    4    0    0  0.11144257762E+02 -0.68895378405E+02  0.78886956399E+02  0.10532767697E+03  0.00000000000E+00 0.  1.
</event>
<event>
 8    1  0.6945825E-009  0.8047936E+02  0.7561462E-02  0.1327697E+00
          1   -1    0    0  501    0  0.00000000000E+00  0.00000000000E+00  0.17328298841E+04  0.17328298841E+04  0.00000000000E+00 0. -1.
         -1   -1    0    0    0  501 -0.00000000000E+00 -0.00000000000E+00 -0.80601985024E+01  0.80601985024E+01  0.00000000000E+00 0.  1.
         25    2    1    2    0    0 -0.23241048899E+02 -0.91188929062E+00  0.12811357010E+04  0.12874382212E+04  0.12509001228E+03 0.  0.
         23    2    1    2    0    0  0.23241048899E+02  0.91188929062E+00  0.44363398460E+03  0.45345186139E+03  0.90920297019E+02 0.  0.
          5    1    3    3  502    0  0.31725107720E+01 -0.28465507753E+02  0.11600332798E+04  0.11603943436E+04  0.41800000000E+01 0.  1.
         -5    1    3    3    0  502 -0.26413559671E+02  0.27553618463E+02  0.12110242116E+03  0.12704387760E+03  0.41800000000E+01 0.  1.
        -11    1    4    4    0    0 -0.34209369625E+02  0.95565456241E+01  0.18404408363E+03  0.18744021248E+03  0.00000000000E+00 0. -1.
         11    1    4    4    0    0  0.57450418523E+02 -0.86446563335E+01  0.25958990097E+03  0.26601164892E+03  0.00000000000E+00 0.  1.
</event>
<event>
 8    1  0.6945825E-009  0.9392699E+02  0.7561462E-02  0.1293611E+00
         -3   -1    0    0    0  501 -0.00000000000E+00  0.00000000000E+00  0.16933755338E+03  0.16933755338E+03  0.00000000000E+00 0.  1.
          3   -1    0    0  501    0  0.00000000000E+00 -0.00000000000E+00 -0.90399377827E+02  0.90399377827E+02  0.00000000000E+00 0. -1.
         25    2    1    2    0    0 -0.51939726244E+01 -0.51028450287E+02  0.63381669812E+02  0.14931705270E+03  0.12508983200E+03 0.  0.
         23    2    1    2    0    0  0.51939726244E+01  0.51028450287E+02  0.15556505737E+02  0.11041987850E+03  0.96538410010E+02 0.  0.
          5    1    3    3  502    0  0.26689260277E+02 -0.32590188988E+02  0.92797234288E+02  0.10199625544E+03  0.41800000000E+01 0.  1.
         -5    1    3    3    0  502 -0.31883232901E+02 -0.18438261298E+02 -0.29415564476E+02  0.47320797261E+02  0.41800000000E+01 0.  1.
        -11    1    4    4    0    0 -0.39530827570E+02  0.49973626130E+02  0.23005434933E+01  0.63760035581E+02  0.00000000000E+00 0. -1.
         11    1    4    4    0    0  0.44724800194E+02  0.10548241568E+01  0.13255962244E+02  0.46659842921E+02  0.00000000000E+00 0.  1.
</event>
<event>
 8    1  0.6945825E-009  0.1453291E+03  0.7561462E-02  0.1206333E+00
         -2   -1    0    0    0  501 -0.00000000000E+00  0.00000000000E+00  0.19842928825E+02  0.19842928825E+02  0.00000000000E+00 0.  1.
          2   -1    0    0  501    0  0.00000000000E+00 -0.00000000000E+00 -0.19181016831E+04  0.19181016831E+04  0.00000000000E+00 0. -1.
         25    2    1    2    0    0 -0.24180344350E+02 -0.11162865381E+03 -0.15639813474E+04  0.15731276933E+04  0.12508972335E+03 0.  0.
         23    2    1    2    0    0  0.24180344350E+02  0.11162865381E+03 -0.33427740689E+03  0.36481691868E+03  0.91128228296E+02 0.  0.
          5    1    3    3  502    0 -0.63680380477E+02 -0.56906887212E+02 -0.52217332001E+03  0.52912761523E+03  0.41800000000E+01 0. -1.
         -5    1    3    3    0  502  0.39500036127E+02 -0.54721766599E+02 -0.10418080274E+04  0.10440000780E+04  0.41800000000E+01 0. -1.
        -11    1    4    4    0    0  0.51535248809E+02  0.84724876550E+02 -0.28860563718E+03  0.30516782332E+03  0.00000000000E+00 0. -1.
         11    1    4    4    0    0 -0.27354904459E+02  0.26903777261E+02 -0.45671769708E+02  0.59649095359E+02  0.00000000000E+00 0.  1.
</event>
<event>
 8    1  0.6945825E-009  0.9541386E+02  0.7561462E-02  0.1290247E+00
         -2   -1    0    0    0  501 -0.00000000000E+00  0.00000000000E+00  0.16886377397E+03  0.16886377397E+03  0.00000000000E+00 0.  1.
          2   -1    0    0  501    0  0.00000000000E+00 -0.00000000000E+00 -0.94635473855E+02  0.94635473855E+02  0.00000000000E+00 0. -1.
         25    2    1    2    0    0  0.28648914308E+02  0.59850688659E+01 -0.13319963256E+02  0.12915634533E+03  0.12508940313E+03 0.  0.
         23    2    1    2    0    0 -0.28648914308E+02 -0.59850688659E+01  0.87548263374E+02  0.13434290250E+03  0.97604998297E+02 0.  0.
          5    1    3    3  502    0  0.60552327529E+02  0.46497307060E+02 -0.12067006336E+02  0.77405871708E+02  0.41800000000E+01 0.  1.
         -5    1    3    3    0  502 -0.31903413221E+02 -0.40512238194E+02 -0.12529569206E+01  0.51750473618E+02  0.41800000000E+01 0.  1.
        -11    1    4    4    0    0 -0.40046556002E+02 -0.19840455156E+02  0.10196361691E+03  0.11132811632E+03  0.00000000000E+00 0.  1.
         11    1    4    4    0    0  0.11397641694E+02  0.13855386290E+02 -0.14415353541E+02  0.23014786185E+02  0.00000000000E+00 0. -1.
</event>
<event>
 8    1  0.6945825E-009  0.4246894E+03  0.7561462E-02  0.1035551E+00
         -2   -1    0    0    0  501 -0.00000000000E+00  0.00000000000E+00  0.59240525091E+03  0.59240525091E+03  0.00000000000E+00 0.  1.
          2   -1    0    0  501    0  0.00000000000E+00 -0.00000000000E+00 -0.43182964307E+03  0.43182964307E+03  0.00000000000E+00 0. -1.
         25    2    1    2    0    0  0.34089033105E+03  0.22893146375E+03  0.35878198006E+03  0.55945524487E+03  0.12509927615E+03 0.  0.
         23    2    1    2    0    0 -0.34089033105E+03 -0.22893146375E+03 -0.19820637222E+03  0.46477964911E+03  0.90102848688E+02 0.  0.
          5    1    3    3  502    0  0.14612645990E+03  0.27073464687E+02  0.11985605143E+03  0.19096821787E+03  0.41800000000E+01 0. -1.
         -5    1    3    3    0  502  0.19476387115E+03  0.20185799906E+03  0.23892592863E+03  0.36848702700E+03  0.41800000000E+01 0. -1.
        -11    1    4    4    0    0 -0.24616868390E+03 -0.21002067024E+03 -0.14624123956E+03  0.35509745565E+03  0.00000000000E+00 0. -1.
         11    1    4    4    0    0 -0.94721647148E+02 -0.18910793507E+02 -0.51965132664E+02  0.10968219346E+03  0.00000000000E+00 0.  1.
</event>
<event>
 8    1  0.6945825E-009  0.6610352E+02  0.7561462E-02  0.1373868E+00
         -2   -1    0    0    0  501 -0.00000000000E+00  0.00000000000E+00  0.76976531777E+02  0.76976531777E+02  0.00000000000E+00 0.  1.
          2   -1    0    0  501    0  0.00000000000E+00 -0.00000000000E+00 -0.21142730377E+03  0.21142730377E+03  0.00000000000E+00 0. -1.
         25    2    1    2    0    0 -0.17437386231E+02  0.47961055763E+02 -0.28605239928E+02  0.13809422280E+03  0.12508968508E+03 0.  0.
         23    2    1    2    0    0  0.17437386231E+02 -0.47961055763E+02 -0.10584553206E+03  0.15030961274E+03  0.93730345757E+02 0.  0.
          5    1    3    3  502    0 -0.27419793996E+02  0.54077367930E+02 -0.71264527036E+02  0.93660621601E+02  0.41800000000E+01 0.  1.
         -5    1    3    3    0  502  0.99824077643E+01 -0.61163121674E+01  0.42659287109E+02  0.44433601204E+02  0.41800000000E+01 0.  1.
        -11    1    4    4    0    0  0.15667029796E+02 -0.56536124101E+01  0.14904026575E+02  0.22350596503E+02  0.00000000000E+00 0.  1.
         11    1    4    4    0    0  0.17703564357E+01 -0.42307443353E+02 -0.12074955864E+03  0.12795901624E+03  0.00000000000E+00 0. -1.
</event>
<event>
 8    1  0.6945825E-009  0.8466606E+02  0.7561462E-02  0.1316308E+00
         -2   -1    0    0    0  501 -0.00000000000E+00  0.00000000000E+00  0.46591652177E+02  0.46591652177E+02  0.00000000000E+00 0.  1.
          2   -1    0    0  501    0  0.00000000000E+00 -0.00000000000E+00 -0.31286137257E+03  0.31286137257E+03  0.00000000000E+00 0. -1.
         25    2    1    2    0    0 -0.18834483240E+01 -0.46331878402E+02 -0.15269996442E+03  0.20276711472E+03  0.12508810233E+03 0.  0.
         23    2    1    2    0    0  0.18834483240E+01  0.46331878402E+02 -0.11356975598E+03  0.15668591004E+03  0.97479200838E+02 0.  0.
          5    1    3    3  502    0 -0.29202420519E+02 -0.70003626689E+02 -0.14762800052E+03  0.16602646793E+03  0.41800000000E+01 0.  1.
         -5    1    3    3    0  502  0.27318972194E+02  0.23671748288E+02 -0.50719638925E+01  0.36740646789E+02  0.41800000000E+01 0.  1.
        -11    1    4    4    0    0  0.17454578197E+02  0.21886270492E+02 -0.12304773184E+03  0.12619197854E+03  0.00000000000E+00 0. -1.
         11    1    4    4    0    0 -0.15571129873E+02  0.24445607910E+02  0.94779758613E+01  0.30493931495E+02  0.00000000000E+00 0.  1.
</event>
<event>
 8    1  0.6945825E-009  0.1524607E+03  0.7561462E-02  0.1197482E+00
          1   -1    0    0  501    0  0.00000000000E+00  0.00000000000E+00  0.57895152063E+03  0.57895152063E+03  0.00000000000E+00 0. -1.
         -1   -1    0    0    0  501 -0.00000000000E+00 -0.00000000000E+00 -0.91410854943E+02  0.91410854943E+02  0.00000000000E+00 0.  1.
         25    2    1    2    0    0 -0.48557209442E+00 -0.14227533288E+03  0.42369864396E+02  0.19412762340E+03  0.12509125721E+03 0.  0.
         23    2    1    2    0    0  0.48557209442E+00  0.14227533288E+03  0.44517080129E+03  0.47623475217E+03  0.91542289293E+02 0.  0.
          5    1    3    3  502    0 -0.17122085253E+02 -0.43296096587E+02 -0.42076527692E+02  0.62893754584E+02  0.41800000000E+01 0.  1.
         -5    1    3    3    0  502  0.16636513159E+02 -0.98979236294E+02  0.84446392088E+02  0.13123386881E+03  0.41800000000E+01 0.  1.
        -11    1    4    4    0    0  0.29950445155E+02  0.33099394647E+02  0.21742380395E+03  0.22195880161E+03  0.00000000000E+00 0. -1.
         11    1    4    4    0    0 -0.29464873060E+02  0.10917593823E+03  0.22774699734E+03  0.25427595056E+03  0.00000000000E+00 0.  1.
</event>
<event>
 8    1  0.6945825E-009  0.2745984E+03  0.7561462E-02  0.1098676E+00
          1   -1    0    0  501    0  0.00000000000E+00  0.00000000000E+00  0.21494662233E+03  0.21494662233E+03  0.00000000000E+00 0. -1.
         -1   -1    0    0    0  501 -0.00000000000E+00 -0.00000000000E+00 -0.38379230491E+03  0.38379230491E+03  0.00000000000E+00 0.  1.
         25    2    1    2    0    0 -0.26310866243E+03 -0.25374210008E+02 -0.61674154759E+02  0.29886648882E+03  0.12508979972E+03 0.  0.
         23    2    1    2    0    0  0.26310866243E+03  0.25374210008E+02 -0.10717152782E+03  0.29987243843E+03  0.92562001791E+02 0.  0.
          5    1    3    3  502    0 -0.25674145533E+02  0.28216160770E+02  0.18443564691E+02  0.42578761794E+02  0.41800000000E+01 0. -1.
         -5    1    3    3    0  502 -0.23743451690E+03 -0.53590370777E+02 -0.80117719449E+02  0.25628772702E+03  0.41800000000E+01 0. -1.
        -11    1    4    4    0    0  0.64281425197E+02  0.23792535023E+02 -0.69286561714E+02  0.97461859117E+02  0.00000000000E+00 0.  1.
         11    1    4    4    0    0  0.19882723723E+03  0.15816749844E+01 -0.37884966105E+02  0.20241057931E+03  0.00000000000E+00 0. -1.
</event>
<event>
 8    1  0.6945825E-009  0.9579522E+02  0.7561462E-02  0.1289395E+00
          4   -1    0    0  501    0  0.00000000000E+00  0.00000000000E+00  0.16971010529E+02  0.16971010529E+02  0.00000000000E+00 0. -1.
         -4   -1    0    0    0  501 -0.00000000000E+00 -0.00000000000E+00 -0.79566860247E+03  0.79566860247E+03  0.00000000000E+00 0.  1.
         25    2    1    2    0    0 -0.70498930749E+01 -0.74622885808E+01 -0.59039003178E+03  0.60358287505E+03  0.12508601315E+03 0.  0.
         23    2    1    2    0    0  0.70498930749E+01  0.74622885808E+01 -0.18830756017E+03  0.20905673796E+03  0.90219708075E+02 0.  0.
          5    1    3    3  502    0  0.25585507904E+02 -0.51470155642E+02 -0.16747787729E+03  0.17711608317E+03  0.41800000000E+01 0. -1.
         -5    1    3    3    0  502 -0.32635400979E+02  0.44007867061E+02 -0.42291215449E+03  0.42646679188E+03  0.41800000000E+01 0. -1.
        -11    1    4    4    0    0 -0.21632509159E+02  0.33761919183E+02 -0.43717869167E+02  0.59321873908E+02  0.00000000000E+00 0. -1.
         11    1    4    4    0    0  0.28682402234E+02 -0.26299630602E+02 -0.14458969100E+03  0.14973486405E+03  0.00000000000E+00 0.  1.
</event>
<event>
 8    1  0.6945825E-009  0.1163660E+03  0.7561462E-02  0.1249215E+00
          1   -1    0    0  501    0  0.00000000000E+00  0.00000000000E+00  0.51688348151E+03  0.51688348151E+03  0.00000000000E+00 0. -1.
         -1   -1    0    0    0  501 -0.00000000000E+00 -0.00000000000E+00 -0.30058245065E+02  0.30058245065E+02  0.00000000000E+00 0.  1.
         25    2    1    2    0    0  0.88029953409E+00  0.64698135637E+02  0.26977895231E+03  0.30432820305E+03  0.12509335866E+03 0.  0.
         23    2    1    2    0    0 -0.88029953409E+00 -0.64698135637E+02  0.21704628413E+03  0.24261352352E+03  0.86980507342E+02 0.  0.
          5    1    3    3  502    0  0.10445894575E+02 -0.35351057040E+02  0.46887331804E+02  0.59788863771E+02  0.41800000000E+01 0.  1.
         -5    1    3    3    0  502 -0.95655950407E+01  0.10004919268E+03  0.22289162051E+03  0.24453933928E+03  0.41800000000E+01 0.  1.
        -11    1    4    4    0    0  0.10677870841E+02 -0.77246491817E+02  0.21025660419E+03  0.22425181611E+03  0.00000000000E+00 0. -1.
         11    1    4    4    0    0 -0.11558170375E+02  0.12548356179E+02  0.67896799395E+01  0.18361707407E+02  0.00000000000E+00 0.  1.
</event>
<event>
 8    1  0.6945825E-009  0.1105294E+03  0.7561462E-02  0.1259593E+00
          1   -1    0    0  501    0  0.00000000000E+00  0.00000000000E+00  0.42877446592E+03  0.42877446592E+03  0.00000000000E+00 0. -1.
         -1   -1    0    0    0  501 -0.00000000000E+00 -0.00000000000E+00 -0.40432419278E+02  0.40432419278E+02  0.00000000000E+00 0.  1.
         25    2    1    2    0    0 -0.23874125174E+02 -0.34452172550E+02  0.10533025801E+03  0.16881556356E+03  0.12508918899E+03 0.  0.
         23    2    1    2    0    0  0.23874125174E+02  0.34452172550E+02  0.28301178863E+03  0.30039132164E+03  0.91555161309E+02 0.  0.
          5    1    3    3  502    0  0.30035758771E+02 -0.58490066442E+02  0.82047206079E+02  0.10522571503E+03  0.41800000000E+01 0.  1.
         -5    1    3    3    0  502 -0.53909883944E+02  0.24037893892E+02  0.23283051927E+02  0.63589848535E+02  0.41800000000E+01 0.  1.
        -11    1    4    4    0    0 -0.21103275465E+02  0.45088583945E+02  0.10099111887E+03  0.11259455905E+03  0.00000000000E+00 0.  1.
         11    1    4    4    0    0  0.44977400639E+02 -0.10636411395E+02  0.18202066977E+03  0.18779676259E+03  0.00000000000E+00 0. -1.
</event>
<event>
 8    1  0.6945825E-009  0.1552379E+03  0.7561462E-02  0.1194181E+00
         -1   -1    0    0    0  501 -0.00000000000E+00  0.00000000000E+00  0.25161695475E+03  0.25161695475E+03  0.00000000000E+00 0.  1.
          1   -1    0    0  501    0  0.00000000000E+00 -0.00000000000E+00 -0.27005283312E+03  0.27005283312E+03  0.00000000000E+00 0. -1.
         25    2    1    2    0    0 -0.11674556149E+03 -0.36537908756E+00 -0.21546940285E+03  0.27514294892E+03  0.12508764585E+03 0.  0.
         23    2    1    2    0    0  0.11674556149E+03  0.36537908756E+00  0.19703352448E+03  0.24652683894E+03  0.91233836484E+02 0.  0.
          5    1    3    3  502    0 -0.25401393718E+02  0.57420017535E+02 -0.80615479961E+02  0.10226738105E+03  0.41800000000E+01 0. -1.
         -5    1    3    3    0  502 -0.91344167775E+02 -0.57785396622E+02 -0.13485392289E+03  0.17287556788E+03  0.41800000000E+01 0. -1.
        -11    1    4    4    0    0  0.73969513301E+02 -0.36887663088E+02  0.73568728694E+02  0.11065507864E+03  0.00000000000E+00 0.  1.
         11    1    4    4    0    0  0.42776048192E+02  0.37253042176E+02  0.12346479579E+03  0.13587176031E+03  0.00000000000E+00 0. -1.
</event>
<event>
 8    1  0.6945825E-009  0.1112224E+03  0.7561462E-02  0.1258323E+00
          1   -1    0    0  501    0  0.00000000000E+00  0.00000000000E+00  0.80697674218E+03  0.80697674218E+03  0.00000000000E+00 0. -1.
         -1   -1    0    0    0  501 -0.00000000000E+00 -0.00000000000E+00 -0.17148267905E+02  0.17148267905E+02  0.00000000000E+00 0.  1.
         25    2    1    2    0    0  0.27913230360E+01 -0.33546429492E+02  0.36007000094E+03  0.38266316179E+03  0.12509010913E+03 0.  0.
         23    2    1    2    0    0 -0.27913230360E+01  0.33546429492E+02  0.42975847333E+03  0.44146184829E+03  0.95200124355E+02 0.  0.
          5    1    3    3  502    0 -0.14630313926E+02  0.45582456343E+02  0.12053207821E+03  0.12975847059E+03  0.41800000000E+01 0.  1.
         -5    1    3    3    0  502  0.17421636962E+02 -0.79128885834E+02  0.23953792273E+03  0.25290469120E+03  0.41800000000E+01 0.  1.
        -11    1    4    4    0    0 -0.16469420443E+02  0.60678112204E+02  0.35886957490E+03  0.36433562398E+03  0.00000000000E+00 0. -1.
         11    1    4    4    0    0  0.13678097407E+02 -0.27131682712E+02  0.70888898431E+02  0.77126224309E+02  0.00000000000E+00 0.  1.
</event>
<event>
 8    1  0.6945825E-009  0.2609010E+03  0.7561462E-02  0.1106603E+00
          1   -1    0    0  501    0  0.00000000000E+00  0.00000000000E+00  0.10134906383E+04  0.10134906383E+04  0.00000000000E+00 0. -1.
         -1   -1    0    0    0  501 -0.00000000000E+00 -0.00000000000E+00 -0.12116205100E+03  0.12116205100E+03  0.00000000000E+00 0.  1.
         25    2    1    2    0    0  0.20161090954E+03 -0.13390754645E+03  0.82734210511E+02  0.28472612559E+03  0.12508328091E+03 0.  0.
         23    2    1    2    0    0 -0.20161090954E+03  0.13390754645E+03  0.80959437674E+03  0.84992656366E+03  0.91399775225E+02 0.  0.
          5    1    3    3  502    0  0.19224610085E+03 -0.15628413658E+03  0.76546549857E+02  0.25934560211E+03  0.41800000000E+01 0. -1.
         -5    1    3    3    0  502  0.93648086940E+01  0.22376590134E+02  0.61876606543E+01  0.25380523483E+02  0.41800000000E+01 0. -1.
        -11    1    4    4    0    0 -0.10270335518E+03  0.10376451062E+03  0.58052366734E+03  0.59860068591E+03  0.00000000000E+00 0. -1.
         11    1    4    4    0    0 -0.98907554357E+02  0.30143035825E+02  0.22907070940E+03  0.25132587774E+03  0.00000000000E+00 0.  1.
</event>
<event>
 8    1  0.6945825E-009  0.1769824E+03  0.7561462E-02  0.1170756E+00
         -2   -1    0    0    0  501 -0.00000000000E+00  0.00000000000E+00  0.22393968735E+03  0.22393968735E+03  0.00000000000E+00 0.  1.
          2   -1    0    0  501    0  0.00000000000E+00 -0.00000000000E+00 -0.15989661500E+03  0.15989661500E+03  0.00000000000E+00 0. -1.
         25    2    1    2    0    0 -0.11729385772E+03 -0.10098384023E+03  0.33094794271E+02  0.20173984875E+03  0.12509243030E+03 0.  0.
         23    2    1    2    0    0  0.11729385772E+03  0.10098384023E+03  0.30948278080E+02  0.18209645360E+03  0.90806043018E+02 0.  0.
          5    1    3    3  502    0 -0.33832512955E+02 -0.97555347583E+02 -0.16283397321E+02  0.10461503813E+03  0.41800000000E+01 0.  1.
         -5    1    3    3    0  502 -0.83461344769E+02 -0.34284926485E+01  0.49378191591E+02  0.97124810617E+02  0.41800000000E+01 0.  1.
        -11    1    4    4    0    0  0.22358867236E+02 -0.67874457208E+01 -0.18917112945E+02  0.30064023777E+02  0.00000000000E+00 0. -1.
         11    1    4    4    0    0  0.94934990489E+02  0.10777128595E+03  0.49865391025E+02  0.15203242982E+03  0.00000000000E+00 0.  1.
</event>
<event>
 8    1  0.6945825E-009  0.1020240E+03  0.7561462E-02  0.1276096E+00
         -2   -1    0    0    0  501 -0.00000000000E+00  0.00000000000E+00  0.15534269386E+02  0.15534269386E+02  0.00000000000E+00 0.  1.
          2   -1    0    0  501    0  0.00000000000E+00 -0.00000000000E+00 -0.79953346121E+03  0.79953346121E+03  0.00000000000E+00 0. -1.
         25    2    1    2    0    0 -0.30960608558E+02  0.19992459391E+02 -0.46316108479E+03  0.48116891187E+03  0.12508826315E+03 0.  0.
         23    2    1    2    0    0  0.30960608558E+02 -0.19992459391E+02 -0.32083810704E+03  0.33389881873E+03  0.84811983247E+02 0.  0.
          5    1    3    3  502    0 -0.70094199576E+02  0.16482362391E+02 -0.40154939743E+03  0.40797580328E+03  0.41800000000E+01 0.  1.
         -5    1    3    3    0  502  0.39133591017E+02  0.35100969996E+01 -0.61611687352E+02  0.73193108591E+02  0.41800000000E+01 0.  1.
        -11    1    4    4    0    0 -0.53445276256E+01  0.30084493357E+02 -0.11205812995E+03  0.11614932287E+03  0.00000000000E+00 0.  1.
         11    1    4    4    0    0  0.36305136184E+02 -0.50076952748E+02 -0.20877997709E+03  0.21774949585E+03  0.00000000000E+00 0. -1.
</event>
<event>
 8    1  0.6945825E-009  0.1163574E+03  0.7561462E-02  0.1249230E+00
         -1   -1    0    0    0  501 -0.00000000000E+00  0.00000000000E+00  0.57017056013E+03  0.57017056013E+03  0.00000000000E+00 0.  1.
          1   -1    0    0  501    0  0.00000000000E+00 -0.00000000000E+00 -0.30593705343E+02  0.30593705343E+02  0.00000000000E+00 0. -1.
         25    2    1    2    0    0 -0.43984339926E+01  0.69388728083E+02  0.23611334006E+03  0.27609758424E+03  0.12508487064E+03 0.  0.
         23    2    1    2    0    0  0.43984339926E+01 -0.69388728083E+02  0.30346351473E+03  0.32466668123E+03  0.92109756943E+02 0.  0.
          5    1    3    3  502    0  0.54437036608E+02  0.37006893493E+01  0.95491800013E+02  0.11006017593E+03  0.41800000000E+01 0.  1.
         -5    1    3    3    0  502 -0.58835470601E+02  0.65688038733E+02  0.14062154004E+03  0.16603740831E+03  0.41800000000E+01 0.  1.
        -11    1    4    4    0    0  0.30610602881E+02 -0.35799235631E+02  0.25836991983E+03  0.26262827295E+03  0.00000000000E+00 0.  1.
         11    1    4    4    0    0 -0.26212168888E+02 -0.33589492451E+02  0.45093594896E+02  0.62038408278E+02  0.00000000000E+00 0. -1.
</event>
<event>
 8    1  0.6945825E-009  0.1288228E+03  0.7561462E-02  0.1229213E+00
          4   -1    0    0  501    0  0.00000000000E+00  0.00000000000E+00  0.19097572691E+03  0.19097572691E+03  0.00000000000E+00 0. -1.
         -4   -1    0    0    0  501 -0.00000000000E+00 -0.00000000000E+00 -0.15709476852E+03  0.15709476852E+03  0.00000000000E+00 0.  1.
         25    2    1    2    0    0 -0.12754810090E+01  0.11975799234E+03  0.85060297853E+02  0.19294150273E+03  0.12509022993E+03 0.  0.
         23    2    1    2    0    0  0.12754810090E+01 -0.11975799234E+03 -0.51179339464E+02  0.15512899270E+03  0.84273815659E+02 0.  0.
          5    1    3    3  502    0 -0.33151616859E+02  0.55897773192E+02  0.10054006404E+03  0.11978884599E+03  0.41800000000E+01 0. -1.
         -5    1    3    3    0  502  0.31876135850E+02  0.63860219148E+02 -0.15479766183E+02  0.73152656736E+02  0.41800000000E+01 0. -1.
        -11    1    4    4    0    0  0.69650270304E+01 -0.10466085530E+03 -0.36717127963E+01  0.10495659917E+03  0.00000000000E+00 0. -1.
         11    1    4    4    0    0 -0.56895460214E+01 -0.15097137038E+02 -0.47507626668E+02  0.50172393527E+02  0.00000000000E+00 0.  1.
</event>
<event>
 8    1  0.6945825E-009  0.1495549E+03  0.7561462E-02  0.1201021E+00
         -2   -1    0    0    0  501 -0.00000000000E+00  0.00000000000E+00  0.11103022514E+03  0.11103022514E+03  0.00000000000E+00 0. -1.
          2   -1    0    0  501    0  0.00000000000E+00 -0.00000000000E+00 -0.32602533944E+03  0.32602533944E+03  0.00000000000E+00 0.  1.
         25    2    1    2    0    0 -0.33724329974E+02 -0.11674063919E+03 -0.22804877239E+03  0.28708907429E+03  0.12509271249E+03 0.  0.
         23    2    1    2    0    0  0.33724329974E+02  0.11674063919E+03  0.13053658090E+02  0.14996649029E+03  0.86912846863E+02 0.  0.
          5    1    3    3  502    0 -0.11137084041E+02  0.25882664276E+02 -0.25035406841E+02  0.37923488060E+02  0.41800000000E+01 0.  1.
         -5    1    3    3    0  502 -0.22587245934E+02 -0.14262330346E+03 -0.20301336555E+03  0.24916558623E+03  0.41800000000E+01 0.  1.
        -11    1    4    4    0    0  0.26966202593E+02  0.35196102294E+02 -0.33731473606E+02  0.55711345439E+02  0.00000000000E+00 0.  1.
         11    1    4    4    0    0  0.67581273812E+01  0.81544536895E+02  0.46785131695E+02  0.94255144851E+02  0.00000000000E+00 0. -1.
</event>
<event>
 8    1  0.6945825E-009  0.1604065E+03  0.7561462E-02  0.1188239E+00
          1   -1    0    0  501    0  0.00000000000E+00  0.00000000000E+00  0.22480806607E+03  0.22480806607E+03  0.00000000000E+00 0. -1.
         -1   -1    0    0    0  501 -0.00000000000E+00 -0.00000000000E+00 -0.17399360247E+03  0.17399360247E+03  0.00000000000E+00 0.  1.
         25    2    1    2    0    0  0.10521173451E+03  0.98320620176E+02 -0.51717643139E+02  0.19763480972E+03  0.12509336502E+03 0.  0.
         23    2    1    2    0    0 -0.10521173451E+03 -0.98320620176E+02  0.10253210674E+03  0.20116685881E+03  0.96014679811E+02 0.  0.
          5    1    3    3  502    0  0.51630187055E+02  0.10980710809E+03  0.10919403357E+01  0.12141639896E+03  0.41800000000E+01 0.  1.
         -5    1    3    3    0  502  0.53581547455E+02 -0.11486487919E+02 -0.52809583475E+02  0.76218410762E+02  0.41800000000E+01 0.  1.
        -11    1    4    4    0    0 -0.23443416282E+02 -0.15789536786E+02  0.77264864130E+02  0.82272489131E+02  0.00000000000E+00 0. -1.
         11    1    4    4    0    0 -0.81768318229E+02 -0.82531083389E+02  0.25267242610E+02  0.11889436968E+03  0.00000000000E+00 0.  1.
</event>
<event>
 8    1  0.6945825E-009  0.1264607E+03  0.7561462E-02  0.1232804E+00
          1   -1    0    0  501    0  0.00000000000E+00  0.00000000000E+00  0.16371811757E+03  0.16371811757E+03  0.00000000000E+00 0. -1.
         -1   -1    0    0    0  501 -0.00000000000E+00 -0.00000000000E+00 -0.11549585102E+03  0.11549585102E+03  0.00000000000E+00 0.  1.
         25    2    1    2    0    0 -0.22201756462E+00  0.82623072636E+02  0.45967864341E+02  0.15680587574E+03  0.12509363169E+03 0.  0.
         23    2    1    2    0    0  0.22201756462E+00 -0.82623072636E+02  0.22544022088E+01  0.12240809285E+03  0.90288634065E+02 0.  0.
          5    1    3    3  502    0 -0.39708673866E+02  0.96336985190E+02  0.47887742439E+02  0.11475322118E+03  0.41800000000E+01 0.  1.
         -5    1    3    3    0  502  0.39486656301E+02 -0.13713912553E+02 -0.19198780982E+01  0.42052654557E+02  0.41800000000E+01 0.  1.
        -11    1    4    4    0    0  0.23560009538E+02 -0.79699293557E+02  0.27846178497E+02  0.87649649742E+02  0.00000000000E+00 0. -1.
         11    1    4    4    0    0 -0.23337991974E+02 -0.29237790794E+01 -0.25591776289E+02  0.34758443105E+02  0.00000000000E+00 0.  1.
</event>
<event>
 8    1  0.6945825E-009  0.1410380E+03  0.7561462E-02  0.1211939E+00
          2   -1    0    0  501    0  0.00000000000E+00  0.00000000000E+00  0.31710208647E+03  0.31710208647E+03  0.00000000000E+00 0. -1.
         -2   -1    0    0    0  501 -0.00000000000E+00 -0.00000000000E+00 -0.97991836681E+02  0.97991836681E+02  0.00000000000E+00 0.  1.
         25    2    1    2    0    0 -0.54994441901E+02  0.11951374996E+03  0.65345606245E+02  0.19293822935E+03  0.12508871660E+03 0.  0.
         23    2    1    2    0    0  0.54994441901E+02 -0.11951374996E+03  0.15376464354E+03  0.22215569380E+03  0.91660578290E+02 0.  0.
          5    1    3    3  502    0 -0.38010377855E+02  0.35307341001E+02  0.89564943120E+02  0.10358932662E+03  0.41800000000E+01 0. -1.
         -5    1    3    3    0  502 -0.16984064046E+02  0.84206408959E+02 -0.24219336875E+02  0.89348902736E+02  0.41800000000E+01 0. -1.
        -11    1    4    4    0    0  0.67590222495E+02 -0.10412798437E+03  0.15887614356E+03  0.20162515791E+03  0.00000000000E+00 0. -1.
         11    1    4    4    0    0 -0.12595780594E+02 -0.15385765589E+02 -0.51115000207E+01  0.20530535892E+02  0.00000000000E+00 0.  1.
</event>
<event>
 8    1  0.6945825E-009  0.2608777E+03  0.7561462E-02  0.1106617E+00
          1   -1    0    0  501    0  0.00000000000E+00  0.00000000000E+00  0.71596957737E+02  0.71596957737E+02  0.00000000000E+00 0. -1.
         -1   -1    0    0    0  501 -0.00000000000E+00 -0.00000000000E+00 -0.11400275051E+04  0.11400275051E+04  0.00000000000E+00 0.  1.
         25    2    1    2    0    0  0.35124859111E+02 -0.23608676074E+03 -0.78647619442E+03  0.83136203820E+03  0.12508924749E+03 0.  0.
         23    2    1    2    0    0 -0.35124859111E+02  0.23608676074E+03 -0.28195435293E+03  0.38026242463E+03  0.90169507725E+02 0.  0.
          5    1    3    3  502    0  0.75771807469E+02 -0.20179660353E+03 -0.60851750692E+03  0.64558056401E+03  0.41800000000E+01 0. -1.
         -5    1    3    3    0  502 -0.40646948358E+02 -0.34290157212E+02 -0.17795868751E+03  0.18578147419E+03  0.41800000000E+01 0. -1.
        -11    1    4    4    0    0 -0.60972699669E+02  0.12940316204E+03 -0.18461821687E+03  0.23355242334E+03  0.00000000000E+00 0.  1.
         11    1    4    4    0    0  0.25847840558E+02  0.10668359870E+03 -0.97336136064E+02  0.14671000128E+03  0.00000000000E+00 0. -1.
</event>
<event>
 8    1  0.6945825E-009  0.1543750E+03  0.7561462E-02  0.1195198E+00
          2   -1    0    0  501    0  0.00000000000E+00  0.00000000000E+00  0.50441790094E+03  0.50441790094E+03  0.00000000000E+00 0.  1.
         -2   -1    0    0    0  501 -0.00000000000E+00 -0.00000000000E+00 -0.52441488948E+02  0.52441488948E+02  0.00000000000E+00 0. -1.
         25    2    1    2    0    0 -0.22951265374E+02  0.11393888583E+03  0.18651094713E+03  0.25286388089E+03  0.12507988876E+03 0.  0.
         23    2    1    2    0    0  0.22951265374E+02 -0.11393888583E+03  0.26546546486E+03  0.30399550900E+03  0.91828787271E+02 0.  0.
          5    1    3    3  502    0 -0.54180545016E+02  0.20717386570E+01  0.64352473356E+02  0.84252814709E+02  0.41800000000E+01 0. -1.
         -5    1    3    3    0  502  0.31229279642E+02  0.11186714717E+03  0.12215847377E+03  0.16861106618E+03  0.41800000000E+01 0. -1.
        -11    1    4    4    0    0  0.19920800937E+02  0.38769650818E+01  0.92464009645E+02  0.94665000121E+02  0.00000000000E+00 0.  1.
         11    1    4    4    0    0  0.30304644368E+01 -0.11781585091E+03  0.17300145522E+03  0.20933050888E+03  0.00000000000E+00 0. -1.
</event>
<event>
 8    1  0.6945825E-009  0.9797614E+02  0.7561462E-02  0.1284610E+00
         -2   -1    0    0    0  501 -0.00000000000E+00  0.00000000000E+00  0.23835504429E+02  0.23835504429E+02  0.00000000000E+00 0.  1.
          2   -1    0    0  501    0  0.00000000000E+00 -0.00000000000E+00 -0.60536820199E+03  0.60536820199E+03  0.00000000000E+00 0. -1.
         25    2    1    2    0    0  0.78082168944E+01 -0.85958476992E+01 -0.44251455353E+03  0.46000158984E+03  0.12508987055E+03 0.  0.
         23    2    1    2    0    0 -0.78082168944E+01  0.85958476992E+01 -0.13901814402E+03  0.16920211658E+03  0.95752049789E+02 0.  0.
          5    1    3    3  502    0  0.48345734359E+02  0.33246107379E+02 -0.30461489176E+03  0.31024235424E+03  0.41800000000E+01 0. -1.
         -5    1    3    3    0  502 -0.40537517465E+02 -0.41841955078E+02 -0.13789966178E+03  0.14975923559E+03  0.41800000000E+01 0. -1.
        -11    1    4    4    0    0  0.22503452404E+02  0.32906582401E+02 -0.21220596241E+02  0.45161512821E+02  0.00000000000E+00 0.  1.
         11    1    4    4    0    0 -0.30311669299E+02 -0.24310734702E+02 -0.11779754778E+03  0.12404060376E+03  0.00000000000E+00 0. -1.
</event>
<event>
 8    1  0.6945825E-009  0.2340655E+03  0.7561462E-02  0.1123811E+00
          1   -1    0    0  501    0  0.00000000000E+00  0.00000000000E+00  0.23846970827E+03  0.23846970827E+03  0.00000000000E+00 0. -1.
         -1   -1    0    0    0  501 -0.00000000000E+00 -0.00000000000E+00 -0.26447549156E+03  0.26447549156E+03  0.00000000000E+00 0.  1.
         25    2    1    2    0    0 -0.18385208140E+03 -0.12258051517E+03 -0.61673056204E+02  0.26130030221E+03  0.12508681601E+03 0.  0.
         23    2    1    2    0    0  0.18385208140E+03  0.12258051517E+03  0.35667272911E+02  0.24164489761E+03  0.91063338678E+02 0.  0.
          5    1    3    3  502    0 -0.38534695770E+01 -0.52605435987E+02  0.12523641962E+02  0.54373662109E+02  0.41800000000E+01 0. -1.
         -5    1    3    3    0  502 -0.17999861182E+03 -0.69975079187E+02 -0.74196698166E+02  0.20692664010E+03  0.41800000000E+01 0. -1.
        -11    1    4    4    0    0  0.10934190771E+03  0.59841905720E+02 -0.24671493373E+02  0.12706450742E+03  0.00000000000E+00 0.  1.
         11    1    4    4    0    0  0.74510173689E+02  0.62738609455E+02  0.60338766284E+02  0.11458039019E+03  0.00000000000E+00 0. -1.
</event>
<event>
 8    1  0.6945825E-009  0.9594633E+02  0.7561462E-02  0.1289059E+00
          2   -1    0    0  501    0  0.00000000000E+00  0.00000000000E+00  0.43315646246E+03  0.43315646246E+03  0.00000000000E+00 0. -1.
         -2   -1    0    0    0  501 -0.00000000000E+00 -0.00000000000E+00 -0.31388837860E+02  0.31388837860E+02  0.00000000000E+00 0.  1.
         25    2    1    2    0    0 -0.26753444513E+02  0.27786452927E+02  0.23342274285E+03  0.26762401660E+03  0.12509437886E+03 0.  0.
         23    2    1    2    0    0  0.26753444513E+02 -0.27786452927E+02  0.16834488176E+03  0.19692128372E+03  0.94605280031E+02 0.  0.
          5    1    3    3  502    0 -0.31138118549E+02 -0.26420221399E+02  0.16994609880E+02  0.44428590913E+02  0.41800000000E+01 0. -1.
         -5    1    3    3    0  502  0.43846740360E+01  0.54206674326E+02  0.21642813297E+03  0.22319542569E+03  0.41800000000E+01 0. -1.
        -11    1    4    4    0    0  0.39350492943E+02 -0.54233158848E+02  0.14402274443E+03  0.15884661698E+03  0.00000000000E+00 0. -1.
         11    1    4    4    0    0 -0.12597048430E+02  0.26446705922E+02  0.24322137326E+02  0.38074666740E+02  0.00000000000E+00 0.  1.
</event>
<event>
 8    1  0.6945825E-009  0.8246864E+02  0.7561462E-02  0.1322188E+00
         -1   -1    0    0    0  501 -0.00000000000E+00  0.00000000000E+00  0.98904390960E+02  0.98904390960E+02  0.00000000000E+00 0.  1.
          1   -1    0    0  501    0  0.00000000000E+00 -0.00000000000E+00 -0.14967504900E+03  0.14967504900E+03  0.00000000000E+00 0. -1.
         25    2    1    2    0    0  0.81142591380E+01  0.29023638667E+01  0.31810975857E+02  0.12937307194E+03  0.12510471071E+03 0.  0.
         23    2    1    2    0    0 -0.81142591380E+01 -0.29023638667E+01 -0.82581633897E+02  0.11920636802E+03  0.85534595346E+02 0.  0.
          5    1    3    3  502    0  0.44561044012E+02 -0.38650173609E+02  0.42627476142E+02  0.72897851036E+02  0.41800000000E+01 0. -1.
         -5    1    3    3    0  502 -0.36446784874E+02  0.41552537475E+02 -0.10816500285E+02  0.56475220909E+02  0.41800000000E+01 0. -1.
        -11    1    4    4    0    0  0.16557408860E+02 -0.15491209416E+02  0.83399809056E+01  0.24159483414E+02  0.00000000000E+00 0.  1.
         11    1    4    4    0    0 -0.24671667999E+02  0.12588845549E+02 -0.90921614803E+02  0.95046884601E+02  0.00000000000E+00 0. -1.
</event>
<event>
 8    1  0.6945825E-009  0.1286639E+03  0.7561462E-02  0.1229452E+00
         -1   -1    0    0    0  501 -0.00000000000E+00  0.00000000000E+00  0.69921110468E+02  0.69921110468E+02  0.00000000000E+00 0.  1.
          1   -1    0    0  501    0  0.00000000000E+00 -0.00000000000E+00 -0.57862469112E+03  0.57862469112E+03  0.00000000000E+00 0. -1.
         25    2    1    2    0    0  0.57147496867E+02 -0.92178821444E+02 -0.47518766050E+03  0.50320332316E+03  0.12508996852E+03 0.  0.
         23    2    1    2    0    0 -0.57147496867E+02  0.92178821444E+02 -0.33515920147E+02  0.14534247843E+03  0.90765343666E+02 0.  0.
          5    1    3    3  502    0 -0.25821800377E+02 -0.48150627970E+02 -0.79881141285E+02  0.96869590076E+02  0.41800000000E+01 0. -1.
         -5    1    3    3    0  502  0.82969297244E+02 -0.44028193474E+02 -0.39530651922E+03  0.40633373308E+03  0.41800000000E+01 0. -1.
        -11    1    4    4    0    0 -0.46321220548E+02  0.72070012606E+02  0.19283347683E+02  0.87815657419E+02  0.00000000000E+00 0.  1.
         11    1    4    4    0    0 -0.10826276320E+02  0.20108808838E+02 -0.52799267830E+02  0.57526821007E+02  0.00000000000E+00 0. -1.
</event>
<event>
 8    1  0.6945825E-009  0.1598112E+03  0.7561462E-02  0.1188910E+00
         -1   -1    0    0    0  501 -0.00000000000E+00  0.00000000000E+00  0.56112782746E+03  0.56112782746E+03  0.00000000000E+00 0.  1.
          1   -1    0    0  501    0  0.00000000000E+00 -0.00000000000E+00 -0.50564415780E+02  0.50564415780E+02  0.00000000000E+00 0. -1.
         25    2    1    2    0    0 -0.72949470521E+02  0.95943106985E+02  0.19318314146E+03  0.25979535417E+03  0.12508874801E+03 0.  0.
         23    2    1    2    0    0  0.72949470521E+02 -0.95943106985E+02  0.31738027022E+03  0.35189688907E+03  0.92598485864E+02 0.  0.
          5    1    3    3  502    0 -0.12382181614E+02 -0.30564863736E+02  0.32944507263E+02  0.46801092675E+02  0.41800000000E+01 0.  1.
         -5    1    3    3    0  502 -0.60567288907E+02  0.12650797072E+03  0.16023863420E+03  0.21299426150E+03  0.41800000000E+01 0.  1.
        -11    1    4    4    0    0 -0.95841503430E+01 -0.51374486595E+02  0.70193542945E+02  0.87511869377E+02  0.00000000000E+00 0. -1.
         11    1    4    4    0    0  0.82533620864E+02 -0.44568620389E+02  0.24718672728E+03  0.26438501970E+03  0.00000000000E+00 0.  1.
</event>
<event>
 8    1  0.6945825E-009  0.9463215E+02  0.7561462E-02  0.1292007E+00
          1   -1    0    0  501    0  0.00000000000E+00  0.00000000000E+00  0.11829674783E+03  0.11829674783E+03  0.00000000000E+00 0. -1.
         -1   -1    0    0    0  501 -0.00000000000E+00 -0.00000000000E+00 -0.17583645478E+03  0.17583645478E+03  0.00000000000E+00 0.  1.
         25    2    1    2    0    0  0.79971192857E+02 -0.23581621803E+02  0.21969547143E+02  0.15192794888E+03  0.12509179060E+03 0.  0.
         23    2    1    2    0    0 -0.79971192857E+02  0.23581621803E+02 -0.79509254097E+02  0.14220525373E+03  0.83361430695E+02 0.  0.
          5    1    3    3  502    0  0.26311960023E+02 -0.17202281705E+02 -0.51590095501E+02  0.60557807836E+02  0.41800000000E+01 0.  1.
         -5    1    3    3    0  502  0.53659232834E+02 -0.63793400972E+01  0.73559642644E+02  0.91370141043E+02  0.41800000000E+01 0.  1.
        -11    1    4    4    0    0  0.10219986264E+02  0.38894992377E+00  0.90778258661E+01  0.13675025548E+02  0.00000000000E+00 0. -1.
         11    1    4    4    0    0 -0.90191179121E+02  0.23192671879E+02 -0.88587079963E+02  0.12853022818E+03  0.00000000000E+00 0.  1.
</event>
<event>
 8    1  0.6945825E-009  0.1209922E+03  0.7561462E-02  0.1241469E+00
          1   -1    0    0  501    0  0.00000000000E+00  0.00000000000E+00  0.62418125212E+03  0.62418125212E+03  0.00000000000E+00 0. -1.
         -1   -1    0    0    0  501 -0.00000000000E+00 -0.00000000000E+00 -0.38245891933E+02  0.38245891933E+02  0.00000000000E+00 0.  1.
         25    2    1    2    0    0 -0.10844446371E+03 -0.81480676672E+01  0.27462236582E+03  0.32076701484E+03  0.12508973291E+03 0.  0.
         23    2    1    2    0    0  0.10844446371E+03  0.81480676672E+01  0.31131299436E+03  0.34166012922E+03  0.89382720479E+02 0.  0.
          5    1    3    3  502    0 -0.63396300742E+02 -0.25755919728E+01  0.26710312920E+03  0.27456743917E+03  0.41800000000E+01 0. -1.
         -5    1    3    3    0  502 -0.45048162971E+02 -0.55724756943E+01  0.75192366193E+01  0.46199575666E+02  0.41800000000E+01 0. -1.
        -11    1    4    4    0    0  0.11321297468E+02 -0.27197575955E+02  0.30379546451E+02  0.42317806616E+02  0.00000000000E+00 0.  1.
         11    1    4    4    0    0  0.97123166245E+02  0.35345643622E+02  0.28093344791E+03  0.29934232260E+03  0.00000000000E+00 0. -1.
</event>
<event>
 8    1  0.6945825E-009  0.1909234E+03  0.7561462E-02  0.1157631E+00
         -2   -1    0    0    0  501 -0.00000000000E+00  0.00000000000E+00  0.17917159820E+02  0.17917159820E+02  0.00000000000E+00 0.  1.
          2   -1    0    0  501    0  0.00000000000E+00 -0.00000000000E+00 -0.22781090726E+04  0.22781090726E+04  0.00000000000E+00 0. -1.
         25    2    1    2    0    0  0.16643730948E+03 -0.19871207371E+02 -0.13433298512E+04  0.13595141809E+04  0.12508987135E+03 0.  0.
         23    2    1    2    0    0 -0.16643730948E+03  0.19871207371E+02 -0.91686206150E+03  0.93651205150E+03  0.91227955773E+02 0.  0.
          5    1    3    3  502    0  0.12679765506E+02 -0.34714058244E+02 -0.10136974321E+03  0.10797749549E+03  0.41800000000E+01 0. -1.
         -5    1    3    3    0  502  0.15375754398E+03  0.14842850873E+02 -0.12419601080E+04  0.12515366854E+04  0.41800000000E+01 0. -1.
        -11    1    4    4    0    0 -0.11504648811E+03 -0.29598424638E+02 -0.53287311461E+03  0.54595376860E+03  0.00000000000E+00 0.  1.
         11    1    4    4    0    0 -0.51390821379E+02  0.49469632010E+02 -0.38398894688E+03  0.39055828290E+03  0.00000000000E+00 0. -1.
</event>
<event>
 8    1  0.6945825E-009  0.1096145E+03  0.7561462E-02  0.1261286E+00
          2   -1    0    0  501    0  0.00000000000E+00  0.00000000000E+00  0.11830564847E+02  0.11830564847E+02  0.00000000000E+00 0. -1.
         -2   -1    0    0    0  501 -0.00000000000E+00 -0.00000000000E+00 -0.10684233721E+04  0.10684233721E+04  0.00000000000E+00 0.  1.
         25    2    1    2    0    0  0.38173399612E+01 -0.20651834539E+02 -0.70171026371E+03  0.71308197658E+03  0.12509013061E+03 0.  0.
         23    2    1    2    0    0 -0.38173399612E+01  0.20651834539E+02 -0.35488254351E+03  0.36717196033E+03  0.91828962816E+02 0.  0.
          5    1    3    3  502    0  0.27175645096E+02  0.47007935005E+02 -0.34000201550E+03  0.34433574398E+03  0.41800000000E+01 0. -1.
         -5    1    3    3    0  502 -0.23358305135E+02 -0.67659769545E+02 -0.36170824821E+03  0.36874623260E+03  0.41800000000E+01 0. -1.
        -11    1    4    4    0    0  0.40978067617E+02  0.25100222510E+02 -0.21143005224E+03  0.21682225482E+03  0.00000000000E+00 0.  1.
         11    1    4    4    0    0 -0.44795407578E+02 -0.44483879707E+01 -0.14345249127E+03  0.15034970551E+03  0.00000000000E+00 0. -1.
</event>
<event>
 8    1  0.6945825E-009  0.2219526E+03  0.7561462E-02  0.1132436E+00
         -2   -1    0    0    0  501 -0.00000000000E+00  0.00000000000E+00  0.45545683165E+02  0.45545683165E+02  0.00000000000E+00 0.  1.
          2   -1    0    0  501    0  0.00000000000E+00 -0.00000000000E+00 -0.13164572498E+04  0.13164572498E+04  0.00000000000E+00 0. -1.
         25    2    1    2    0    0  0.75319944776E+02 -0.20135008964E+03 -0.76918840008E+03  0.80840149819E+03  0.12508890751E+03 0.  0.
         23    2    1    2    0    0 -0.75319944776E+02  0.20135008964E+03 -0.50172316656E+03  0.55360143478E+03  0.92376728922E+02 0.  0.
          5    1    3    3  502    0  0.76664084804E+02 -0.19591111271E+03 -0.77251558058E+03  0.80065994069E+03  0.41800000000E+01 0.  1.
         -5    1    3    3    0  502 -0.13441400281E+01 -0.54389769322E+01  0.33271805015E+01  0.77415575031E+01  0.41800000000E+01 0.  1.
        -11    1    4    4    0    0 -0.40232553136E+02  0.18206750122E+03 -0.34864260238E+03  0.39537184716E+03  0.00000000000E+00 0.  1.
         11    1    4    4    0    0 -0.35087391640E+02  0.19282588423E+02 -0.15308056419E+03  0.15822958762E+03  0.00000000000E+00 0. -1.
</event>
<event>
 8    1  0.6945825E-009  0.1039703E+03  0.7561462E-02  0.1272162E+00
          2   -1    0    0  501    0  0.00000000000E+00  0.00000000000E+00  0.13352568648E+03  0.13352568648E+03  0.00000000000E+00 0. -1.
         -2   -1    0    0    0  501 -0.00000000000E+00 -0.00000000000E+00 -0.12143769004E+03  0.12143769004E+03  0.00000000000E+00 0.  1.
         25    2    1    2    0    0 -0.11953090856E+02 -0.87321470966E+01 -0.58004511361E+02  0.13867406200E+03  0.12508735092E+03 0.  0.
         23    2    1    2    0    0  0.11953090856E+02  0.87321470966E+01  0.70092507804E+02  0.11628931451E+03  0.91603047143E+02 0.  0.
          5    1    3    3  502    0 -0.29573357814E+01  0.57621958282E+02 -0.18110220891E+02  0.60617558610E+02  0.41800000000E+01 0. -1.
         -5    1    3    3    0  502 -0.89957550741E+01 -0.66354105379E+02 -0.39894290470E+02  0.78056503394E+02  0.41800000000E+01 0. -1.
        -11    1    4    4    0    0  0.42385151298E+02 -0.14410629974E+02  0.11321934995E+02  0.46177413514E+02  0.00000000000E+00 0.  1.
         11    1    4    4    0    0 -0.30432060443E+02  0.23142777071E+02  0.58770572809E+02  0.70111900999E+02  0.00000000000E+00 0. -1.
</event>
<event>
 8    1  0.6945825E-009  0.1802877E+03  0.7561462E-02  0.1167525E+00
         -1   -1    0    0    0  501 -0.00000000000E+00  0.00000000000E+00  0.44574911474E+03  0.44574911474E+03  0.00000000000E+00 0.  1.
          1   -1    0    0  501    0  0.00000000000E+00 -0.00000000000E+00 -0.78380173517E+02  0.78380173517E+02  0.00000000000E+00 0. -1.
         25    2    1    2    0    0 -0.93660932568E+02 -0.11709709426E+03  0.15897726061E+03  0.25180243461E+03  0.12508635782E+03 0.  0.
         23    2    1    2    0    0  0.93660932568E+02  0.11709709426E+03  0.20839168062E+03  0.27232685365E+03  0.90833489926E+02 0.  0.
          5    1    3    3  502    0 -0.11451462175E+03 -0.61439246098E+02  0.13541001208E+03  0.18772779050E+03  0.41800000000E+01 0.  1.
         -5    1    3    3    0  502  0.20853689179E+02 -0.55657848166E+02  0.23567248527E+02  0.64074644111E+02  0.41800000000E+01 0.  1.
        -11    1    4    4    0    0  0.10685245905E+03  0.85903914687E+02  0.18837808781E+03  0.23298762742E+03  0.00000000000E+00 0. -1.
         11    1    4    4    0    0 -0.13191526485E+02  0.31193179577E+02  0.20013592813E+02  0.39339226230E+02  0.00000000000E+00 0.  1.
</event>
<event>
 8    1  0.6945825E-009  0.1175516E+03  0.7561462E-02  0.1247192E+00
         -1   -1    0    0    0  501 -0.00000000000E+00  0.00000000000E+00  0.40695949613E+03  0.40695949613E+03  0.00000000000E+00 0.  1.
          1   -1    0    0  501    0  0.00000000000E+00 -0.00000000000E+00 -0.41809546587E+02  0.41809546587E+02  0.00000000000E+00 0. -1.
         25    2    1    2    0    0  0.18199579810E+02  0.42634231176E+02  0.28958213710E+03  0.31883344132E+03  0.12509215323E+03 0.  0.
         23    2    1    2    0    0 -0.18199579810E+02 -0.42634231176E+02  0.75567812435E+02  0.12993560140E+03  0.94994020130E+02 0.  0.
          5    1    3    3  502    0  0.41744861362E+02 -0.31744878075E+02  0.14877456769E+03  0.15780277287E+03  0.41800000000E+01 0. -1.
         -5    1    3    3    0  502 -0.23545281551E+02  0.74379109251E+02  0.14080756941E+03  0.16103066844E+03  0.41800000000E+01 0. -1.
        -11    1    4    4    0    0 -0.19696139448E+02 -0.72160375326E+02  0.44439294062E+02  0.87005221298E+02  0.00000000000E+00 0. -1.
         11    1    4    4    0    0  0.14965596380E+01  0.29526144151E+02  0.31128518373E+02  0.42930380097E+02  0.00000000000E+00 0.  1.
</event>
<event>
 8    1  0.6945825E-009  0.1835315E+03  0.7561462E-02  0.1164428E+00
         -2   -1    0    0    0  501 -0.00000000000E+00  0.00000000000E+00  0.75291627906E+02  0.75291627906E+02  0.00000000000E+00 0.  1.
          2   -1    0    0  501    0  0.00000000000E+00 -0.00000000000E+00 -0.53482330039E+03  0.53482330039E+03  0.00000000000E+00 0. -1.
         25    2    1    2    0    0 -0.12194746214E+03 -0.11147804287E+03 -0.28793334501E+03  0.35475489680E+03  0.12508752165E+03 0.  0.
         23    2    1    2    0    0  0.12194746214E+03  0.11147804287E+03 -0.17159832748E+03  0.25536003150E+03  0.92001207219E+02 0.  0.
          5    1    3    3  502    0  0.17423302004E+02  0.36939845822E+01 -0.50077763029E+01  0.18967530106E+02  0.41800000000E+01 0.  1.
         -5    1    3    3    0  502 -0.13937076414E+03 -0.11517202745E+03 -0.28292556870E+03  0.33578736669E+03  0.41800000000E+01 0.  1.
        -11    1    4    4    0    0  0.33117469668E+02  0.13764329324E+02  0.35142475449E+01  0.36035725256E+02  0.00000000000E+00 0.  1.
         11    1    4    4    0    0  0.88829992468E+02  0.97713713548E+02 -0.17511257503E+03  0.21932430624E+03  0.00000000000E+00 0. -1.
</event>
<event>
 8    1  0.6945825E-009  0.8752125E+02  0.7561462E-02  0.1308968E+00
         -1   -1    0    0    0  501 -0.00000000000E+00  0.00000000000E+00  0.22215794397E+03  0.22215794397E+03  0.00000000000E+00 0.  1.
          1   -1    0    0  501    0  0.00000000000E+00 -0.00000000000E+00 -0.54662634923E+02  0.54662634923E+02  0.00000000000E+00 0. -1.
         25    2    1    2    0    0  0.98667533579E+01  0.88761761099E+01  0.88969013986E+02  0.15407109840E+03  0.12508508539E+03 0.  0.
         23    2    1    2    0    0 -0.98667533579E+01 -0.88761761099E+01  0.78526295056E+02  0.12274948049E+03  0.93407262147E+02 0.  0.
          5    1    3    3  502    0 -0.32476802784E+02  0.52207809446E+02  0.26924568591E+02  0.67251787188E+02  0.41800000000E+01 0. -1.
         -5    1    3    3    0  502  0.42343556142E+02 -0.43331633336E+02  0.62044445395E+02  0.86819311208E+02  0.41800000000E+01 0. -1.
        -11    1    4    4    0    0 -0.22469671921E+02  0.14066685531E+02  0.90253425522E+02  0.94066139586E+02  0.00000000000E+00 0.  1.
         11    1    4    4    0    0  0.12602918563E+02 -0.22942861641E+02 -0.11727130466E+02  0.28683340907E+02  0.00000000000E+00 0. -1.
</event>
<event>
 8    1  0.6945825E-009  0.1527761E+03  0.7561462E-02  0.1197103E+00
         -1   -1    0    0    0  501 -0.00000000000E+00  0.00000000000E+00  0.26913804217E+03  0.26913804217E+03  0.00000000000E+00 0.  1.
          1   -1    0    0  501    0  0.00000000000E+00 -0.00000000000E+00 -0.11460452983E+03  0.11460452983E+03  0.00000000000E+00 0. -1.
         25    2    1    2    0    0 -0.13007444904E+03 -0.34113559370E+01  0.31407937585E+02  0.18320750251E+03  0.12509009069E+03 0.  0.
         23    2    1    2    0    0  0.13007444904E+03  0.34113559370E+01  0.12312557475E+03  0.20053506950E+03  0.90129946726E+02 0.  0.
          5    1    3    3  502    0 -0.77469385751E+02  0.49538028614E+02 -0.17740158004E+02  0.93742773661E+02  0.41800000000E+01 0.  1.
         -5    1    3    3    0  502 -0.52605063290E+02 -0.52949384551E+02  0.49148095589E+02  0.89464728849E+02  0.41800000000E+01 0.  1.
        -11    1    4    4    0    0  0.87189234561E+02 -0.20611621601E+02  0.12200475480E+03  0.15136697712E+03  0.00000000000E+00 0.  1.
         11    1    4    4    0    0  0.42885214480E+02  0.24022977538E+02  0.11208199555E+01  0.49168092379E+02  0.00000000000E+00 0. -1.
</event>
<event>
 8    1  0.6945825E-009  0.1862768E+03  0.7561462E-02  0.1161863E+00
          2   -1    0    0  501    0  0.00000000000E+00  0.00000000000E+00  0.40253650881E+03  0.40253650881E+03  0.00000000000E+00 0. -1.
         -2   -1    0    0    0  501 -0.00000000000E+00 -0.00000000000E+00 -0.11201345463E+03  0.11201345463E+03  0.00000000000E+00 0.  1.
         25    2    1    2    0    0  0.88692509539E+02  0.14271684208E+03  0.61838831215E+02  0.21841630764E+03  0.12508870507E+03 0.  0.
         23    2    1    2    0    0 -0.88692509539E+02 -0.14271684208E+03  0.22868422297E+03  0.29613365580E+03  0.84641656403E+02 0.  0.
          5    1    3    3  502    0  0.56758601093E+02  0.30298986493E+01 -0.10332745082E+02  0.57921991547E+02  0.41800000000E+01 0.  1.
         -5    1    3    3    0  502  0.31933908446E+02  0.13968694343E+03  0.72171576297E+02  0.16049431609E+03  0.41800000000E+01 0.  1.
        -11    1    4    4    0    0 -0.50758004768E+02 -0.11348243258E+03  0.21134995111E+03  0.24520081441E+03  0.00000000000E+00 0.  1.
         11    1    4    4    0    0 -0.37934504772E+02 -0.29234409496E+02  0.17334271861E+02  0.50932841388E+02  0.00000000000E+00 0. -1.
</event>
<event>
 8    1  0.6945825E-009  0.1025211E+03  0.7561462E-02  0.1275082E+00
          1   -1    0    0  501    0  0.00000000000E+00  0.00000000000E+00  0.63112450590E+03  0.63112450590E+03  0.00000000000E+00 0. -1.
         -1   -1    0    0    0  501 -0.00000000000E+00 -0.00000000000E+00 -0.22675507165E+02  0.22675507165E+02  0.00000000000E+00 0.  1.
         25    2    1    2    0    0  0.41565675823E+02  0.25903181951E+02  0.37093122518E+03  0.39451198662E+03  0.12510417071E+03 0.  0.
         23    2    1    2    0    0 -0.41565675823E+02 -0.25903181951E+02  0.23751777355E+03  0.25928802644E+03  0.91743706395E+02 0.  0.
          5    1    3    3  502    0  0.64217584497E+02 -0.61647090496E+01  0.33482428329E+03  0.34100832083E+03  0.41800000000E+01 0. -1.
         -5    1    3    3    0  502 -0.22651908673E+02  0.32067891001E+02  0.36106941892E+02  0.53503665786E+02  0.41800000000E+01 0. -1.
        -11    1    4    4    0    0  0.10512892672E+02  0.25594908526E+02  0.40080908458E+02  0.48704203901E+02  0.00000000000E+00 0.  1.
         11    1    4    4    0    0 -0.52078568496E+02 -0.51498090477E+02  0.19743686509E+03  0.21058382254E+03  0.00000000000E+00 0. -1.
</event>
<event>
 8    1  0.6945825E-009  0.9469478E+02  0.7561462E-02  0.1291865E+00
          1   -1    0    0  501    0  0.00000000000E+00  0.00000000000E+00  0.57937908677E+03  0.57937908677E+03  0.00000000000E+00 0. -1.
         -1   -1    0    0    0  501 -0.00000000000E+00 -0.00000000000E+00 -0.28736920627E+02  0.28736920627E+02  0.00000000000E+00 0.  1.
         25    2    1    2    0    0 -0.32536662878E+02 -0.28453811320E+02  0.43577528067E+03  0.45542847437E+03  0.12508695459E+03 0.  0.
         23    2    1    2    0    0  0.32536662878E+02  0.28453811320E+02  0.11486688547E+03  0.15268753303E+03  0.90834066049E+02 0.  0.
          5    1    3    3  502    0  0.31360058860E+02 -0.37934118708E+02  0.31063332900E+03  0.31453614759E+03  0.41800000000E+01 0.  1.
         -5    1    3    3    0  502 -0.63896721738E+02  0.94803073886E+01  0.12514195167E+03  0.14089232678E+03  0.41800000000E+01 0.  1.
        -11    1    4    4    0    0  0.32980570984E+02 -0.11783894928E+02  0.46194958157E+01  0.35325882631E+02  0.00000000000E+00 0.  1.
         11    1    4    4    0    0 -0.44390810602E+00  0.40237706247E+02  0.11024738965E+03  0.11736165040E+03  0.00000000000E+00 0. -1.
</event>
<event>
 8    1  0.6945825E-009  0.7186796E+02  0.7561462E-02  0.1353854E+00
         -1   -1    0    0    0  501 -0.00000000000E+00  0.00000000000E+00  0.16884787551E+03  0.16884787551E+03  0.00000000000E+00 0.  1.
          1   -1    0    0  501    0  0.00000000000E+00 -0.00000000000E+00 -0.74324631811E+02  0.74324631811E+02  0.00000000000E+00 0. -1.
         25    2    1    2    0    0  0.10528417699E+02  0.27424173619E+02  0.52038381185E+02  0.13863198752E+03  0.12509157434E+03 0.  0.
         23    2    1    2    0    0 -0.10528417699E+02 -0.27424173619E+02  0.42484862511E+02  0.10454051979E+03  0.90889074472E+02 0.  0.
          5    1    3    3  502    0 -0.18532624156E+02 -0.37080086112E+01 -0.35927195527E+02  0.40809842739E+02  0.41800000000E+01 0. -1.
         -5    1    3    3    0  502  0.29061041855E+02  0.31132182230E+02  0.87965576712E+02  0.97822144785E+02  0.41800000000E+01 0. -1.
        -11    1    4    4    0    0  0.84346674308E+01 -0.50794684647E+02 -0.11855654495E+01  0.51503875277E+02  0.00000000000E+00 0. -1.
         11    1    4    4    0    0 -0.18963085130E+02  0.23370511029E+02  0.43670427960E+02  0.53036644517E+02  0.00000000000E+00 0.  1.
</event>
<event>
 8    1  0.6945825E-009  0.1278892E+03  0.7561462E-02  0.1230622E+00
          4   -1    0    0  501    0  0.00000000000E+00  0.00000000000E+00  0.23144496479E+03  0.23144496479E+03  0.00000000000E+00 0. -1.
         -4   -1    0    0    0  501 -0.00000000000E+00 -0.00000000000E+00 -0.10608302027E+03  0.10608302027E+03  0.00000000000E+00 0.  1.
         25    2    1    2    0    0  0.11071327931E+03 -0.90714584451E+01  0.41035026736E+02  0.17225226941E+03  0.12508896563E+03 0.  0.
         23    2    1    2    0    0 -0.11071327931E+03  0.90714584451E+01  0.84326917779E+02  0.16527571565E+03  0.88686591695E+02 0.  0.
          5    1    3    3  502    0  0.63335002489E+02 -0.48836826026E+02  0.67602130320E+02  0.10480400059E+03  0.41800000000E+01 0. -1.
         -5    1    3    3    0  502  0.47378276825E+02  0.39765367581E+02 -0.26567103584E+02  0.67448268818E+02  0.41800000000E+01 0. -1.
        -11    1    4    4    0    0 -0.40629647425E+02  0.15120974020E+02 -0.12935752086E+02  0.45240974650E+02  0.00000000000E+00 0.  1.
         11    1    4    4    0    0 -0.70083631889E+02 -0.60495155751E+01  0.97262669865E+02  0.12003474100E+03  0.00000000000E+00 0. -1.
</event>
<event>
 8    1  0.6945825E-009  0.1640210E+03  0.7561462E-02  0.1184230E+00
          2   -1    0    0  501    0  0.00000000000E+00  0.00000000000E+00  0.68196486142E+03  0.68196486142E+03  0.00000000000E+00 0. -1.
         -2   -1    0    0    0  501 -0.00000000000E+00 -0.00000000000E+00 -0.48359794723E+02  0.48359794723E+02  0.00000000000E+00 0.  1.
         25    2    1    2    0    0 -0.67702259487E+02 -0.11695467069E+03  0.44437739018E+03  0.48102132234E+03  0.12509299225E+03 0.  0.
         23    2    1    2    0    0  0.67702259487E+02  0.11695467069E+03  0.18922767651E+03  0.24930333380E+03  0.89905771500E+02 0.  0.
          5    1    3    3  502    0 -0.62001907591E+02 -0.13499312408E+03  0.29424179857E+03  0.32964084778E+03  0.41800000000E+01 0. -1.
         -5    1    3    3    0  502 -0.57003518967E+01  0.18038453397E+02  0.15013559161E+03  0.15138047457E+03  0.41800000000E+01 0. -1.
        -11    1    4    4    0    0  0.41404950665E+02  0.12570094790E+03  0.13893438100E+03  0.19187980735E+03  0.00000000000E+00 0. -1.
         11    1    4    4    0    0  0.26297308822E+02 -0.87462772184E+01  0.50293295513E+02  0.57423526450E+02  0.00000000000E+00 0.  1.
</event>
<event>
 8    1  0.6945825E-009  0.6984573E+02  0.7561462E-02  0.1360618E+00
         -3   -1    0    0    0  501 -0.00000000000E+00  0.00000000000E+00  0.95679714334E+02  0.95679714334E+02  0.00000000000E+00 0.  1.
          3   -1    0    0  501    0  0.00000000000E+00 -0.00000000000E+00 -0.14282594742E+03  0.14282594742E+03  0.00000000000E+00 0. -1.
         25    2    1    2    0    0  0.36182391203E+02 -0.71448516615E+00 -0.19895143396E+00  0.13021958976E+03  0.12508967205E+03 0.  0.
         23    2    1    2    0    0 -0.36182391203E+02  0.71448516615E+00 -0.46947281656E+02  0.10828607200E+03  0.90620914870E+02 0.  0.
          5    1    3    3  502    0 -0.53453069527E+01  0.65575207684E+01 -0.57884018436E+02  0.58648148950E+02  0.41800000000E+01 0.  1.
         -5    1    3    3    0  502  0.41527698156E+02 -0.72720059345E+01  0.57685067002E+02  0.71571440809E+02  0.41800000000E+01 0.  1.
        -11    1    4    4    0    0  0.22769119350E+02  0.14955489382E+02 -0.38337934489E+02  0.47030805644E+02  0.00000000000E+00 0. -1.
         11    1    4    4    0    0 -0.58951510553E+02 -0.14241004216E+02 -0.86093471666E+01  0.61255266355E+02  0.00000000000E+00 0.  1.
</event>
<event>
 8    1  0.6945825E-009  0.1057610E+03  0.7561462E-02  0.1268628E+00
         -2   -1    0    0    0  501 -0.00000000000E+00  0.00000000000E+00  0.39021239389E+02  0.39021239389E+02  0.00000000000E+00 0.  1.
          2   -1    0    0  501    0  0.00000000000E+00 -0.00000000000E+00 -0.43088110678E+03  0.43088110678E+03  0.00000000000E+00 0. -1.
         25    2    1    2    0    0 -0.69012780907E+01 -0.13483857530E+02 -0.33930133741E+03  0.36194413745E+03  0.12509484007E+03 0.  0.
         23    2    1    2    0    0  0.69012780907E+01  0.13483857530E+02 -0.52558529975E+02  0.10795820871E+03  0.93075956627E+02 0.  0.
          5    1    3    3  502    0  0.15529464150E+02 -0.61994042280E+02 -0.24734676450E+03  0.25550405054E+03  0.41800000000E+01 0.  1.
         -5    1    3    3    0  502 -0.22430742241E+02  0.48510184750E+02 -0.91954572914E+02  0.10644008691E+03  0.41800000000E+01 0.  1.
        -11    1    4    4    0    0 -0.16700589263E+02 -0.35645094990E+02 -0.16980374891E+02  0.42869751691E+02  0.00000000000E+00 0.  1.
         11    1    4    4    0    0  0.23601867354E+02  0.49128952520E+02 -0.35578155084E+02  0.65088457022E+02  0.00000000000E+00 0. -1.
</event>
<event>
 8    1  0.6945825E-009  0.2675780E+03  0.7561462E-02  0.1102674E+00
         -3   -1    0    0    0  501 -0.00000000000E+00  0.00000000000E+00  0.14318687731E+03  0.14318687731E+03  0.00000000000E+00 0.  1.
          3   -1    0    0  501    0  0.00000000000E+00 -0.00000000000E+00 -0.60455000468E+03  0.60455000468E+03  0.00000000000E+00 0. -1.
         25    2    1    2    0    0  0.25899868937E+03 -0.35151803686E+02 -0.33556591388E+03  0.44336031987E+03  0.12509164754E+03 0.  0.
         23    2    1    2    0    0 -0.25899868937E+03  0.35151803686E+02 -0.12579721349E+03  0.30437656211E+03  0.92218123202E+02 0.  0.
          5    1    3    3  502    0  0.18030058132E+03 -0.16815989414E+02 -0.13148212724E+03  0.22382157918E+03  0.41800000000E+01 0. -1.
         -5    1    3    3    0  502  0.78698108049E+02 -0.18335814271E+02 -0.20408378664E+03  0.21953874069E+03  0.41800000000E+01 0. -1.
        -11    1    4    4    0    0 -0.12965950738E+03  0.57530757316E+02 -0.39352043973E+02  0.14720719839E+03  0.00000000000E+00 0.  1.
         11    1    4    4    0    0 -0.12933918198E+03 -0.22378953630E+02 -0.86445169514E+02  0.15716936373E+03  0.00000000000E+00 0. -1.
</event>
<event>
 8    1  0.6945825E-009  0.1255510E+03  0.7561462E-02  0.1234211E+00
          1   -1    0    0  501    0  0.00000000000E+00  0.00000000000E+00  0.22509932409E+03  0.22509932409E+03  0.00000000000E+00 0. -1.
         -1   -1    0    0    0  501 -0.00000000000E+00 -0.00000000000E+00 -0.70451110318E+02  0.70451110318E+02  0.00000000000E+00 0.  1.
         25    2    1    2    0    0  0.52960340604E+00 -0.64948573122E+02  0.91622217795E+02  0.16810886574E+03  0.12508941729E+03 0.  0.
         23    2    1    2    0    0 -0.52960340604E+00  0.64948573122E+02  0.63025995975E+02  0.12744156866E+03  0.89724465027E+02 0.  0.
          5    1    3    3  502    0  0.58938701252E+02 -0.91471801733E+01  0.33844945893E+02  0.68705124794E+02  0.41800000000E+01 0. -1.
         -5    1    3    3    0  502 -0.58409097846E+02 -0.55801392949E+02  0.57777271902E+02  0.99403740949E+02  0.41800000000E+01 0. -1.
        -11    1    4    4    0    0 -0.24411037534E+02  0.79019921409E+02  0.42760900886E+02  0.93105001893E+02  0.00000000000E+00 0. -1.
         11    1    4    4    0    0  0.23881434128E+02 -0.14071348286E+02  0.20265095089E+02  0.34336566770E+02  0.00000000000E+00 0.  1.
</event>
<event>
 8    1  0.6945825E-009  0.1598457E+03  0.7561462E-02  0.1188871E+00
          1   -1    0    0  501    0  0.00000000000E+00  0.00000000000E+00  0.77903565928E+03  0.77903565928E+03  0.00000000000E+00 0. -1.
         -1   -1    0    0    0  501 -0.00000000000E+00 -0.00000000000E+00 -0.37708856766E+02  0.37708856766E+02  0.00000000000E+00 0.  1.
         25    2    1    2    0    0  0.14186055321E+02  0.13144119745E+03  0.44139447223E+03  0.47744693797E+03  0.12509382839E+03 0.  0.
         23    2    1    2    0    0 -0.14186055321E+02 -0.13144119745E+03  0.29993233028E+03  0.33929757808E+03  0.87666477003E+02 0.  0.
          5    1    3    3  502    0  0.11235962941E+01 -0.17730721772E+02  0.10060336211E+02  0.20840434925E+02  0.41800000000E+01 0.  1.
         -5    1    3    3    0  502  0.13062459027E+02  0.14917191922E+03  0.43133413602E+03  0.45660650304E+03  0.41800000000E+01 0.  1.
        -11    1    4    4    0    0  0.30553691090E+02 -0.60301627725E+02  0.85570496325E+02  0.10905101644E+03  0.00000000000E+00 0.  1.
         11    1    4    4    0    0 -0.44739746410E+02 -0.71139569727E+02  0.21436183395E+03  0.23024656164E+03  0.00000000000E+00 0. -1.
</event>
<event>
 8    1  0.6945825E-009  0.1283154E+03  0.7561462E-02  0.1229977E+00
         -1   -1    0    0    0  501 -0.00000000000E+00  0.00000000000E+00  0.24185025413E+03  0.24185025413E+03  0.00000000000E+00 0.  1.
          1   -1    0    0  501    0  0.00000000000E+00 -0.00000000000E+00 -0.91332667012E+02  0.91332667012E+02  0.00000000000E+00 0. -1.
         25    2    1    2    0    0  0.12062326210E+02  0.80454076862E+02  0.14875106725E+03  0.21069668537E+03  0.12509138666E+03 0.  0.
         23    2    1    2    0    0 -0.12062326210E+02 -0.80454076862E+02  0.17665198666E+01  0.12248623578E+03  0.91549981788E+02 0.  0.
          5    1    3    3  502    0  0.33782043457E+02  0.99432525395E+02  0.14802847554E+03  0.18154326078E+03  0.41800000000E+01 0. -1.
         -5    1    3    3    0  502 -0.21719717247E+02 -0.18978448533E+02  0.72259171721E+00  0.29153424581E+02  0.41800000000E+01 0. -1.
        -11    1    4    4    0    0  0.39968552216E+02 -0.30705088276E+02 -0.15167345886E+01  0.50424082501E+02  0.00000000000E+00 0.  1.
         11    1    4    4    0    0 -0.52030878426E+02 -0.49748988586E+02  0.32832544553E+01  0.72062153277E+02  0.00000000000E+00 0. -1.
</event>
<event>
 8    1  0.6945825E-009  0.1154172E+03  0.7561462E-02  0.1250855E+00
          1   -1    0    0  501    0  0.00000000000E+00  0.00000000000E+00  0.26100281171E+02  0.26100281171E+02  0.00000000000E+00 0. -1.
         -1   -1    0    0    0  501 -0.00000000000E+00 -0.00000000000E+00 -0.57380132194E+03  0.57380132194E+03  0.00000000000E+00 0.  1.
         25    2    1    2    0    0 -0.45433387922E+02  0.94441534171E+00 -0.22002969544E+03  0.25714951989E+03  0.12509086316E+03 0.  0.
         23    2    1    2    0    0  0.45433387922E+02 -0.94441534171E+00 -0.32767134533E+03  0.34275208322E+03  0.89696127807E+02 0.  0.
          5    1    3    3  502    0  0.40573452020E+02 -0.13526837172E+02 -0.98871001936E+02  0.10780597273E+03  0.41800000000E+01 0.  1.
         -5    1    3    3    0  502 -0.86006839942E+02  0.14471252514E+02 -0.12115869350E+03  0.14934354716E+03  0.41800000000E+01 0.  1.
        -11    1    4    4    0    0  0.68683999874E+02  0.17487741396E+02 -0.22939579150E+03  0.24009527712E+03  0.00000000000E+00 0.  1.
         11    1    4    4    0    0 -0.23250611952E+02 -0.18432156737E+02 -0.98275553829E+02  0.10265680610E+03  0.00000000000E+00 0. -1.
</event>
<event>
 8    1  0.6945825E-009  0.1060751E+03  0.7561462E-02  0.1268016E+00
         -1   -1    0    0    0  501 -0.00000000000E+00  0.00000000000E+00  0.43137248782E+02  0.43137248782E+02  0.00000000000E+00 0.  1.
          1   -1    0    0  501    0  0.00000000000E+00 -0.00000000000E+00 -0.54993005141E+03  0.54993005141E+03  0.00000000000E+00 0. -1.
         25    2    1    2    0    0 -0.32064964819E+02 -0.55029349952E+02 -0.99354660030E+02  0.17197632732E+03  0.12509243527E+03 0.  0.
         23    2    1    2    0    0  0.32064964819E+02  0.55029349952E+02 -0.40743814260E+03  0.42109097288E+03  0.85178495342E+02 0.  0.
          5    1    3    3  502    0 -0.70184999991E+02 -0.54359198274E+02 -0.99779094751E+02  0.13361959740E+03  0.41800000000E+01 0.  1.
         -5    1    3    3    0  502  0.38120035172E+02 -0.67015167825E+00  0.42443472041E+00  0.38356729913E+02  0.41800000000E+01 0.  1.
        -11    1    4    4    0    0  0.19827816475E+02 -0.75065995497E+01 -0.22503113027E+02  0.30917332338E+02  0.00000000000E+00 0.  1.
         11    1    4    4    0    0  0.12237148343E+02  0.62535949502E+02 -0.38493502958E+03  0.39017364054E+03  0.00000000000E+00 0. -1.
</event>
<event>
 8    1  0.6945825E-009  0.1037244E+03  0.7561462E-02  0.1272653E+00
          2   -1    0    0  501    0  0.00000000000E+00  0.00000000000E+00  0.44269468185E+02  0.44269468185E+02  0.00000000000E+00 0. -1.
         -2   -1    0    0    0  501 -0.00000000000E+00 -0.00000000000E+00 -0.33965701417E+03  0.33965701417E+03  0.00000000000E+00 0.  1.
         25    2    1    2    0    0 -0.11534353531E+02  0.29403052718E+02 -0.23830426562E+03  0.27098678137E+03  0.12508929547E+03 0.  0.
         23    2    1    2    0    0  0.11534353531E+02 -0.29403052718E+02 -0.57083280357E+02  0.11293970098E+03  0.92191617519E+02 0.  0.
          5    1    3    3  502    0  0.32657415601E+02  0.52521318413E+02 -0.61828094634E+02  0.87551021511E+02  0.41800000000E+01 0.  1.
         -5    1    3    3    0  502 -0.44191769132E+02 -0.23118265695E+02 -0.17647617099E+03  0.18343575986E+03  0.41800000000E+01 0.  1.
        -11    1    4    4    0    0  0.39741838004E+02 -0.47474391398E+02 -0.25697277232E+02  0.67034182204E+02  0.00000000000E+00 0. -1.
         11    1    4    4    0    0 -0.28207484473E+02  0.18071338680E+02 -0.31386003125E+02  0.45905518777E+02  0.00000000000E+00 0.  1.
</event>
<event>
 8    1  0.6945825E-009  0.8515102E+02  0.7561462E-02  0.1315038E+00
         -2   -1    0    0    0  501 -0.00000000000E+00  0.00000000000E+00  0.56279491064E+02  0.56279491064E+02  0.00000000000E+00 0. -1.
          2   -1    0    0  501    0  0.00000000000E+00 -0.00000000000E+00 -0.52228012662E+03  0.52228012662E+03  0.00000000000E+00 0.  1.
         25    2    1    2    0    0 -0.11913857422E+02 -0.53838435965E+02 -0.44689547355E+03  0.46733671250E+03  0.12509005311E+03 0.  0.
         23    2    1    2    0    0  0.11913857422E+02  0.53838435965E+02 -0.19105162006E+02  0.11122290518E+03  0.94683737970E+02 0.  0.
          5    1    3    3  502    0 -0.46557479884E+02 -0.50065062882E+02 -0.41266204881E+03  0.41830795879E+03  0.41800000000E+01 0. -1.
         -5    1    3    3    0  502  0.34643622462E+02 -0.37733730822E+01 -0.34233424737E+02  0.49028753716E+02  0.41800000000E+01 0. -1.
        -11    1    4    4    0    0  0.19053115387E+02  0.85892336476E+01 -0.51192163876E+02  0.55294066435E+02  0.00000000000E+00 0.  1.
         11    1    4    4    0    0 -0.71392579654E+01  0.45249202317E+02  0.32087001870E+02  0.55928838747E+02  0.00000000000E+00 0. -1.
</event>
<event>
 8    1  0.6945825E-009  0.1196533E+03  0.7561462E-02  0.1243670E+00
          3   -1    0    0  501    0  0.00000000000E+00  0.00000000000E+00  0.29813830571E+03  0.29813830571E+03  0.00000000000E+00 0. -1.
         -3   -1    0    0    0  501 -0.00000000000E+00 -0.00000000000E+00 -0.70321670903E+02  0.70321670903E+02  0.00000000000E+00 0.  1.
         25    2    1    2    0    0 -0.42204994960E+01 -0.74976181547E+02  0.19771613488E+03  0.24571999604E+03  0.12508959208E+03 0.  0.
         23    2    1    2    0    0  0.42204994960E+01  0.74976181547E+02  0.30100499926E+02  0.12273998057E+03  0.92302883594E+02 0.  0.
          5    1    3    3  502    0  0.48439457714E+02 -0.17987197366E+02  0.13891699631E+03  0.14827449072E+03  0.41800000000E+01 0. -1.
         -5    1    3    3    0  502 -0.52659957210E+02 -0.56988984181E+02  0.58799138566E+02  0.97445505322E+02  0.41800000000E+01 0. -1.
        -11    1    4    4    0    0 -0.26914855744E+02 -0.17354553252E+01  0.29469220007E+02  0.39948168828E+02  0.00000000000E+00 0. -1.
         11    1    4    4    0    0  0.31135355240E+02  0.76711636873E+02  0.63127991884E+00  0.82791811744E+02  0.00000000000E+00 0.  1.
</event>
<event>
 8    1  0.6945825E-009  0.1304515E+03  0.7561462E-02  0.1226787E+00
         -1   -1    0    0    0  501 -0.00000000000E+00  0.00000000000E+00  0.22845673704E+02  0.22845673704E+02  0.00000000000E+00 0.  1.
          1   -1    0    0  501    0  0.00000000000E+00 -0.00000000000E+00 -0.77970383925E+03  0.77970383925E+03  0.00000000000E+00 0. -1.
         25    2    1    2    0    0  0.87346956831E+01  0.76488373928E+02 -0.41979708130E+03  0.44475088909E+03  0.12508795954E+03 0.  0.
         23    2    1    2    0    0 -0.87346956831E+01 -0.76488373928E+02 -0.33706108424E+03  0.35779862386E+03  0.92102738680E+02 0.  0.
          5    1    3    3  502    0  0.52496195872E+02  0.83419345414E+02 -0.33157412943E+03  0.34593859784E+03  0.41800000000E+01 0.  1.
         -5    1    3    3    0  502 -0.43761500189E+02 -0.69309714854E+01 -0.88222951874E+02  0.98812291249E+02  0.41800000000E+01 0.  1.
        -11    1    4    4    0    0  0.39851946245E+02 -0.43643967644E+02 -0.20395211445E+03  0.21234273832E+03  0.00000000000E+00 0.  1.
         11    1    4    4    0    0 -0.48586641928E+02 -0.32844406285E+02 -0.13310896980E+03  0.14545588554E+03  0.00000000000E+00 0. -1.
</event>
<event>
 8    1  0.6945825E-009  0.8242680E+02  0.7561462E-02  0.1322302E+00
          2   -1    0    0  501    0  0.00000000000E+00  0.00000000000E+00  0.39450883602E+03  0.39450883602E+03  0.00000000000E+00 0. -1.
         -2   -1    0    0    0  501 -0.00000000000E+00 -0.00000000000E+00 -0.36285673565E+02  0.36285673565E+02  0.00000000000E+00 0.  1.
         25    2    1    2    0    0  0.17705298974E+02  0.35168328148E+02  0.15539851977E+03  0.20333696603E+03  0.12508770079E+03 0.  0.
         23    2    1    2    0    0 -0.17705298974E+02 -0.35168328148E+02  0.20282464269E+03  0.22745754356E+03  0.95125230747E+02 0.  0.
          5    1    3    3  502    0 -0.24976447813E+02  0.40666055576E+02  0.15267472900E+03  0.16001436278E+03  0.41800000000E+01 0. -1.
         -5    1    3    3    0  502  0.42681746787E+02 -0.54977274276E+01  0.27237907690E+01  0.43322603244E+02  0.41800000000E+01 0. -1.
        -11    1    4    4    0    0  0.16276558732E+01 -0.49573818731E+02  0.19631552102E+03  0.20248455882E+03  0.00000000000E+00 0. -1.
         11    1    4    4    0    0 -0.19332954847E+02  0.14405490583E+02  0.65091216700E+01  0.24972984743E+02  0.00000000000E+00 0.  1.
</event>
<event>
 8    1  0.6945825E-009  0.1972245E+03  0.7561462E-02  0.1152102E+00
         -1   -1    0    0    0  501 -0.00000000000E+00  0.00000000000E+00  0.15625087145E+03  0.15625087145E+03  0.00000000000E+00 0.  1.
          1   -1    0    0  501    0  0.00000000000E+00 -0.00000000000E+00 -0.30617036527E+03  0.30617036527E+03  0.00000000000E+00 0. -1.
         25    2    1    2    0    0 -0.14221651822E+03 -0.12100933334E+03 -0.90420508842E+02  0.24226385648E+03  0.12508841245E+03 0.  0.
         23    2    1    2    0    0  0.14221651822E+03  0.12100933334E+03 -0.59498984975E+02  0.22015738025E+03  0.10030127643E+03 0.  0.
          5    1    3    3  502    0 -0.18271499001E+02  0.86236003650E+01  0.22307629760E+02  0.30386130134E+02  0.41800000000E+01 0.  1.
         -5    1    3    3    0  502 -0.12394501922E+03 -0.12963293370E+03 -0.11272813860E+03  0.21187772635E+03  0.41800000000E+01 0.  1.
        -11    1    4    4    0    0  0.14030785136E+03  0.97567320230E+02 -0.17200983159E+02  0.17176014948E+03  0.00000000000E+00 0. -1.
         11    1    4    4    0    0  0.19086668646E+01  0.23442013106E+02 -0.42298001816E+02  0.48397230761E+02  0.00000000000E+00 0.  1.
</event>
<event>
 8    1  0.6945825E-009  0.9792495E+02  0.7561462E-02  0.1284721E+00
         -2   -1    0    0    0  501 -0.00000000000E+00  0.00000000000E+00  0.48768524128E+02  0.48768524128E+02  0.00000000000E+00 0.  1.
          2   -1    0    0  501    0  0.00000000000E+00 -0.00000000000E+00 -0.39183073072E+03  0.39183073072E+03  0.00000000000E+00 0. -1.
         25    2    1    2    0    0 -0.58831528995E+02 -0.48317579975E+01 -0.28709661420E+03  0.31867668830E+03  0.12508345651E+03 0.  0.
         23    2    1    2    0    0  0.58831528995E+02  0.48317579975E+01 -0.55965592397E+02  0.12192256655E+03  0.90821087930E+02 0.  0.
          5    1    3    3  502    0  0.73622909436E+01 -0.21698147303E+02  0.25013863254E+00  0.23292657505E+02  0.41800000000E+01 0.  1.
         -5    1    3    3    0  502 -0.66193819938E+02  0.16866389305E+02 -0.28734675283E+03  0.29538403080E+03  0.41800000000E+01 0.  1.
        -11    1    4    4    0    0  0.25577450521E+02 -0.40500300606E+02 -0.91615772298E+01  0.48768994470E+02  0.00000000000E+00 0.  1.
         11    1    4    4    0    0  0.33254078474E+02  0.45332058603E+02 -0.46804015167E+02  0.73153572081E+02  0.00000000000E+00 0. -1.
</event>
<event>
 8    1  0.6945825E-009  0.1058070E+03  0.7561462E-02  0.1268538E+00
          2   -1    0    0  501    0  0.00000000000E+00  0.00000000000E+00  0.78820507937E+03  0.78820507937E+03  0.00000000000E+00 0. -1.
         -2   -1    0    0    0  501 -0.00000000000E+00 -0.00000000000E+00 -0.16962609719E+02  0.16962609719E+02  0.00000000000E+00 0.  1.
         25    2    1    2    0    0 -0.36241734262E+02 -0.58185623879E+00  0.36981266854E+03  0.39207484182E+03  0.12508984735E+03 0.  0.
         23    2    1    2    0    0  0.36241734262E+02  0.58185623879E+00  0.40142980111E+03  0.41309284728E+03  0.90476590300E+02 0.  0.
          5    1    3    3  502    0 -0.24580454256E+02 -0.53945528539E+02  0.28483907007E+03  0.29097265682E+03  0.41800000000E+01 0.  1.
         -5    1    3    3    0  502 -0.11661280006E+02  0.53363672300E+02  0.84973598474E+02  0.10110218499E+03  0.41800000000E+01 0.  1.
        -11    1    4    4    0    0  0.60963574230E+01 -0.43540573409E+02  0.18870071174E+03  0.19375475663E+03  0.00000000000E+00 0.  1.
         11    1    4    4    0    0  0.30145376839E+02  0.44122429648E+02  0.21272908937E+03  0.21933809065E+03  0.00000000000E+00 0. -1.
</event>
<event>
 8    1  0.6945825E-009  0.9398334E+02  0.7561462E-02  0.1293482E+00
          2   -1    0    0  501    0  0.00000000000E+00  0.00000000000E+00  0.26621651056E+03  0.26621651056E+03  0.00000000000E+00 0. -1.
         -2   -1    0    0    0  501 -0.00000000000E+00 -0.00000000000E+00 -0.54080865508E+02  0.54080865508E+02  0.00000000000E+00 0.  1.
         25    2    1    2    0    0 -0.22219162662E+01 -0.49411708479E+02  0.14520791980E+03  0.19793848406E+03  0.12509136523E+03 0.  0.
         23    2    1    2    0    0  0.22219162662E+01  0.49411708479E+02  0.66927725256E+02  0.12235889201E+03  0.89699075795E+02 0.  0.
          5    1    3    3  502    0  0.10838565289E+02 -0.68225202562E+02  0.22102198143E+02  0.72650755845E+02  0.41800000000E+01 0.  1.
         -5    1    3    3    0  502 -0.13060481556E+02  0.18813494082E+02  0.12310572165E+03  0.12528772822E+03  0.41800000000E+01 0.  1.
        -11    1    4    4    0    0 -0.39733813123E+02  0.24748088714E+02  0.55051441075E+02  0.72262749496E+02  0.00000000000E+00 0.  1.
         11    1    4    4    0    0  0.41955729389E+02  0.24663619765E+02  0.11876284181E+02  0.50096142511E+02  0.00000000000E+00 0. -1.
</event>
<event>
 8    1  0.6945825E-009  0.1150581E+03  0.7561462E-02  0.1251480E+00
         -1   -1    0    0    0  501 -0.00000000000E+00  0.00000000000E+00  0.30808646728E+02  0.30808646728E+02  0.00000000000E+00 0.  1.
          1   -1    0    0  501    0  0.00000000000E+00 -0.00000000000E+00 -0.46149299227E+03  0.46149299227E+03  0.00000000000E+00 0. -1.
         25    2    1    2    0    0  0.37181017459E+02  0.53769997332E+01 -0.19032415960E+03  0.23082917574E+03  0.12508989751E+03 0.  0.
         23    2    1    2    0    0 -0.37181017459E+02 -0.53769997332E+01 -0.24036018594E+03  0.26147246326E+03  0.95830526834E+02 0.  0.
          5    1    3    3  502    0  0.51709322119E+02  0.56315450676E+02 -0.98764916280E+02  0.12496905644E+03  0.41800000000E+01 0. -1.
         -5    1    3    3    0  502 -0.14528304660E+02 -0.50938450943E+02 -0.91559243323E+02  0.10586011930E+03  0.41800000000E+01 0. -1.
        -11    1    4    4    0    0 -0.46717157561E+02 -0.41845820773E+02 -0.12080334812E+03  0.13611397593E+03  0.00000000000E+00 0.  1.
         11    1    4    4    0    0  0.95361401013E+01  0.36468821040E+02 -0.11955683783E+03  0.12535848734E+03  0.00000000000E+00 0. -1.
</event>
<event>
 8    1  0.6945825E-009  0.1153072E+03  0.7561462E-02  0.1251046E+00
          2   -1    0    0  501    0  0.00000000000E+00  0.00000000000E+00  0.91888095620E+02  0.91888095620E+02  0.00000000000E+00 0. -1.
         -2   -1    0    0    0  501 -0.00000000000E+00 -0.00000000000E+00 -0.24106854575E+03  0.24106854575E+03  0.00000000000E+00 0.  1.
         25    2    1    2    0    0 -0.51972413326E+02  0.27604857646E+02  0.61320799079E+01  0.13837708184E+03  0.12508978560E+03 0.  0.
         23    2    1    2    0    0  0.51972413326E+02 -0.27604857646E+02 -0.15531253004E+03  0.19457955953E+03  0.10137091835E+03 0.  0.
          5    1    3    3  502    0  0.24458039671E+01 -0.35129428025E+02 -0.31195517292E+02  0.47230195527E+02  0.41800000000E+01 0. -1.
         -5    1    3    3    0  502 -0.54418217293E+02  0.62734285671E+02  0.37327597200E+02  0.91146886314E+02  0.41800000000E+01 0. -1.
        -11    1    4    4    0    0  0.14475201601E+02 -0.60445549451E+02 -0.56911671671E+02  0.84274161415E+02  0.00000000000E+00 0.  1.
         11    1    4    4    0    0  0.37497211725E+02  0.32840691805E+02 -0.98400858366E+02  0.11030539811E+03  0.00000000000E+00 0. -1.
</event>
<event>
 8    1  0.6945825E-009  0.1059096E+03  0.7561462E-02  0.1268338E+00
          2   -1    0    0  501    0  0.00000000000E+00  0.00000000000E+00  0.83648192158E+03  0.83648192158E+03  0.00000000000E+00 0.  1.
         -2   -1    0    0    0  501 -0.00000000000E+00 -0.00000000000E+00 -0.22101366897E+02  0.22101366897E+02  0.00000000000E+00 0. -1.
         25    2    1    2    0    0 -0.23710022780E+01  0.60381596050E+02  0.65348090871E+03  0.66808287597E+03  0.12508346141E+03 0.  0.
         23    2    1    2    0    0  0.23710022780E+01 -0.60381596050E+02  0.16089964597E+03  0.19050041250E+03  0.82159310481E+02 0.  0.
          5    1    3    3  502    0  0.48479870926E+02  0.69833694936E+02  0.35021230968E+03  0.36040696037E+03  0.41800000000E+01 0.  1.
         -5    1    3    3    0  502 -0.50850873204E+02 -0.94520988857E+01  0.30326859904E+03  0.30767591560E+03  0.41800000000E+01 0.  1.
        -11    1    4    4    0    0  0.21329368537E+02 -0.16351533925E+02  0.13160226496E+03  0.13431854216E+03  0.00000000000E+00 0.  1.
         11    1    4    4    0    0 -0.18958366259E+02 -0.44030062125E+02  0.29297381003E+02  0.56181870346E+02  0.00000000000E+00 0. -1.
</event>
<event>
 8    1  0.6945825E-009  0.9535960E+02  0.7561462E-02  0.1290368E+00
          1   -1    0    0  501    0  0.00000000000E+00  0.00000000000E+00  0.88741769781E+02  0.88741769781E+02  0.00000000000E+00 0. -1.
         -1   -1    0    0    0  501 -0.00000000000E+00 -0.00000000000E+00 -0.14765850704E+03  0.14765850704E+03  0.00000000000E+00 0.  1.
         25    2    1    2    0    0  0.25584783322E+02 -0.24308526525E+02 -0.39244932766E+02  0.13577325202E+03  0.12509486646E+03 0.  0.
         23    2    1    2    0    0 -0.25584783322E+02  0.24308526525E+02 -0.19671804496E+02  0.10062702481E+03  0.92159278590E+02 0.  0.
          5    1    3    3  502    0 -0.26078213072E+02 -0.47411392445E+02 -0.54600971212E+02  0.76984750360E+02  0.41800000000E+01 0. -1.
         -5    1    3    3    0  502  0.51662996394E+02  0.23102865920E+02  0.15356038446E+02  0.58788501656E+02  0.41800000000E+01 0. -1.
        -11    1    4    4    0    0  0.24800750120E+02  0.13238881465E+02 -0.36764840375E+02  0.46281731566E+02  0.00000000000E+00 0.  1.
         11    1    4    4    0    0 -0.50385533442E+02  0.11069645060E+02  0.17093035879E+02  0.54345293242E+02  0.00000000000E+00 0. -1.
</event>
<event>
 8    1  0.6945825E-009  0.8672899E+02  0.7561462E-02  0.1310972E+00
          1   -1    0    0  501    0  0.00000000000E+00  0.00000000000E+00  0.18829786165E+03  0.18829786165E+03  0.00000000000E+00 0. -1.
         -1   -1    0    0    0  501 -0.00000000000E+00 -0.00000000000E+00 -0.77065574532E+02  0.77065574532E+02  0.00000000000E+00 0.  1.
         25    2    1    2    0    0 -0.31556654847E+02 -0.29839547533E+02  0.94424908975E+02  0.16263350817E+03  0.12508946192E+03 0.  0.
         23    2    1    2    0    0  0.31556654847E+02  0.29839547533E+02  0.16807378143E+02  0.10272992801E+03  0.91568166342E+02 0.  0.
          5    1    3    3  502    0  0.35423959631E+02  0.27488100152E+01  0.78614222272E+02  0.86371761681E+02  0.41800000000E+01 0. -1.
         -5    1    3    3    0  502 -0.66980614477E+02 -0.32588357548E+02  0.15810686703E+02  0.76261746488E+02  0.41800000000E+01 0. -1.
        -11    1    4    4    0    0  0.40683040771E+02  0.10999871865E+02  0.48811305492E+02  0.64487599826E+02  0.00000000000E+00 0. -1.
         11    1    4    4    0    0 -0.91263859249E+01  0.18839675667E+02 -0.32003927349E+02  0.38242328186E+02  0.00000000000E+00 0.  1.
</event>
<event>
 8    1  0.6945825E-009  0.1183414E+03  0.7561462E-02  0.1245859E+00
          3   -1    0    0  501    0  0.00000000000E+00  0.00000000000E+00  0.16724862694E+03  0.16724862694E+03  0.00000000000E+00 0. -1.
         -3   -1    0    0    0  501 -0.00000000000E+00 -0.00000000000E+00 -0.11538290439E+03  0.11538290439E+03  0.00000000000E+00 0.  1.
         25    2    1    2    0    0 -0.56368292634E+02 -0.64774280907E+02  0.35304923101E+02  0.15578096767E+03  0.12509268728E+03 0.  0.
         23    2    1    2    0    0  0.56368292634E+02  0.64774280907E+02  0.16560799452E+02  0.12685056366E+03  0.91889681364E+02 0.  0.
          5    1    3    3  502    0 -0.25641901382E+02 -0.87415689563E+02  0.60878794123E+02  0.10964811837E+03  0.41800000000E+01 0. -1.
         -5    1    3    3    0  502 -0.30726391253E+02  0.22641408656E+02 -0.25573871022E+02  0.46132849298E+02  0.41800000000E+01 0. -1.
        -11    1    4    4    0    0 -0.94351601532E+01  0.32420194473E+02  0.37628507372E+02  0.50556857337E+02  0.00000000000E+00 0. -1.
         11    1    4    4    0    0  0.65803452788E+02  0.32354086434E+02 -0.21067707919E+02  0.76293706324E+02  0.00000000000E+00 0.  1.
</event>
<event>
 8    1  0.6945825E-009  0.1091902E+03  0.7561462E-02  0.1262077E+00
          1   -1    0    0  501    0  0.00000000000E+00  0.00000000000E+00  0.55850568554E+03  0.55850568554E+03  0.00000000000E+00 0. -1.
         -1   -1    0    0    0  501 -0.00000000000E+00 -0.00000000000E+00 -0.23825868691E+02  0.23825868691E+02  0.00000000000E+00 0.  1.
         25    2    1    2    0    0 -0.16556782061E+02 -0.65016419209E+01  0.39482077985E+03  0.41454476646E+03  0.12509003484E+03 0.  0.
         23    2    1    2    0    0  0.16556782061E+02  0.65016419209E+01  0.13985903700E+03  0.16778678777E+03  0.90969541833E+02 0.  0.
          5    1    3    3  502    0 -0.67574950839E+02  0.16561664618E+02  0.23687977527E+03  0.24692137018E+03  0.41800000000E+01 0.  1.
         -5    1    3    3    0  502  0.51018168778E+02 -0.23063306539E+02  0.15794100458E+03  0.16762339628E+03  0.41800000000E+01 0.  1.
        -11    1    4    4    0    0 -0.11880894964E+02 -0.37949495813E+02  0.55301996653E+02  0.68114834885E+02  0.00000000000E+00 0.  1.
         11    1    4    4    0    0  0.28437677025E+02  0.44451137734E+02  0.84557040345E+02  0.99671952888E+02  0.00000000000E+00 0. -1.
</event>
<event>
 8    1  0.6945825E-009  0.1399595E+03  0.7561462E-02  0.1213383E+00
         -2   -1    0    0    0  501 -0.00000000000E+00  0.00000000000E+00  0.82671295598E+02  0.82671295598E+02  0.00000000000E+00 0.  1.
          2   -1    0    0  501    0  0.00000000000E+00 -0.00000000000E+00 -0.27803157991E+03  0.27803157991E+03  0.00000000000E+00 0. -1.
         25    2    1    2    0    0 -0.96696294855E+02 -0.31271464591E+02 -0.75005020030E+02  0.17777812571E+03  0.12510488006E+03 0.  0.
         23    2    1    2    0    0  0.96696294855E+02  0.31271464591E+02 -0.12035526428E+03  0.18292474980E+03  0.92994604742E+02 0.  0.
          5    1    3    3  502    0  0.30253864423E+02 -0.98225628391E+01 -0.10831384428E+02  0.33861044607E+02  0.41800000000E+01 0.  1.
         -5    1    3    3    0  502 -0.12695015928E+03 -0.21448901752E+02 -0.64173635602E+02  0.14391708110E+03  0.41800000000E+01 0.  1.
        -11    1    4    4    0    0  0.26785451068E+02  0.40444273115E+02 -0.64151247226E+01  0.48932130976E+02  0.00000000000E+00 0.  1.
         11    1    4    4    0    0  0.69910843787E+02 -0.91728085239E+01 -0.11394013956E+03  0.13399261882E+03  0.00000000000E+00 0. -1.
</event>
<event>
 8    1  0.6945825E-009  0.9135621E+02  0.7561462E-02  0.1299600E+00
          2   -1    0    0  501    0  0.00000000000E+00  0.00000000000E+00  0.32490537127E+03  0.32490537127E+03  0.00000000000E+00 0.  1.
         -2   -1    0    0    0  501 -0.00000000000E+00 -0.00000000000E+00 -0.39898558770E+02  0.39898558770E+02  0.00000000000E+00 0. -1.
         25    2    1    2    0    0 -0.82776166313E+00 -0.59302502070E+00  0.11460413553E+03  0.16965221421E+03  0.12508688596E+03 0.  0.
         23    2    1    2    0    0  0.82776166313E+00  0.59302502070E+00  0.17040267696E+03  0.19515171582E+03  0.95110898447E+02 0.  0.
          5    1    3    3  502    0 -0.42173534728E+02  0.16316701239E+02 -0.12337141468E+01  0.45429464242E+02  0.41800000000E+01 0.  1.
         -5    1    3    3    0  502  0.41345773065E+02 -0.16909726259E+02  0.11583784968E+03  0.12422274997E+03  0.41800000000E+01 0.  1.
        -11    1    4    4    0    0 -0.40811644537E+02  0.21184013959E+02  0.61785101056E+02  0.77017864744E+02  0.00000000000E+00 0. -1.
         11    1    4    4    0    0  0.41639406201E+02 -0.20590988938E+02  0.10861757591E+03  0.11813385108E+03  0.00000000000E+00 0.  1.
</event>
<event>
 8    1  0.6945825E-009  0.1975128E+03  0.7561462E-02  0.1151855E+00
          1   -1    0    0  501    0  0.00000000000E+00  0.00000000000E+00  0.11067647515E+04  0.11067647515E+04  0.00000000000E+00 0. -1.
         -1   -1    0    0    0  501 -0.00000000000E+00 -0.00000000000E+00 -0.51239579732E+02  0.51239579732E+02  0.00000000000E+00 0.  1.
         25    2    1    2    0    0 -0.11877275544E+03 -0.13145828790E+03  0.82618395491E+03  0.85417491934E+03  0.12508643642E+03 0.  0.
         23    2    1    2    0    0  0.11877275544E+03  0.13145828790E+03  0.22934121685E+03  0.30382941189E+03  0.91250582948E+02 0.  0.
          5    1    3    3  502    0 -0.14234684231E+03 -0.12868428111E+03  0.75527497991E+03  0.77928174327E+03  0.41800000000E+01 0.  1.
         -5    1    3    3    0  502  0.23574086863E+02 -0.27740067881E+01  0.70908975000E+02  0.74893176062E+02  0.41800000000E+01 0.  1.
        -11    1    4    4    0    0  0.29869568278E+02  0.50885526381E+02  0.19562975322E+02  0.62162994681E+02  0.00000000000E+00 0.  1.
         11    1    4    4    0    0  0.88903187166E+02  0.80572761520E+02  0.20977824153E+03  0.24166641721E+03  0.00000000000E+00 0. -1.
</event>
<event>
 8    1  0.6945825E-009  0.1776830E+03  0.7561462E-02  0.1170065E+00
         -3   -1    0    0    0  501 -0.00000000000E+00  0.00000000000E+00  0.33898135805E+02  0.33898135805E+02  0.00000000000E+00 0.  1.
          3   -1    0    0  501    0  0.00000000000E+00 -0.00000000000E+00 -0.10471478565E+04  0.10471478565E+04  0.00000000000E+00 0. -1.
         25    2    1    2    0    0 -0.84919634373E+00 -0.15340822109E+03 -0.56008641155E+03  0.59403545677E+03  0.12508609863E+03 0.  0.
         23    2    1    2    0    0  0.84919634373E+00  0.15340822109E+03 -0.45316330920E+03  0.48701053558E+03  0.91035561908E+02 0.  0.
          5    1    3    3  502    0 -0.46676116080E+02 -0.38849911455E+02 -0.94893145275E+02  0.11273933144E+03  0.41800000000E+01 0.  1.
         -5    1    3    3    0  502  0.45826919736E+02 -0.11455830964E+03 -0.46519326627E+03  0.48129612534E+03  0.41800000000E+01 0.  1.
        -11    1    4    4    0    0 -0.29666653437E+02  0.12780919984E+03 -0.39727350133E+03  0.41837965623E+03  0.00000000000E+00 0. -1.
         11    1    4    4    0    0  0.30515849781E+02  0.25599021249E+02 -0.55889807869E+02  0.68630879350E+02  0.00000000000E+00 0.  1.
</event>
<event>
 8    1  0.6945825E-009  0.8010184E+02  0.7561462E-02  0.1328763E+00
         -1   -1    0    0    0  501 -0.00000000000E+00  0.00000000000E+00  0.66520152265E+02  0.66520152265E+02  0.00000000000E+00 0. -1.
          1   -1    0    0  501    0  0.00000000000E+00 -0.00000000000E+00 -0.18249106740E+03  0.18249106740E+03  0.00000000000E+00 0.  1.
         25    2    1    2    0    0  0.17497258031E+02 -0.23199236695E+02 -0.61593510536E+02  0.14243032840E+03  0.12509308248E+03 0.  0.
         23    2    1    2    0    0 -0.17497258031E+02  0.23199236695E+02 -0.54377404600E+02  0.10658089127E+03  0.86938056286E+02 0.  0.
          5    1    3    3  502    0  0.42549478570E+02 -0.34136001976E+02  0.18455792211E+02  0.57739184473E+02  0.41800000000E+01 0. -1.
         -5    1    3    3    0  502 -0.25052220539E+02  0.10936765281E+02 -0.80049302747E+02  0.84691143924E+02  0.41800000000E+01 0. -1.
        -11    1    4    4    0    0 -0.21959579678E+02 -0.22782406072E+02  0.42633386841E+01  0.31928627011E+02  0.00000000000E+00 0. -1.
         11    1    4    4    0    0  0.44623216469E+01  0.45981642766E+02 -0.58640743284E+02  0.74652264258E+02  0.00000000000E+00 0.  1.
</event>
<event>
 8    1  0.6945825E-009  0.7476999E+02  0.7561462E-02  0.1344585E+00
         -2   -1    0    0    0  501 -0.00000000000E+00  0.00000000000E+00  0.20340316568E+03  0.20340316568E+03  0.00000000000E+00 0.  1.
          2   -1    0    0  501    0  0.00000000000E+00 -0.00000000000E+00 -0.59679866617E+02  0.59679866617E+02  0.00000000000E+00 0. -1.
         25    2    1    2    0    0 -0.74051063639E+01  0.30077895552E+01  0.57815942572E+02  0.13803278530E+03  0.12508590730E+03 0.  0.
         23    2    1    2    0    0  0.74051063639E+01 -0.30077895552E+01  0.85907356492E+02  0.12505024700E+03  0.90518550452E+02 0.  0.
          5    1    3    3  502    0 -0.28731865578E+02 -0.13024872924E+02 -0.31468178425E+02  0.44753615136E+02  0.41800000000E+01 0. -1.
         -5    1    3    3    0  502  0.21326759215E+02  0.16032662479E+02  0.89284120998E+02  0.93279170167E+02  0.41800000000E+01 0. -1.
        -11    1    4    4    0    0  0.18751242583E+02 -0.44185273657E+02  0.49142047597E+02  0.68694165317E+02  0.00000000000E+00 0. -1.
         11    1    4    4    0    0 -0.11346136220E+02  0.41177484102E+02  0.36765308895E+02  0.56356081679E+02  0.00000000000E+00 0.  1.
</event>
<event>
 8    1  0.6945825E-009  0.8603300E+02  0.7561462E-02  0.1312753E+00
          1   -1    0    0  501    0  0.00000000000E+00  0.00000000000E+00  0.13318488952E+03  0.13318488952E+03  0.00000000000E+00 0. -1.
         -1   -1    0    0    0  501 -0.00000000000E+00 -0.00000000000E+00 -0.10688198340E+03  0.10688198340E+03  0.00000000000E+00 0.  1.
         25    2    1    2    0    0 -0.44487991860E+02 -0.22853133008E+02  0.69377416615E+01  0.13489669071E+03  0.12509011870E+03 0.  0.
         23    2    1    2    0    0  0.44487991860E+02  0.22853133008E+02  0.19365164465E+02  0.10517018221E+03  0.90467179259E+02 0.  0.
          5    1    3    3  502    0 -0.67867402700E+01  0.24994074916E+02  0.52514803213E+02  0.58702986132E+02  0.41800000000E+01 0.  1.
         -5    1    3    3    0  502 -0.37701251590E+02 -0.47847207924E+02 -0.45577061551E+02  0.76193704578E+02  0.41800000000E+01 0.  1.
        -11    1    4    4    0    0 -0.17900394885E+02  0.11727675155E+02 -0.21041497650E+02  0.30011783102E+02  0.00000000000E+00 0.  1.
         11    1    4    4    0    0  0.62388386745E+02  0.11125457853E+02  0.40406662115E+02  0.75158399107E+02  0.00000000000E+00 0. -1.
</event>
<event>
 8    1  0.6945825E-009  0.8617208E+02  0.7561462E-02  0.1312396E+00
          1   -1    0    0  501    0  0.00000000000E+00  0.00000000000E+00  0.67051135453E+02  0.67051135453E+02  0.00000000000E+00 0. -1.
         -1   -1    0    0    0  501 -0.00000000000E+00 -0.00000000000E+00 -0.19895533095E+03  0.19895533095E+03  0.00000000000E+00 0.  1.
         25    2    1    2    0    0  0.15165446830E+02 -0.79656513466E+00 -0.29827523520E+02  0.12949292514E+03  0.12509241067E+03 0.  0.
         23    2    1    2    0    0 -0.15165446830E+02  0.79656513466E+00 -0.10207667197E+03  0.13651354126E+03  0.89362602319E+02 0.  0.
          5    1    3    3  502    0  0.16048582266E+02 -0.54971394068E+02 -0.45135597689E+02  0.73034962431E+02  0.41800000000E+01 0. -1.
         -5    1    3    3    0  502 -0.88313543639E+00  0.54174828933E+02  0.15308074169E+02  0.56457962706E+02  0.41800000000E+01 0. -1.
        -11    1    4    4    0    0  0.20211604348E+02  0.11961139381E+02  0.42803132066E+01  0.23872555095E+02  0.00000000000E+00 0. -1.
         11    1    4    4    0    0 -0.35377051178E+02 -0.11164574247E+02 -0.10635698518E+03  0.11264098617E+03  0.00000000000E+00 0.  1.
</event>
<event>
 8    1  0.6945825E-009  0.9747020E+02  0.7561462E-02  0.1285708E+00
          3   -1    0    0  501    0  0.00000000000E+00  0.00000000000E+00  0.76410945498E+02  0.76410945498E+02  0.00000000000E+00 0. -1.
         -3   -1    0    0    0  501 -0.00000000000E+00 -0.00000000000E+00 -0.20243468597E+03  0.20243468597E+03  0.00000000000E+00 0.  1.
         25    2    1    2    0    0 -0.56463295074E+02  0.18971600151E+02 -0.83227641840E+02  0.16162326673E+03  0.12508882716E+03 0.  0.
         23    2    1    2    0    0  0.56463295074E+02 -0.18971600151E+02 -0.42796098632E+02  0.11722236474E+03  0.91441519201E+02 0.  0.
          5    1    3    3  502    0 -0.80314826045E+02  0.17284614474E+02 -0.10192837731E+03  0.13098127989E+03  0.41800000000E+01 0.  1.
         -5    1    3    3    0  502  0.23851530971E+02  0.16869856775E+01  0.18700735471E+02  0.30641986840E+02  0.41800000000E+01 0.  1.
        -11    1    4    4    0    0 -0.13884295253E+02  0.39220790242E+01 -0.40735042725E+02  0.43214581618E+02  0.00000000000E+00 0. -1.
         11    1    4    4    0    0  0.70347590327E+02 -0.22893679175E+02 -0.20610559067E+01  0.74007783121E+02  0.00000000000E+00 0.  1.
</event>
<event>
 8    1  0.6945825E-009  0.9524960E+02  0.7561462E-02  0.1290615E+00
         -1   -1    0    0    0  501 -0.00000000000E+00  0.00000000000E+00  0.44974223278E+03  0.44974223278E+03  0.00000000000E+00 0.  1.
          1   -1    0    0  501    0  0.00000000000E+00 -0.00000000000E+00 -0.37558935396E+02  0.37558935396E+02  0.00000000000E+00 0. -1.
         25    2    1    2    0    0 -0.33020911408E+01 -0.27543338583E+02  0.33156392733E+03  0.35545910011E+03  0.12508794762E+03 0.  0.
         23    2    1    2    0    0  0.33020911408E+01  0.27543338583E+02  0.80619370053E+02  0.13184206806E+03  0.10056494806E+03 0.  0.
          5    1    3    3  502    0 -0.54600600384E+02  0.15482724175E+02  0.10838743835E+03  0.12241833810E+03  0.41800000000E+01 0. -1.
         -5    1    3    3    0  502  0.51298509243E+02 -0.43026062758E+02  0.22317648898E+03  0.23304076202E+03  0.41800000000E+01 0. -1.
        -11    1    4    4    0    0 -0.25342285567E+02 -0.19211087629E+01  0.86657580917E+02  0.90307576798E+02  0.00000000000E+00 0.  1.
         11    1    4    4    0    0  0.28644376708E+02  0.29464447346E+02 -0.60382108639E+01  0.41534491267E+02  0.00000000000E+00 0. -1.
</event>
<event>
 8    1  0.6945825E-009  0.8147633E+02  0.7561462E-02  0.1324913E+00
         -1   -1    0    0    0  501 -0.00000000000E+00  0.00000000000E+00  0.24498086555E+02  0.24498086555E+02  0.00000000000E+00 0.  1.
          1   -1    0    0  501    0  0.00000000000E+00 -0.00000000000E+00 -0.52109587944E+03  0.52109587944E+03  0.00000000000E+00 0. -1.
         25    2    1    2    0    0 -0.87709967327E+01 -0.18079772587E+02 -0.22650797374E+03  0.25953558989E+03  0.12509616976E+03 0.  0.
         23    2    1    2    0    0  0.87709967327E+01  0.18079772587E+02 -0.27008981915E+03  0.28605837611E+03  0.92071035496E+02 0.  0.
          5    1    3    3  502    0  0.27638396787E+02 -0.20158872889E+02 -0.21947008209E+03  0.22215951581E+03  0.41800000000E+01 0. -1.
         -5    1    3    3    0  502 -0.36409393520E+02  0.20791003020E+01 -0.70378916583E+01  0.37376074079E+02  0.41800000000E+01 0. -1.
        -11    1    4    4    0    0  0.47077584884E+02 -0.45386305906E+01 -0.17139823178E+03  0.17780397077E+03  0.00000000000E+00 0. -1.
         11    1    4    4    0    0 -0.38306588151E+02  0.22618403177E+02 -0.98691587366E+02  0.10825440534E+03  0.00000000000E+00 0.  1.
</event>
<event>
 8    1  0.6945825E-009  0.1420017E+03  0.7561462E-02  0.1210661E+00
          2   -1    0    0  501    0  0.00000000000E+00  0.00000000000E+00  0.50832616833E+02  0.50832616833E+02  0.00000000000E+00 0. -1.
         -2   -1    0    0    0  501 -0.00000000000E+00 -0.00000000000E+00 -0.42129000294E+03  0.42129000294E+03  0.00000000000E+00 0.  1.
         25    2    1    2    0    0 -0.43817152117E+02  0.82130054688E+02 -0.14984503464E+03  0.21625438607E+03  0.12508851421E+03 0.  0.
         23    2    1    2    0    0  0.43817152117E+02 -0.82130054688E+02 -0.22061235147E+03  0.25586823370E+03  0.90185667892E+02 0.  0.
          5    1    3    3  502    0 -0.49332759001E+02 -0.19733620617E+02 -0.60001413867E+02  0.80254463797E+02  0.41800000000E+01 0. -1.
         -5    1    3    3    0  502  0.55156068835E+01  0.10186367531E+03 -0.89843620770E+02  0.13599992228E+03  0.41800000000E+01 0. -1.
        -11    1    4    4    0    0  0.47436097294E+02 -0.10510604426E+01 -0.66502475545E+02  0.81693740936E+02  0.00000000000E+00 0.  1.
         11    1    4    4    0    0 -0.36189451767E+01 -0.81078994245E+02 -0.15410987593E+03  0.17417449277E+03  0.00000000000E+00 0. -1.
</event>
<event>
 8    1  0.6945825E-009  0.8370069E+02  0.7561462E-02  0.1318866E+00
          3   -1    0    0  501    0  0.00000000000E+00  0.00000000000E+00  0.29986841427E+03  0.29986841427E+03  0.00000000000E+00 0. -1.
         -3   -1    0    0    0  501 -0.00000000000E+00 -0.00000000000E+00 -0.60168283614E+02  0.60168283614E+02  0.00000000000E+00 0.  1.
         25    2    1    2    0    0  0.25607116110E+02  0.68410174130E+02  0.16898446748E+03  0.22256727942E+03  0.12507904421E+03 0.  0.
         23    2    1    2    0    0 -0.25607116110E+02 -0.68410174130E+02  0.70715663175E+02  0.13746941846E+03  0.92528156110E+02 0.  0.
          5    1    3    3  502    0  0.35816870122E+02  0.21406258208E+02 -0.47923719214E+01  0.42208000479E+02  0.41800000000E+01 0.  1.
         -5    1    3    3    0  502 -0.10209754012E+02  0.47003915922E+02  0.17377683940E+03  0.18035927894E+03  0.41800000000E+01 0.  1.
        -11    1    4    4    0    0 -0.30622395897E+02 -0.56569333794E+02 -0.12757687453E+01  0.64338543986E+02  0.00000000000E+00 0.  1.
         11    1    4    4    0    0  0.50152797869E+01 -0.11840840336E+02  0.71991431920E+02  0.73130874473E+02  0.00000000000E+00 0. -1.
</event>
<event>
 8    1  0.6945825E-009  0.1209525E+03  0.7561462E-02  0.1241534E+00
          2   -1    0    0  501    0  0.00000000000E+00  0.00000000000E+00  0.52514856058E+02  0.52514856058E+02  0.00000000000E+00 0. -1.
         -2   -1    0    0    0  501 -0.00000000000E+00 -0.00000000000E+00 -0.37361815091E+03  0.37361815091E+03  0.00000000000E+00 0.  1.
         25    2    1    2    0    0 -0.81824952202E+02 -0.14916137676E+02 -0.16029349559E+03  0.21967888764E+03  0.12508794898E+03 0.  0.
         23    2    1    2    0    0  0.81824952202E+02  0.14916137676E+02 -0.16080979927E+03  0.20645411933E+03  0.99225490093E+02 0.  0.
          5    1    3    3  502    0 -0.89342945497E+02 -0.57334750296E+02 -0.10400704381E+03  0.14867539495E+03  0.41800000000E+01 0. -1.
         -5    1    3    3    0  502  0.75179932952E+01  0.42418612620E+02 -0.56286451783E+02  0.71003492689E+02  0.41800000000E+01 0. -1.
        -11    1    4    4    0    0  0.39464875384E+02  0.27607407816E+02 -0.98614917758E+01  0.49161919973E+02  0.00000000000E+00 0. -1.
         11    1    4    4    0    0  0.42360076817E+02 -0.12691270140E+02 -0.15094830749E+03  0.15729219936E+03  0.00000000000E+00 0.  1.
</event>
<event>
 8    1  0.6945825E-009  0.8723874E+02  0.7561462E-02  0.1309680E+00
          1   -1    0    0  501    0  0.00000000000E+00  0.00000000000E+00  0.55921463596E+03  0.55921463596E+03  0.00000000000E+00 0. -1.
         -1   -1    0    0    0  501 -0.00000000000E+00 -0.00000000000E+00 -0.41743429349E+02  0.41743429349E+02  0.00000000000E+00 0.  1.
         25    2    1    2    0    0  0.57360080221E+02  0.59458324445E+02  0.41534026476E+03  0.44156628899E+03  0.12509109037E+03 0.  0.
         23    2    1    2    0    0 -0.57360080221E+02 -0.59458324445E+02  0.10213094185E+03  0.15939177632E+03  0.90274791203E+02 0.  0.
          5    1    3    3  502    0  0.23852783828E+02  0.32301828309E+02  0.22253420467E+02  0.46098270368E+02  0.41800000000E+01 0.  1.
         -5    1    3    3    0  502  0.33507296393E+02  0.27156496136E+02  0.39308684430E+03  0.39546801862E+03  0.41800000000E+01 0.  1.
        -11    1    4    4    0    0 -0.28308803274E+02 -0.54344955148E+02  0.11251574922E+03  0.12811930501E+03  0.00000000000E+00 0. -1.
         11    1    4    4    0    0 -0.29051276947E+02 -0.51133692967E+01 -0.10384807373E+02  0.31272471312E+02  0.00000000000E+00 0.  1.
</event>
<event>
 8    1  0.6945825E-009  0.9410614E+02  0.7561462E-02  0.1293202E+00
         -1   -1    0    0    0  501 -0.00000000000E+00  0.00000000000E+00  0.47533637910E+02  0.47533637910E+02  0.00000000000E+00 0.  1.
          1   -1    0    0  501    0  0.00000000000E+00 -0.00000000000E+00 -0.35090444310E+03  0.35090444310E+03  0.00000000000E+00 0. -1.
         25    2    1    2    0    0 -0.27739837232E+02 -0.50766358453E+02 -0.11642878520E+03  0.18041752474E+03  0.12509236384E+03 0.  0.
         23    2    1    2    0    0  0.27739837232E+02  0.50766358453E+02 -0.18694201999E+03  0.21802055627E+03  0.96119313336E+02 0.  0.
          5    1    3    3  502    0 -0.20577945497E+02 -0.80756785518E+02 -0.30187783742E+02  0.88734913846E+02  0.41800000000E+01 0. -1.
         -5    1    3    3    0  502 -0.71618917349E+01  0.29990427065E+02 -0.86241001457E+02  0.91682610898E+02  0.41800000000E+01 0. -1.
        -11    1    4    4    0    0 -0.12101499869E+02  0.53269653021E+01  0.69440869500E+01  0.14934630962E+02  0.00000000000E+00 0.  1.
         11    1    4    4    0    0  0.39841337100E+02  0.45439393151E+02 -0.19388610694E+03  0.20308592531E+03  0.00000000000E+00 0. -1.
</event>
<event>
 8    1  0.6945825E-009  0.1108679E+03  0.7561462E-02  0.1258971E+00
         -1   -1    0    0    0  501 -0.00000000000E+00  0.00000000000E+00  0.49321443274E+03  0.49321443274E+03  0.00000000000E+00 0.  1.
          1   -1    0    0  501    0  0.00000000000E+00 -0.00000000000E+00 -0.33719152814E+02  0.33719152814E+02  0.00000000000E+00 0. -1.
         25    2    1    2    0    0  0.43755367169E+02  0.54671401574E+02  0.24208248673E+03  0.28134435098E+03  0.12508884498E+03 0.  0.
         23    2    1    2    0    0 -0.43755367169E+02 -0.54671401574E+02  0.21741279319E+03  0.24558923457E+03  0.90234445692E+02 0.  0.
          5    1    3    3  502    0  0.17162920717E+02  0.74023229639E+02  0.61786951911E+02  0.98026038378E+02  0.41800000000E+01 0. -1.
         -5    1    3    3    0  502  0.26592446452E+02 -0.19351828065E+02  0.18029553482E+03  0.18331831260E+03  0.41800000000E+01 0. -1.
        -11    1    4    4    0    0 -0.46242539732E+02  0.10370929247E+02  0.11319350600E+03  0.12271388860E+03  0.00000000000E+00 0.  1.
         11    1    4    4    0    0  0.24871725633E+01 -0.65042330821E+02  0.10421928719E+03  0.12287534597E+03  0.00000000000E+00 0. -1.
</event>
<event>
 8    1  0.6945825E-009  0.1483517E+03  0.7561462E-02  0.1202513E+00
         -2   -1    0    0    0  501 -0.00000000000E+00  0.00000000000E+00  0.85654752779E+02  0.85654752779E+02  0.00000000000E+00 0.  1.
          2   -1    0    0  501    0  0.00000000000E+00 -0.00000000000E+00 -0.31238220783E+03  0.31238220783E+03  0.00000000000E+00 0. -1.
         25    2    1    2    0    0 -0.91085439241E+02  0.68940328168E+02 -0.67394492779E+02  0.18231573818E+03  0.12509070566E+03 0.  0.
         23    2    1    2    0    0  0.91085439241E+02 -0.68940328168E+02 -0.15933296227E+03  0.21572122242E+03  0.89996260194E+02 0.  0.
          5    1    3    3  502    0 -0.11178586489E+03  0.72782372634E+02 -0.81738506556E+02  0.15649923070E+03  0.41800000000E+01 0. -1.
         -5    1    3    3    0  502  0.20700425645E+02 -0.38420444655E+01  0.14344013777E+02  0.25816507486E+02  0.41800000000E+01 0. -1.
        -11    1    4    4    0    0  0.38987329749E+02  0.15994936483E+02 -0.26916048401E+02  0.50003235252E+02  0.00000000000E+00 0.  1.
         11    1    4    4    0    0  0.52098109491E+02 -0.84935264652E+02 -0.13241691387E+03  0.16571798717E+03  0.00000000000E+00 0. -1.
</event>
<event>
 8    1  0.6945825E-009  0.1005795E+03  0.7561462E-02  0.1279082E+00
         -2   -1    0    0    0  501 -0.00000000000E+00  0.00000000000E+00  0.28368116343E+02  0.28368116343E+02  0.00000000000E+00 0.  1.
          2   -1    0    0  501    0  0.00000000000E+00 -0.00000000000E+00 -0.56213757170E+03  0.56213757170E+03  0.00000000000E+00 0. -1.
         25    2    1    2    0    0 -0.33463979491E+02  0.43733314130E+02 -0.37270894246E+03  0.39697474719E+03  0.12507818925E+03 0.  0.
         23    2    1    2    0    0  0.33463979491E+02 -0.43733314130E+02 -0.16106051290E+03  0.19353094085E+03  0.92093949668E+02 0.  0.
          5    1    3    3  502    0 -0.53894326227E+02 -0.19121541280E+02 -0.26002395863E+03  0.26627084557E+03  0.41800000000E+01 0. -1.
         -5    1    3    3    0  502  0.20430346736E+02  0.62854855410E+02 -0.11268498383E+03  0.13070390161E+03  0.41800000000E+01 0. -1.
        -11    1    4    4    0    0 -0.13669768840E+02 -0.56444123687E+00  0.57909396466E+01  0.14856518974E+02  0.00000000000E+00 0.  1.
         11    1    4    4    0    0  0.47133748331E+02 -0.43168872893E+02 -0.16685145254E+03  0.17867442188E+03  0.00000000000E+00 0. -1.
</event>
<event>
 8    1  0.6945825E-009  0.1494714E+03  0.7561462E-02  0.1201124E+00
         -2   -1    0    0    0  501 -0.00000000000E+00  0.00000000000E+00  0.55243156359E+02  0.55243156359E+02  0.00000000000E+00 0.  1.
          2   -1    0    0  501    0  0.00000000000E+00 -0.00000000000E+00 -0.76790087049E+03  0.76790087049E+03  0.00000000000E+00 0. -1.
         25    2    1    2    0    0 -0.61601404362E+02  0.83640540471E+02 -0.65181291240E+03  0.67178755218E+03  0.12509184415E+03 0.  0.
         23    2    1    2    0    0  0.61601404362E+02 -0.83640540471E+02 -0.60844801737E+02  0.15135647467E+03  0.91739955828E+02 0.  0.
          5    1    3    3  502    0  0.33471371834E+02 -0.28014430413E+01 -0.14941508016E+03  0.15320091186E+03  0.41800000000E+01 0. -1.
         -5    1    3    3    0  502 -0.95072776196E+02  0.86441983512E+02 -0.50239783224E+03  0.51858664033E+03  0.41800000000E+01 0. -1.
        -11    1    4    4    0    0 -0.24692217763E+01 -0.71227024284E+02 -0.18745601627E+02  0.73693850658E+02  0.00000000000E+00 0.  1.
         11    1    4    4    0    0  0.64070626138E+02 -0.12413516187E+02 -0.42099200109E+02  0.77662624007E+02  0.00000000000E+00 0. -1.
</event>
<event>
 8    1  0.6945825E-009  0.2145982E+03  0.7561462E-02  0.1137976E+00
         -1   -1    0    0    0  501 -0.00000000000E+00  0.00000000000E+00  0.26758959482E+03  0.26758959482E+03  0.00000000000E+00 0.  1.
          1   -1    0    0  501    0  0.00000000000E+00 -0.00000000000E+00 -0.32283002501E+03  0.32283002501E+03  0.00000000000E+00 0. -1.
         25    2    1    2    0    0 -0.11890108173E+03  0.16140470384E+03  0.15836898196E+03  0.28445926113E+03  0.12508953249E+03 0.  0.
         23    2    1    2    0    0  0.11890108173E+03 -0.16140470384E+03 -0.21360941214E+03  0.30596035870E+03  0.88282583110E+02 0.  0.
          5    1    3    3  502    0 -0.29396166030E+02  0.10041452727E+03  0.16627614886E+02  0.10602434551E+03  0.41800000000E+01 0.  1.
         -5    1    3    3    0  502 -0.89504915700E+02  0.60990176565E+02  0.14174136707E+03  0.17843491562E+03  0.41800000000E+01 0.  1.
        -11    1    4    4    0    0  0.67805403588E+02 -0.14871899012E+03 -0.13849377248E+03  0.21423220065E+03  0.00000000000E+00 0.  1.
         11    1    4    4    0    0  0.51095678141E+02 -0.12685713715E+02 -0.75115639659E+02  0.91728158046E+02  0.00000000000E+00 0. -1.
</event>
<event>
 8    1  0.6945825E-009  0.1503963E+03  0.7561462E-02  0.1199987E+00
          1   -1    0    0  501    0  0.00000000000E+00  0.00000000000E+00  0.10024639738E+04  0.10024639738E+04  0.00000000000E+00 0. -1.
         -1   -1    0    0    0  501 -0.00000000000E+00 -0.00000000000E+00 -0.31983634938E+02  0.31983634938E+02  0.00000000000E+00 0.  1.
         25    2    1    2    0    0 -0.13758367747E+03  0.23098357835E+02  0.59357116472E+03  0.62244566021E+03  0.12509624254E+03 0.  0.
         23    2    1    2    0    0  0.13758367747E+03 -0.23098357835E+02  0.37690917413E+03  0.41200194850E+03  0.90676775364E+02 0.  0.
          5    1    3    3  502    0 -0.90505615769E+02  0.14368767738E+02  0.54992126551E+03  0.55752004326E+03  0.41800000000E+01 0. -1.
         -5    1    3    3    0  502 -0.47078061700E+02  0.87295900975E+01  0.43649899204E+02  0.64925616956E+02  0.41800000000E+01 0. -1.
        -11    1    4    4    0    0  0.95347741818E+02  0.23401488984E+02  0.27803837234E+03  0.29486294791E+03  0.00000000000E+00 0. -1.
         11    1    4    4    0    0  0.42235935651E+02 -0.46499846820E+02  0.98870801789E+02  0.11713900060E+03  0.00000000000E+00 0.  1.
</event>
<event>
 8    1  0.6945825E-009  0.9414528E+02  0.7561462E-02  0.1293113E+00
         -2   -1    0    0    0  501 -0.00000000000E+00  0.00000000000E+00  0.16208111766E+02  0.16208111766E+02  0.00000000000E+00 0.  1.
          2   -1    0    0  501    0  0.00000000000E+00 -0.00000000000E+00 -0.85223155141E+03  0.85223155141E+03  0.00000000000E+00 0. -1.
         25    2    1    2    0    0 -0.15193391666E+02 -0.36873257099E+02 -0.40584128634E+03  0.42654922533E+03  0.12508643289E+03 0.  0.
         23    2    1    2    0    0  0.15193391666E+02  0.36873257099E+02 -0.43018215331E+03  0.44189043785E+03  0.92843943250E+02 0.  0.
          5    1    3    3  502    0 -0.38982744306E+02  0.54197231038E+01 -0.35091278526E+03  0.35313776775E+03  0.41800000000E+01 0. -1.
         -5    1    3    3    0  502  0.23789352639E+02 -0.42292980202E+02 -0.54928501079E+02  0.73411457581E+02  0.41800000000E+01 0. -1.
        -11    1    4    4    0    0  0.21370091117E+02  0.66445198506E+02 -0.26940517860E+03  0.27829983014E+03  0.00000000000E+00 0.  1.
         11    1    4    4    0    0 -0.61766994504E+01 -0.29571941407E+02 -0.16077697471E+03  0.16359060771E+03  0.00000000000E+00 0. -1.
</event>
<event>
 8    1  0.6945825E-009  0.7751061E+02  0.7561462E-02  0.1336268E+00
         -1   -1    0    0    0  501 -0.00000000000E+00  0.00000000000E+00  0.14401562626E+03  0.14401562626E+03  0.00000000000E+00 0.  1.
          1   -1    0    0  501    0  0.00000000000E+00 -0.00000000000E+00 -0.12243861919E+03  0.12243861919E+03  0.00000000000E+00 0. -1.
         25    2    1    2    0    0  0.85103460004E+01 -0.26682731892E+02 -0.58538321403E+02  0.14091918090E+03  0.12508831401E+03 0.  0.
         23    2    1    2    0    0 -0.85103460004E+01  0.26682731892E+02  0.80115328468E+02  0.12553506455E+03  0.92499688677E+02 0.  0.
          5    1    3    3  502    0  0.12747410615E+02 -0.51468243008E+02  0.21161045795E+02  0.57242805442E+02  0.41800000000E+01 0. -1.
         -5    1    3    3    0  502 -0.42370646145E+01  0.24785511116E+02 -0.79699367198E+02  0.83676375457E+02  0.41800000000E+01 0. -1.
        -11    1    4    4    0    0  0.27773502038E+02 -0.49443671221E+01 -0.41280836637E+01  0.28510616556E+02  0.00000000000E+00 0. -1.
         11    1    4    4    0    0 -0.36283848038E+02  0.31627099014E+02  0.84243412132E+02  0.97024447992E+02  0.00000000000E+00 0.  1.
</event>
<event>
 8    1  0.6945825E-009  0.2446491E+03  0.7561462E-02  0.1116734E+00
          1   -1    0    0  501    0  0.00000000000E+00  0.00000000000E+00  0.16286092137E+03  0.16286092137E+03  0.00000000000E+00 0. -1.
         -1   -1    0    0    0  501 -0.00000000000E+00 -0.00000000000E+00 -0.39847346249E+03  0.39847346249E+03  0.00000000000E+00 0.  1.
         25    2    1    2    0    0 -0.82184861216E+02  0.20787921215E+03 -0.16841137823E+03  0.30656189851E+03  0.12509870921E+03 0.  0.
         23    2    1    2    0    0  0.82184861216E+02 -0.20787921215E+03 -0.67201162896E+02  0.25477248535E+03  0.10210242279E+03 0.  0.
          5    1    3    3  502    0 -0.47844603294E+02  0.42993861094E+01 -0.19695695701E+02  0.52086309280E+02  0.41800000000E+01 0.  1.
         -5    1    3    3    0  502 -0.34340257922E+02  0.20357982604E+03 -0.14871568253E+03  0.25447558923E+03  0.41800000000E+01 0.  1.
        -11    1    4    4    0    0  0.14668182524E+02 -0.13280512004E+03 -0.75491304436E+02  0.15346430377E+03  0.00000000000E+00 0.  1.
         11    1    4    4    0    0  0.67516678691E+02 -0.75074092114E+02  0.82901415402E+01  0.10130818158E+03  0.00000000000E+00 0. -1.
</event>
<event>
 8    1  0.6945825E-009  0.2937906E+03  0.7561462E-02  0.1088386E+00
          1   -1    0    0  501    0  0.00000000000E+00  0.00000000000E+00  0.55391233589E+03  0.55391233589E+03  0.00000000000E+00 0. -1.
         -1   -1    0    0    0  501 -0.00000000000E+00 -0.00000000000E+00 -0.18740821961E+03  0.18740821961E+03  0.00000000000E+00 0.  1.
         25    2    1    2    0    0 -0.27081268995E+03  0.14941855227E+02  0.33726206770E+03  0.45050633408E+03  0.12508989831E+03 0.  0.
         23    2    1    2    0    0  0.27081268995E+03 -0.14941855227E+02  0.29242048575E+02  0.29081422142E+03  0.10077222782E+03 0.  0.
          5    1    3    3  502    0 -0.10904016591E+03  0.67532900987E+02  0.15310341759E+03  0.19977131770E+03  0.41800000000E+01 0. -1.
         -5    1    3    3    0  502 -0.16177252404E+03 -0.52591045760E+02  0.18415865012E+03  0.25073501639E+03  0.41800000000E+01 0. -1.
        -11    1    4    4    0    0  0.61511818340E+02 -0.46923208362E+02  0.25474323216E+01  0.77407885192E+02  0.00000000000E+00 0. -1.
         11    1    4    4    0    0  0.20930087161E+03  0.31981353135E+02  0.26694616254E+02  0.21340633623E+03  0.00000000000E+00 0.  1.
</event>
<event>
 8    1  0.6945825E-009  0.9193971E+02  0.7561462E-02  0.1298221E+00
          1   -1    0    0  501    0  0.00000000000E+00  0.00000000000E+00  0.64578854239E+02  0.64578854239E+02  0.00000000000E+00 0. -1.
         -1   -1    0    0    0  501 -0.00000000000E+00 -0.00000000000E+00 -0.25274891000E+03  0.25274891000E+03  0.00000000000E+00 0.  1.
         25    2    1    2    0    0 -0.38539913313E+02  0.43564251157E+02 -0.67342308004E+02  0.15350959378E+03  0.12508812908E+03 0.  0.
         23    2    1    2    0    0  0.38539913313E+02 -0.43564251157E+02 -0.12082774776E+03  0.16381817046E+03  0.94095055389E+02 0.  0.
          5    1    3    3  502    0 -0.40211384292E+02  0.46491302434E+01 -0.96463984658E+02  0.10469643057E+03  0.41800000000E+01 0.  1.
         -5    1    3    3    0  502  0.16714709792E+01  0.38915120914E+02  0.29121676653E+02  0.48813163205E+02  0.41800000000E+01 0.  1.
        -11    1    4    4    0    0 -0.20502541509E+02  0.11301337898E+02 -0.54923097330E+02  0.59704447632E+02  0.00000000000E+00 0.  1.
         11    1    4    4    0    0  0.59042454822E+02 -0.54865589056E+02 -0.65904650429E+02  0.10411372283E+03  0.00000000000E+00 0. -1.
</event>
<event>
 8    1  0.6945825E-009  0.1063500E+03  0.7561462E-02  0.1267482E+00
          1   -1    0    0  501    0  0.00000000000E+00  0.00000000000E+00  0.68537013442E+02  0.68537013442E+02  0.00000000000E+00 0. -1.
         -1   -1    0    0    0  501 -0.00000000000E+00 -0.00000000000E+00 -0.18565172566E+03  0.18565172566E+03  0.00000000000E+00 0.  1.
         25    2    1    2    0    0  0.26825201114E+02 -0.70611699421E+01 -0.47733764632E+02  0.13673099855E+03  0.12508957647E+03 0.  0.
         23    2    1    2    0    0 -0.26825201114E+02  0.70611699421E+01 -0.69380947586E+02  0.11745774055E+03  0.90626449738E+02 0.  0.
          5    1    3    3  502    0  0.76254590666E+01  0.54973127635E+02 -0.45049156748E+02  0.71603710181E+02  0.41800000000E+01 0.  1.
         -5    1    3    3    0  502  0.19199742047E+02 -0.62034297577E+02 -0.26846078835E+01  0.65127288367E+02  0.41800000000E+01 0.  1.
        -11    1    4    4    0    0 -0.11768591528E+02 -0.40452293743E+02 -0.46086555396E+02  0.62440839231E+02  0.00000000000E+00 0.  1.
         11    1    4    4    0    0 -0.15056609586E+02  0.47513463685E+02 -0.23294392189E+02  0.55016901321E+02  0.00000000000E+00 0. -1.
</event>
<event>
 8    1  0.6945825E-009  0.1765969E+03  0.7561462E-02  0.1171138E+00
          2   -1    0    0  501    0  0.00000000000E+00  0.00000000000E+00  0.32837043081E+04  0.32837043081E+04  0.00000000000E+00 0. -1.
         -2   -1    0    0    0  501 -0.00000000000E+00 -0.00000000000E+00 -0.13279907175E+02  0.13279907175E+02  0.00000000000E+00 0.  1.
         25    2    1    2    0    0  0.18701129945E+02 -0.15168708229E+03  0.24297118321E+04  0.24377255408E+04  0.12509005453E+03 0.  0.
         23    2    1    2    0    0 -0.18701129945E+02  0.15168708229E+03  0.84071256881E+03  0.85925867451E+03  0.90383312544E+02 0.  0.
          5    1    3    3  502    0 -0.42738299014E+02 -0.64475309996E+02  0.14811589058E+04  0.14831833348E+04  0.41800000000E+01 0. -1.
         -5    1    3    3    0  502  0.61439428959E+02 -0.87211772292E+02  0.94855292630E+03  0.95454220601E+03  0.41800000000E+01 0. -1.
        -11    1    4    4    0    0 -0.31406340324E+02  0.21271710682E+02  0.98172089496E+02  0.10524544191E+03  0.00000000000E+00 0.  1.
         11    1    4    4    0    0  0.12705210378E+02  0.13041537161E+03  0.74254047931E+03  0.75401323260E+03  0.00000000000E+00 0. -1.
</event>
<event>
 8    1  0.6945825E-009  0.9421870E+02  0.7561462E-02  0.1292946E+00
          1   -1    0    0  501    0  0.00000000000E+00  0.00000000000E+00  0.55058429379E+03  0.55058429379E+03  0.00000000000E+00 0. -1.
         -1   -1    0    0    0  501 -0.00000000000E+00 -0.00000000000E+00 -0.23451700831E+02  0.23451700831E+02  0.00000000000E+00 0.  1.
         25    2    1    2    0    0  0.27507574812E+02 -0.32131157718E+01  0.33306665940E+03  0.35685840131E+03  0.12509008034E+03 0.  0.
         23    2    1    2    0    0 -0.27507574812E+02  0.32131157718E+01  0.19406593356E+03  0.21717759331E+03  0.93474754252E+02 0.  0.
          5    1    3    3  502    0  0.70002751715E+02  0.26984243749E+02  0.17799772069E+03  0.19320764899E+03  0.41800000000E+01 0. -1.
         -5    1    3    3    0  502 -0.42495176903E+02 -0.30197359521E+02  0.15506893871E+03  0.16365075232E+03  0.41800000000E+01 0. -1.
        -11    1    4    4    0    0  0.96859812629E+01 -0.16327368216E+02  0.38087536782E+00  0.18988055506E+02  0.00000000000E+00 0.  1.
         11    1    4    4    0    0 -0.37193556075E+02  0.19540483987E+02  0.19368505819E+03  0.19818953780E+03  0.00000000000E+00 0. -1.
</event>
<event>
 8    1  0.6945825E-009  0.1528715E+03  0.7561462E-02  0.1196988E+00
         -2   -1    0    0    0  501 -0.00000000000E+00  0.00000000000E+00  0.58527554991E+02  0.58527554991E+02  0.00000000000E+00 0.  1.
          2   -1    0    0  501    0  0.00000000000E+00 -0.00000000000E+00 -0.44554570436E+03  0.44554570436E+03  0.00000000000E+00 0. -1.
         25    2    1    2    0    0 -0.52609223506E+02 -0.10291613657E+03 -0.16385371663E+03  0.23633773586E+03  0.12509205960E+03 0.  0.
         23    2    1    2    0    0  0.52609223506E+02  0.10291613657E+03 -0.22316443274E+03  0.26773552349E+03  0.92306472871E+02 0.  0.
          5    1    3    3  502    0  0.34523523424E+02 -0.67604156073E+02 -0.67797179089E+02  0.10186326855E+03  0.41800000000E+01 0.  1.
         -5    1    3    3    0  502 -0.87132746930E+02 -0.35311980493E+02 -0.96056537540E+02  0.13447446731E+03  0.41800000000E+01 0.  1.
        -11    1    4    4    0    0 -0.17028233399E+02  0.10918605048E+02 -0.48427306693E+01  0.20799728585E+02  0.00000000000E+00 0.  1.
         11    1    4    4    0    0  0.69637456905E+02  0.91997531518E+02 -0.21832170207E+03  0.24693579490E+03  0.00000000000E+00 0. -1.
</event>
<event>
 8    1  0.6945825E-009  0.1107531E+03  0.7561462E-02  0.1259182E+00
         -2   -1    0    0    0  501 -0.00000000000E+00  0.00000000000E+00  0.80778672858E+02  0.80778672858E+02  0.00000000000E+00 0.  1.
          2   -1    0    0  501    0  0.00000000000E+00 -0.00000000000E+00 -0.16930160962E+03  0.16930160962E+03  0.00000000000E+00 0. -1.
         25    2    1    2    0    0 -0.54626878107E+01  0.34293897689E+02 -0.81374844554E+02  0.15320529377E+03  0.12507631404E+03 0.  0.
         23    2    1    2    0    0  0.54626878107E+01 -0.34293897689E+02 -0.71480922071E+01  0.96874988711E+02  0.90154067233E+02 0.  0.
          5    1    3    3  502    0  0.50588177684E+02  0.48465692586E+02 -0.56623591583E+02  0.90176441507E+02  0.41800000000E+01 0. -1.
         -5    1    3    3    0  502 -0.56050865495E+02 -0.14171794896E+02 -0.24751252971E+02  0.63028852258E+02  0.41800000000E+01 0. -1.
        -11    1    4    4    0    0  0.46126189249E+02 -0.16781894481E+02 -0.16193415560E+02  0.51686400769E+02  0.00000000000E+00 0.  1.
         11    1    4    4    0    0 -0.40663501438E+02 -0.17512003208E+02  0.90453233527E+01  0.45188587941E+02  0.00000000000E+00 0. -1.
</event>
<event>
 8    1  0.6945825E-009  0.7538622E+02  0.7561462E-02  0.1342679E+00
          2   -1    0    0  501    0  0.00000000000E+00  0.00000000000E+00  0.91270721224E+02  0.91270721224E+02  0.00000000000E+00 0. -1.
         -2   -1    0    0    0  501 -0.00000000000E+00 -0.00000000000E+00 -0.14937905778E+03  0.14937905778E+03  0.00000000000E+00 0.  1.
         25    2    1    2    0    0  0.25522333167E+01 -0.43099109778E+02 -0.37873712238E+02  0.13764447985E+03  0.12509011790E+03 0.  0.
         23    2    1    2    0    0 -0.25522333167E+01  0.43099109778E+02 -0.20234624320E+02  0.10300529916E+03  0.91305007936E+02 0.  0.
          5    1    3    3  502    0  0.69233522241E+01 -0.43475725325E+02 -0.81967916195E+02  0.93135831901E+02  0.41800000000E+01 0. -1.
         -5    1    3    3    0  502 -0.43711189074E+01  0.37661554750E+00  0.44094203956E+02  0.44508647950E+02  0.41800000000E+01 0. -1.
        -11    1    4    4    0    0 -0.42133399177E+02  0.43973003877E+02 -0.17279960174E+02  0.63304387050E+02  0.00000000000E+00 0.  1.
         11    1    4    4    0    0  0.39581165861E+02 -0.87389409938E+00 -0.29546641460E+01  0.39700912105E+02  0.00000000000E+00 0. -1.
</event>
<event>
 8    1  0.6945825E-009  0.5440005E+02  0.7561462E-02  0.1422958E+00
          1   -1    0    0  501    0  0.00000000000E+00  0.00000000000E+00  0.76942568127E+03  0.76942568127E+03  0.00000000000E+00 0. -1.
         -1   -1    0    0    0  501 -0.00000000000E+00 -0.00000000000E+00 -0.90654706606E+02  0.90654706606E+02  0.00000000000E+00 0.  1.
         25    2    1    2    0    0  0.29701775543E+02 -0.68275530551E+01  0.73681029422E+03  0.74797446780E+03  0.12509030283E+03 0.  0.
         23    2    1    2    0    0 -0.29701775543E+02  0.68275530551E+01 -0.58039319555E+02  0.11210592007E+03  0.90941540290E+02 0.  0.
          5    1    3    3  502    0  0.51271556275E+01 -0.55636148174E+01  0.71433398709E+03  0.71438628140E+03  0.41800000000E+01 0.  1.
         -5    1    3    3    0  502  0.24574619915E+02 -0.12639382377E+01  0.22476307132E+02  0.33588186407E+02  0.41800000000E+01 0.  1.
        -11    1    4    4    0    0 -0.24250965701E+02 -0.29655531572E+02  0.54338752615E+01  0.38692207104E+02  0.00000000000E+00 0. -1.
         11    1    4    4    0    0 -0.54508098414E+01  0.36483084627E+02 -0.63473194817E+02  0.73413712970E+02  0.00000000000E+00 0.  1.
</event>
<event>
 8    1  0.6945825E-009  0.1192027E+03  0.7561462E-02  0.1244418E+00
         -2   -1    0    0    0  501 -0.00000000000E+00  0.00000000000E+00  0.74304593974E+02  0.74304593974E+02  0.00000000000E+00 0.  1.
          2   -1    0    0  501    0  0.00000000000E+00 -0.00000000000E+00 -0.20544493317E+03  0.20544493317E+03  0.00000000000E+00 0. -1.
         25    2    1    2    0    0 -0.39425600625E+02 -0.42610656064E+02 -0.86707480219E+02  0.16290202066E+03  0.12509530452E+03 0.  0.
         23    2    1    2    0    0  0.39425600625E+02  0.42610656064E+02 -0.44432858976E+02  0.11684750649E+03  0.91153797619E+02 0.  0.
          5    1    3    3  502    0 -0.75284027504E+02  0.70322023698E+01 -0.56550627113E+02  0.94512340434E+02  0.41800000000E+01 0.  1.
         -5    1    3    3    0  502  0.35858426879E+02 -0.49642858434E+02 -0.30156853105E+02  0.68389680223E+02  0.41800000000E+01 0.  1.
        -11    1    4    4    0    0  0.47307454397E+02 -0.97870853071E+01 -0.41654019881E+02  0.63787456859E+02  0.00000000000E+00 0. -1.
         11    1    4    4    0    0 -0.78818537722E+01  0.52397741371E+02 -0.27788390953E+01  0.53060049627E+02  0.00000000000E+00 0.  1.
</event>
<event>
 8    1  0.6945825E-009  0.1357592E+03  0.7561462E-02  0.1219152E+00
          1   -1    0    0  501    0  0.00000000000E+00  0.00000000000E+00  0.16611105435E+03  0.16611105435E+03  0.00000000000E+00 0. -1.
         -1   -1    0    0    0  501 -0.00000000000E+00 -0.00000000000E+00 -0.17522953970E+03  0.17522953970E+03  0.00000000000E+00 0.  1.
         25    2    1    2    0    0 -0.33000585513E+02 -0.99213168901E+02 -0.85365456996E+02  0.18403318173E+03  0.12509460101E+03 0.  0.
         23    2    1    2    0    0  0.33000585513E+02  0.99213168901E+02  0.76246971648E+02  0.15730741232E+03  0.89441208389E+02 0.  0.
          5    1    3    3  502    0  0.74293791918E+01 -0.99810339079E+02 -0.99310439436E+02  0.14105791450E+03  0.41800000000E+01 0.  1.
         -5    1    3    3    0  502 -0.40429964704E+02  0.59717017739E+00  0.13944982440E+02  0.42975267230E+02  0.41800000000E+01 0.  1.
        -11    1    4    4    0    0  0.36601743926E+02  0.56179594061E+01  0.80543209622E+00  0.37039139396E+02  0.00000000000E+00 0.  1.
         11    1    4    4    0    0 -0.36011584139E+01  0.93595209495E+02  0.75441539552E+02  0.12026827292E+03  0.00000000000E+00 0. -1.
</event>
<event>
 8    1  0.6945825E-009  0.2328232E+03  0.7561462E-02  0.1124668E+00
         -1   -1    0    0    0  501 -0.00000000000E+00  0.00000000000E+00  0.80180172274E+02  0.80180172274E+02  0.00000000000E+00 0.  1.
          1   -1    0    0  501    0  0.00000000000E+00 -0.00000000000E+00 -0.87851878103E+03  0.87851878103E+03  0.00000000000E+00 0. -1.
         25    2    1    2    0    0 -0.20592609295E+03  0.60898450876E+02 -0.20886368147E+03  0.32463187626E+03  0.12509052950E+03 0.  0.
         23    2    1    2    0    0  0.20592609295E+03 -0.60898450876E+02 -0.58947492728E+03  0.63406707704E+03  0.91903162206E+02 0.  0.
          5    1    3    3  502    0 -0.89141767724E+02 -0.29714234869E+02 -0.11866290568E+03  0.15141845360E+03  0.41800000000E+01 0. -1.
         -5    1    3    3    0  502 -0.11678432522E+03  0.90612685745E+02 -0.90200775800E+02  0.17321342266E+03  0.41800000000E+01 0. -1.
        -11    1    4    4    0    0  0.36474915554E+02 -0.38087945329E+02 -0.73215904351E+02  0.90231256746E+02  0.00000000000E+00 0.  1.
         11    1    4    4    0    0  0.16945117739E+03 -0.22810505547E+02 -0.51625902293E+03  0.54383582029E+03  0.00000000000E+00 0. -1.
</event>
<event>
 8    1  0.6945825E-009  0.1402935E+03  0.7561462E-02  0.1212935E+00
         -2   -1    0    0    0  501 -0.00000000000E+00  0.00000000000E+00  0.13837883165E+02  0.13837883165E+02  0.00000000000E+00 0.  1.
          2   -1    0    0  501    0  0.00000000000E+00 -0.00000000000E+00 -0.21435826035E+04  0.21435826035E+04  0.00000000000E+00 0. -1.
         25    2    1    2    0    0 -0.96168294107E+02 -0.29115788515E+02 -0.16687581188E+04  0.16764544840E+04  0.12509959237E+03 0.  0.
         23    2    1    2    0    0  0.96168294107E+02  0.29115788515E+02 -0.46098660154E+03  0.48096600265E+03  0.93400101545E+02 0.  0.
          5    1    3    3  502    0 -0.10836964768E+03 -0.50336365934E+02 -0.98264315614E+03  0.98989028431E+03  0.41800000000E+01 0. -1.
         -5    1    3    3    0  502  0.12201353577E+02  0.21220577419E+02 -0.68611496265E+03  0.68656419970E+03  0.41800000000E+01 0. -1.
        -11    1    4    4    0    0  0.58768156092E+02  0.62692734704E+02 -0.31787859815E+03  0.32928844243E+03  0.00000000000E+00 0. -1.
         11    1    4    4    0    0  0.37400138016E+02 -0.33576946189E+02 -0.14310800339E+03  0.15167756021E+03  0.00000000000E+00 0.  1.
</event>
<event>
 8    1  0.6945825E-009  0.8731571E+02  0.7561462E-02  0.1309485E+00
         -1   -1    0    0    0  501 -0.00000000000E+00  0.00000000000E+00  0.29190325475E+02  0.29190325475E+02  0.00000000000E+00 0.  1.
          1   -1    0    0  501    0  0.00000000000E+00 -0.00000000000E+00 -0.56126984671E+03  0.56126984671E+03  0.00000000000E+00 0. -1.
         25    2    1    2    0    0  0.52158981140E+02 -0.30242744647E+02 -0.24927279970E+03  0.28534188463E+03  0.12509148466E+03 0.  0.
         23    2    1    2    0    0 -0.52158981140E+02  0.30242744647E+02 -0.28280672154E+03  0.30511828756E+03  0.97377331755E+02 0.  0.
          5    1    3    3  502    0  0.40673714244E+02 -0.15230428095E+02 -0.93292147577E+01  0.44618646532E+02  0.41800000000E+01 0. -1.
         -5    1    3    3    0  502  0.11485266897E+02 -0.15012316551E+02 -0.23994358494E+03  0.24072323810E+03  0.41800000000E+01 0. -1.
        -11    1    4    4    0    0 -0.31777151991E+02 -0.32629902082E+02 -0.15018605404E+03  0.15694058980E+03  0.00000000000E+00 0. -1.
         11    1    4    4    0    0 -0.20381829149E+02  0.62872646729E+02 -0.13262066749E+03  0.14817769776E+03  0.00000000000E+00 0.  1.
</event>
<event>
 8    1  0.6945825E-009  0.2515384E+03  0.7561462E-02  0.1112336E+00
         -1   -1    0    0    0  501 -0.00000000000E+00  0.00000000000E+00  0.90462546770E+03  0.90462546770E+03  0.00000000000E+00 0.  1.
          1   -1    0    0  501    0  0.00000000000E+00 -0.00000000000E+00 -0.81078429965E+02  0.81078429965E+02  0.00000000000E+00 0. -1.
         25    2    1    2    0    0 -0.27813934081E+02  0.24530712629E+03  0.46397428489E+03  0.54024858095E+03  0.12508873268E+03 0.  0.
         23    2    1    2    0    0  0.27813934081E+02 -0.24530712629E+03  0.35957275284E+03  0.44545531671E+03  0.90491289436E+02 0.  0.
          5    1    3    3  502    0 -0.41179084529E+02  0.22768942834E+03  0.32218754576E+03  0.39668687882E+03  0.41800000000E+01 0.  1.
         -5    1    3    3    0  502  0.13365150448E+02  0.17617697947E+02  0.14178673913E+03  0.14356170213E+03  0.41800000000E+01 0.  1.
        -11    1    4    4    0    0  0.32787128459E+02 -0.14249757253E+03  0.13762309943E+03  0.20080007835E+03  0.00000000000E+00 0. -1.
         11    1    4    4    0    0 -0.49731943786E+01 -0.10280955376E+03  0.22194965342E+03  0.24465523836E+03  0.00000000000E+00 0.  1.
</event>
<event>
 8    1  0.6945825E-009  0.6505579E+02  0.7561462E-02  0.1377762E+00
         -3   -1    0    0    0  501 -0.00000000000E+00  0.00000000000E+00  0.12572988634E+03  0.12572988634E+03  0.00000000000E+00 0.  1.
          3   -1    0    0  501    0  0.00000000000E+00 -0.00000000000E+00 -0.11896204888E+03  0.11896204888E+03  0.00000000000E+00 0. -1.
         25    2    1    2    0    0  0.14699907677E+02 -0.46734386681E+02  0.34396399246E+02  0.13867587747E+03  0.12509075317E+03 0.  0.
         23    2    1    2    0    0 -0.14699907677E+02  0.46734386681E+02 -0.27628561788E+02  0.10601605775E+03  0.89865882791E+02 0.  0.
          5    1    3    3  502    0 -0.26747534465E+01 -0.12915428383E+02 -0.46863660283E+02  0.48863459266E+02  0.41800000000E+01 0. -1.
         -5    1    3    3    0  502  0.17374661124E+02 -0.33818958297E+02  0.81260059528E+02  0.89812418206E+02  0.41800000000E+01 0. -1.
        -11    1    4    4    0    0 -0.33472298207E+02  0.71674330138E+01 -0.46987084493E+02  0.58133922561E+02  0.00000000000E+00 0. -1.
         11    1    4    4    0    0  0.18772390530E+02  0.39566953667E+02  0.19358522705E+02  0.47882135186E+02  0.00000000000E+00 0.  1.
</event>
<event>
 8    1  0.6945825E-009  0.9961573E+02  0.7561462E-02  0.1281106E+00
         -1   -1    0    0    0  501 -0.00000000000E+00  0.00000000000E+00  0.14641324929E+02  0.14641324929E+02  0.00000000000E+00 0.  1.
          1   -1    0    0  501    0  0.00000000000E+00 -0.00000000000E+00 -0.11029993997E+04  0.11029993997E+04  0.00000000000E+00 0. -1.
         25    2    1    2    0    0  0.35448588072E+02  0.62327586912E+01 -0.84509301871E+03  0.85505797052E+03  0.12508586253E+03 0.  0.
         23    2    1    2    0    0 -0.35448588072E+02 -0.62327586912E+01 -0.24326505601E+03  0.26258275406E+03  0.92067179683E+02 0.  0.
          5    1    3    3  502    0  0.37266316580E+02  0.48643060556E+02 -0.21718211697E+03  0.22569995575E+03  0.41800000000E+01 0.  1.
         -5    1    3    3    0  502 -0.18177285076E+01 -0.42410301865E+02 -0.62791090174E+03  0.62935801478E+03  0.41800000000E+01 0.  1.
        -11    1    4    4    0    0 -0.13505382995E+02  0.40950952600E+02 -0.75654341360E+02  0.87080165682E+02  0.00000000000E+00 0.  1.
         11    1    4    4    0    0 -0.21943205078E+02 -0.47183711291E+02 -0.16761071465E+03  0.17550258838E+03  0.00000000000E+00 0. -1.
</event>
<event>
 8    1  0.6945825E-009  0.2664972E+03  0.7561462E-02  0.1103301E+00
         -2   -1    0    0    0  501 -0.00000000000E+00  0.00000000000E+00  0.21235590092E+03  0.21235590092E+03  0.00000000000E+00 0.  1.
          2   -1    0    0  501    0  0.00000000000E+00 -0.00000000000E+00 -0.33986000113E+03  0.33986000113E+03  0.00000000000E+00 0. -1.
         25    2    1    2    0    0 -0.23084210889E+03 -0.81592825873E+02 -0.50666357435E+02  0.27957215779E+03  0.12509213870E+03 0.  0.
         23    2    1    2    0    0  0.23084210889E+03  0.81592825873E+02 -0.76837742780E+02  0.27264374426E+03  0.92114624767E+02 0.  0.
          5    1    3    3  502    0 -0.12681742292E+03  0.19183404224E+02 -0.82338306410E+01  0.12859210754E+03  0.41800000000E+01 0. -1.
         -5    1    3    3    0  502 -0.10402468597E+03 -0.10077623010E+03 -0.42432526794E+02  0.15098005025E+03  0.41800000000E+01 0. -1.
        -11    1    4    4    0    0  0.17281041366E+03  0.99033182058E+02 -0.45011737748E+02  0.20419859635E+03  0.00000000000E+00 0.  1.
         11    1    4    4    0    0  0.58031695234E+02 -0.17440356185E+02 -0.31826005032E+02  0.68445147906E+02  0.00000000000E+00 0. -1.
</event>
<event>
 8    1  0.6945825E-009  0.1848880E+03  0.7561462E-02  0.1163154E+00
          2   -1    0    0  501    0  0.00000000000E+00  0.00000000000E+00  0.13767066062E+04  0.13767066062E+04  0.00000000000E+00 0.  1.
         -2   -1    0    0    0  501 -0.00000000000E+00 -0.00000000000E+00 -0.28812082408E+02  0.28812082408E+02  0.00000000000E+00 0. -1.
         25    2    1    2    0    0 -0.53513754880E+02 -0.15428334195E+03  0.59065594388E+03  0.62545084736E+03  0.12508895581E+03 0.  0.
         23    2    1    2    0    0  0.53513754880E+02  0.15428334195E+03  0.75723857992E+03  0.78006784125E+03  0.91806854158E+02 0.  0.
          5    1    3    3  502    0  0.79462107619E+01  0.82001481023E+01  0.16838686751E+03  0.16882533650E+03  0.41800000000E+01 0. -1.
         -5    1    3    3    0  502 -0.61459965642E+02 -0.16248349005E+03  0.42226907637E+03  0.45662551087E+03  0.41800000000E+01 0. -1.
        -11    1    4    4    0    0  0.76685119636E+02  0.12227602381E+03  0.64862979129E+03  0.66449427366E+03  0.00000000000E+00 0.  1.
         11    1    4    4    0    0 -0.23171364756E+02  0.32007318134E+02  0.10860878863E+03  0.11557356760E+03  0.00000000000E+00 0. -1.
</event>
<event>
 8    1  0.6945825E-009  0.1474470E+03  0.7561462E-02  0.1203646E+00
         -1   -1    0    0    0  501 -0.00000000000E+00  0.00000000000E+00  0.44785739602E+03  0.44785739602E+03  0.00000000000E+00 0.  1.
          1   -1    0    0  501    0  0.00000000000E+00 -0.00000000000E+00 -0.61240639043E+02  0.61240639043E+02  0.00000000000E+00 0. -1.
         25    2    1    2    0    0 -0.31245407469E+02  0.12097826016E+03  0.18644657866E+03  0.25694660861E+03  0.12508884067E+03 0.  0.
         23    2    1    2    0    0  0.31245407469E+02 -0.12097826016E+03  0.20017017831E+03  0.25215142645E+03  0.88883219200E+02 0.  0.
          5    1    3    3  502    0 -0.56287363033E+02  0.20909638923E+02  0.24702761900E+02  0.65062885600E+02  0.41800000000E+01 0. -1.
         -5    1    3    3    0  502  0.25041955565E+02  0.10006862124E+03  0.16174381676E+03  0.19188372301E+03  0.41800000000E+01 0. -1.
        -11    1    4    4    0    0 -0.99610049424E+01 -0.29415335498E+02  0.33974868248E+01  0.31241422801E+02  0.00000000000E+00 0. -1.
         11    1    4    4    0    0  0.41206412411E+02 -0.91562924665E+02  0.19677269149E+03  0.22091000365E+03  0.00000000000E+00 0.  1.
</event>
<event>
 8    1  0.6945825E-009  0.1923437E+03  0.7561462E-02  0.1156364E+00
         -1   -1    0    0    0  501 -0.00000000000E+00  0.00000000000E+00  0.15522215470E+03  0.15522215470E+03  0.00000000000E+00 0.  1.
          1   -1    0    0  501    0  0.00000000000E+00 -0.00000000000E+00 -0.28889161816E+03  0.28889161816E+03  0.00000000000E+00 0. -1.
         25    2    1    2    0    0  0.16012729563E+03 -0.79247530384E+02 -0.37735461037E+02  0.22134444419E+03  0.12509386907E+03 0.  0.
         23    2    1    2    0    0 -0.16012729563E+03  0.79247530384E+02 -0.95934002433E+02  0.22276932867E+03  0.92205851741E+02 0.  0.
          5    1    3    3  502    0  0.82716412289E+02 -0.15055430028E+02 -0.76247576196E+02  0.11357744543E+03  0.41800000000E+01 0.  1.
         -5    1    3    3    0  502  0.77410883340E+02 -0.64192100356E+02  0.38512115159E+02  0.10776699876E+03  0.41800000000E+01 0.  1.
        -11    1    4    4    0    0 -0.14872337741E+03  0.97858389936E+02 -0.77371597189E+02  0.19411664411E+03  0.00000000000E+00 0.  1.
         11    1    4    4    0    0 -0.11403918220E+02 -0.18610859552E+02 -0.18562405243E+02  0.28652684559E+02  0.00000000000E+00 0. -1.
</event>
<event>
 8    1  0.6945825E-009  0.1378632E+03  0.7561462E-02  0.1216233E+00
         -4   -1    0    0    0  501 -0.00000000000E+00  0.00000000000E+00  0.48956431187E+03  0.48956431187E+03  0.00000000000E+00 0.  1.
          4   -1    0    0  501    0  0.00000000000E+00 -0.00000000000E+00 -0.44786213671E+02  0.44786213671E+02  0.00000000000E+00 0. -1.
         25    2    1    2    0    0  0.26809200684E+02 -0.92145982478E+02  0.28711777533E+03  0.32755748898E+03  0.12509067251E+03 0.  0.
         23    2    1    2    0    0 -0.26809200684E+02  0.92145982478E+02  0.15766032287E+03  0.20679303656E+03  0.93257531785E+02 0.  0.
          5    1    3    3  502    0 -0.20218177297E+02 -0.10497110962E+03  0.21849846246E+03  0.24328328970E+03  0.41800000000E+01 0.  1.
         -5    1    3    3    0  502  0.47027377981E+02  0.12825127146E+02  0.68619312865E+02  0.84274199279E+02  0.41800000000E+01 0.  1.
        -11    1    4    4    0    0 -0.20497675956E+02  0.10420915077E+03  0.16090655967E+03  0.19279684326E+03  0.00000000000E+00 0.  1.
         11    1    4    4    0    0 -0.63115247283E+01 -0.12063168294E+02 -0.32462368011E+01  0.13996193305E+02  0.00000000000E+00 0. -1.
</event>
<event>
 8    1  0.6945825E-009  0.1808231E+03  0.7561462E-02  0.1167009E+00
          1   -1    0    0  501    0  0.00000000000E+00  0.00000000000E+00  0.84692612575E+03  0.84692612575E+03  0.00000000000E+00 0. -1.
         -1   -1    0    0    0  501 -0.00000000000E+00 -0.00000000000E+00 -0.61850956500E+02  0.61850956500E+02  0.00000000000E+00 0.  1.
         25    2    1    2    0    0  0.25679512535E+02  0.15758858424E+03  0.16252718476E+03  0.25990615979E+03  0.12507008782E+03 0.  0.
         23    2    1    2    0    0 -0.25679512535E+02 -0.15758858424E+03  0.62254798449E+03  0.64887092246E+03  0.89296594400E+02 0.  0.
          5    1    3    3  502    0  0.74554875979E+02  0.11441981866E+03  0.98602982551E+02  0.16849434709E+03  0.41800000000E+01 0.  1.
         -5    1    3    3    0  502 -0.48875363445E+02  0.43168765581E+02  0.63924202206E+02  0.91411812701E+02  0.41800000000E+01 0.  1.
        -11    1    4    4    0    0 -0.18510111011E+02 -0.11706713716E+03  0.56966297319E+03  0.58186187522E+03  0.00000000000E+00 0. -1.
         11    1    4    4    0    0 -0.71694015241E+01 -0.40521447073E+02  0.52885011302E+02  0.67009047236E+02  0.00000000000E+00 0.  1.
</event>
<event>
 8    1  0.6945825E-009  0.8428546E+02  0.7561462E-02  0.1317312E+00
         -2   -1    0    0    0  501 -0.00000000000E+00  0.00000000000E+00  0.10788453929E+03  0.10788453929E+03  0.00000000000E+00 0.  1.
          2   -1    0    0  501    0  0.00000000000E+00 -0.00000000000E+00 -0.11602314189E+03  0.11602314189E+03  0.00000000000E+00 0. -1.
         25    2    1    2    0    0 -0.49803521285E+01 -0.60124219858E+01 -0.34448665699E+02  0.12999523372E+03  0.12510434484E+03 0.  0.
         23    2    1    2    0    0  0.49803521285E+01  0.60124219858E+01  0.26310063098E+02  0.93912447449E+02  0.89813001510E+02 0.  0.
          5    1    3    3  502    0  0.17483356958E+02 -0.36522834677E+02 -0.67974662303E+02  0.79231384807E+02  0.41800000000E+01 0.  1.
         -5    1    3    3    0  502 -0.22463709086E+02  0.30510412691E+02  0.33525996604E+02  0.50763848916E+02  0.41800000000E+01 0.  1.
        -11    1    4    4    0    0  0.38226635218E+02 -0.23850594772E+02  0.87588862133E+01  0.45900376892E+02  0.00000000000E+00 0. -1.
         11    1    4    4    0    0 -0.33246283090E+02  0.29863016758E+02  0.17551176885E+02  0.48012070557E+02  0.00000000000E+00 0.  1.
</event>
<event>
 8    1  0.6945825E-009  0.1136382E+03  0.7561462E-02  0.1253977E+00
          1   -1    0    0  501    0  0.00000000000E+00  0.00000000000E+00  0.68795645663E+02  0.68795645663E+02  0.00000000000E+00 0. -1.
         -1   -1    0    0    0  501 -0.00000000000E+00 -0.00000000000E+00 -0.34183150340E+03  0.34183150340E+03  0.00000000000E+00 0.  1.
         25    2    1    2    0    0 -0.42565755190E+02  0.50195919599E+02 -0.26218472720E+03  0.29786143188E+03  0.12509647305E+03 0.  0.
         23    2    1    2    0    0  0.42565755190E+02 -0.50195919599E+02 -0.10851130537E+02  0.11276571718E+03  0.90922417903E+02 0.  0.
          5    1    3    3  502    0  0.39466500372E+02  0.41512919605E+02 -0.12798978793E+03  0.14028465832E+03  0.41800000000E+01 0. -1.
         -5    1    3    3    0  502 -0.82032255562E+02  0.86829999940E+01 -0.13419493927E+03  0.15757677356E+03  0.41800000000E+01 0. -1.
        -11    1    4    4    0    0  0.67490142397E+01  0.12977786676E+02 -0.33615875021E+02  0.36660594562E+02  0.00000000000E+00 0.  1.
         11    1    4    4    0    0  0.35816740951E+02 -0.63173706275E+02  0.22764744484E+02  0.76105122615E+02  0.00000000000E+00 0. -1.
</event>
<event>
 8    1  0.6945825E-009  0.2731989E+03  0.7561462E-02  0.1099463E+00
          1   -1    0    0  501    0  0.00000000000E+00  0.00000000000E+00  0.18108194739E+04  0.18108194739E+04  0.00000000000E+00 0. -1.
         -1   -1    0    0    0  501 -0.00000000000E+00 -0.00000000000E+00 -0.44621177133E+02  0.44621177133E+02  0.00000000000E+00 0.  1.
         25    2    1    2    0    0  0.23553822868E+03 -0.11435371786E+03  0.93711854836E+03  0.98101628904E+03  0.12508699266E+03 0.  0.
         23    2    1    2    0    0 -0.23553822868E+03  0.11435371786E+03  0.82907974840E+03  0.87442436198E+03  0.93218590771E+02 0.  0.
          5    1    3    3  502    0  0.10858120390E+03 -0.10611569843E+03  0.64006051132E+03  0.65783383148E+03  0.41800000000E+01 0.  1.
         -5    1    3    3    0  502  0.12695702477E+03 -0.82380194235E+01  0.29705803704E+03  0.32318245756E+03  0.41800000000E+01 0.  1.
        -11    1    4    4    0    0 -0.19318574609E+03  0.11508104506E+03  0.58563372162E+03  0.62732067981E+03  0.00000000000E+00 0. -1.
         11    1    4    4    0    0 -0.42352482593E+02 -0.72732720549E+00  0.24344602678E+03  0.24710368217E+03  0.00000000000E+00 0.  1.
</event>
<event>
 8    1  0.6945825E-009  0.9534694E+02  0.7561462E-02  0.1290397E+00
         -2   -1    0    0    0  501 -0.00000000000E+00  0.00000000000E+00  0.14789001634E+02  0.14789001634E+02  0.00000000000E+00 0.  1.
          2   -1    0    0  501    0  0.00000000000E+00 -0.00000000000E+00 -0.12625802753E+04  0.12625802753E+04  0.00000000000E+00 0. -1.
         25    2    1    2    0    0  0.31750014520E+02 -0.46409338015E+00 -0.10358498089E+04  0.10438574614E+04  0.12508115112E+03 0.  0.
         23    2    1    2    0    0 -0.31750014520E+02  0.46409338015E+00 -0.21194146474E+03  0.23351181548E+03  0.92737827720E+02 0.  0.
          5    1    3    3  502    0  0.30394702969E+02 -0.45177891153E+02 -0.87912956615E+03  0.88082412904E+03  0.41800000000E+01 0.  1.
         -5    1    3    3    0  502  0.13553115511E+01  0.44713797773E+02 -0.15672024275E+03  0.16303333238E+03  0.41800000000E+01 0.  1.
        -11    1    4    4    0    0  0.24140756410E+02 -0.20288967873E+02 -0.11887523182E+03  0.12298674350E+03  0.00000000000E+00 0. -1.
         11    1    4    4    0    0 -0.55890770930E+02  0.20753061253E+02 -0.93066232921E+02  0.11052507198E+03  0.00000000000E+00 0.  1.
</event>
<event>
 8    1  0.6945825E-009  0.1185600E+03  0.7561462E-02  0.1245492E+00
         -1   -1    0    0    0  501 -0.00000000000E+00  0.00000000000E+00  0.87812355350E+02  0.87812355350E+02  0.00000000000E+00 0.  1.
          1   -1    0    0  501    0  0.00000000000E+00 -0.00000000000E+00 -0.26292813610E+03  0.26292813610E+03  0.00000000000E+00 0. -1.
         25    2    1    2    0    0  0.47364785743E+02  0.36981212290E+02  0.66449137714E+01  0.13892588224E+03  0.12508082542E+03 0.  0.
         23    2    1    2    0    0 -0.47364785743E+02 -0.36981212290E+02 -0.18176069452E+03  0.21181460920E+03  0.90650127462E+02 0.  0.
          5    1    3    3  502    0  0.13308323801E+02 -0.44922827443E+02  0.15878093169E+02  0.49646330686E+02  0.41800000000E+01 0. -1.
         -5    1    3    3    0  502  0.34056461942E+02  0.81904039733E+02 -0.92331793976E+01  0.89279551558E+02  0.41800000000E+01 0. -1.
        -11    1    4    4    0    0 -0.28330229129E+02  0.24167227905E+02 -0.32618879513E+02  0.49504020925E+02  0.00000000000E+00 0.  1.
         11    1    4    4    0    0 -0.19034556614E+02 -0.61148440195E+02 -0.14914181500E+03  0.16231058828E+03  0.00000000000E+00 0. -1.
</event>
<event>
 8    1  0.6945825E-009  0.1204944E+03  0.7561462E-02  0.1242284E+00
         -1   -1    0    0    0  501 -0.00000000000E+00  0.00000000000E+00  0.20354539772E+03  0.20354539772E+03  0.00000000000E+00 0.  1.
          1   -1    0    0  501    0  0.00000000000E+00 -0.00000000000E+00 -0.10235995848E+03  0.10235995848E+03  0.00000000000E+00 0. -1.
         25    2    1    2    0    0 -0.82783113852E+02 -0.29212311993E+02  0.19573691839E+02  0.15406912542E+03  0.12509101840E+03 0.  0.
         23    2    1    2    0    0  0.82783113852E+02  0.29212311993E+02  0.81611747399E+02  0.15183623078E+03  0.93206011350E+02 0.  0.
          5    1    3    3  502    0 -0.77594751928E+02 -0.63366118193E+02  0.46056900199E+02  0.11034002410E+03  0.41800000000E+01 0.  1.
         -5    1    3    3    0  502 -0.51883619246E+01  0.34153806200E+02 -0.26483208359E+02  0.43729101322E+02  0.41800000000E+01 0.  1.
        -11    1    4    4    0    0  0.31086933231E+02 -0.17991844193E+02 -0.92923144342E+01  0.37100552324E+02  0.00000000000E+00 0. -1.
         11    1    4    4    0    0  0.51696180621E+02  0.47204156187E+02  0.90904061833E+02  0.11473567845E+03  0.00000000000E+00 0.  1.
</event>
<event>
 8    1  0.6945825E-009  0.8890803E+02  0.7561462E-02  0.1305518E+00
         -3   -1    0    0    0  501 -0.00000000000E+00  0.00000000000E+00  0.59007563342E+02  0.59007563342E+02  0.00000000000E+00 0.  1.
          3   -1    0    0  501    0  0.00000000000E+00 -0.00000000000E+00 -0.23086217617E+03  0.23086217617E+03  0.00000000000E+00 0. -1.
         25    2    1    2    0    0 -0.23728635205E+02  0.11149797299E+00 -0.55210796518E+02  0.13877572498E+03  0.12508960481E+03 0.  0.
         23    2    1    2    0    0  0.23728635205E+02 -0.11149797299E+00 -0.11664381631E+03  0.15109401453E+03  0.93062133996E+02 0.  0.
          5    1    3    3  502    0 -0.11534964900E+02  0.39542501821E+02 -0.80264042732E+02  0.90313087763E+02  0.41800000000E+01 0.  1.
         -5    1    3    3    0  502 -0.12193670306E+02 -0.39431003848E+02  0.25053246214E+02  0.48462637215E+02  0.41800000000E+01 0.  1.
        -11    1    4    4    0    0  0.41303578755E+02  0.35985802143E+02 -0.78425392443E+02  0.95663502725E+02  0.00000000000E+00 0.  1.
         11    1    4    4    0    0 -0.17574943549E+02 -0.36097300116E+02 -0.38218423866E+02  0.55430511807E+02  0.00000000000E+00 0. -1.
</event>
<event>
 8    1  0.6945825E-009  0.8995671E+02  0.7561462E-02  0.1302957E+00
         -2   -1    0    0    0  501 -0.00000000000E+00  0.00000000000E+00  0.20154200200E+03  0.20154200200E+03  0.00000000000E+00 0.  1.
          2   -1    0    0  501    0  0.00000000000E+00 -0.00000000000E+00 -0.83012815423E+02  0.83012815423E+02  0.00000000000E+00 0. -1.
         25    2    1    2    0    0 -0.94923646999E+01 -0.66300702359E+02  0.40854858223E+02  0.14765662311E+03  0.12508985086E+03 0.  0.
         23    2    1    2    0    0  0.94923646999E+01  0.66300702359E+02  0.77674328351E+02  0.13689819431E+03  0.90674837736E+02 0.  0.
          5    1    3    3  502    0 -0.18391352399E+02 -0.26969076653E+02 -0.43216521816E+02  0.54320466644E+02  0.41800000000E+01 0. -1.
         -5    1    3    3    0  502  0.88989876991E+01 -0.39331625706E+02  0.84071380039E+02  0.93336156469E+02  0.41800000000E+01 0. -1.
        -11    1    4    4    0    0 -0.30344056708E+02  0.58453083852E+02  0.25122618109E+02  0.70488798613E+02  0.00000000000E+00 0. -1.
         11    1    4    4    0    0  0.39836421408E+02  0.78476185068E+01  0.52551710242E+02  0.66409395692E+02  0.00000000000E+00 0.  1.
</event>
<event>
 8    1  0.6945825E-009  0.2358951E+03  0.7561462E-02  0.1122558E+00
         -2   -1    0    0    0  501 -0.00000000000E+00  0.00000000000E+00  0.43815969750E+03  0.43815969750E+03  0.00000000000E+00 0.  1.
          2   -1    0    0  501    0  0.00000000000E+00 -0.00000000000E+00 -0.13132996164E+03  0.13132996164E+03  0.00000000000E+00 0. -1.
         25    2    1    2    0    0  0.19207919803E+03  0.86133816480E+02  0.11647405827E+03  0.27116065292E+03  0.12509372799E+03 0.  0.
         23    2    1    2    0    0 -0.19207919803E+03 -0.86133816480E+02  0.19035567759E+03  0.29832900622E+03  0.91931818782E+02 0.  0.
          5    1    3    3  502    0  0.17329801976E+03  0.18249910114E+02  0.81998855244E+02  0.19263059864E+03  0.41800000000E+01 0. -1.
         -5    1    3    3    0  502  0.18781178274E+02  0.67883906366E+02  0.34475203026E+02  0.78530054276E+02  0.41800000000E+01 0. -1.
        -11    1    4    4    0    0 -0.46429060676E+02 -0.64807796934E+02  0.89672947102E+02  0.11998727291E+03  0.00000000000E+00 0.  1.
         11    1    4    4    0    0 -0.14565013736E+03 -0.21326019546E+02  0.10068273049E+03  0.17834173331E+03  0.00000000000E+00 0. -1.
</event>
<event>
 8    1  0.6945825E-009  0.6219867E+02  0.7561462E-02  0.1388830E+00
         -3   -1    0    0    0  501 -0.00000000000E+00  0.00000000000E+00  0.13707438463E+03  0.13707438463E+03  0.00000000000E+00 0.  1.
          3   -1    0    0  501    0  0.00000000000E+00 -0.00000000000E+00 -0.86923892958E+02  0.86923892958E+02  0.00000000000E+00 0. -1.
         25    2    1    2    0    0 -0.29436445152E+01  0.16858031582E+02  0.22939695304E+02  0.12831790986E+03  0.12508556311E+03 0.  0.
         23    2    1    2    0    0  0.29436445152E+01 -0.16858031582E+02  0.27210796370E+02  0.95680367724E+02  0.90119071550E+02 0.  0.
          5    1    3    3  502    0  0.33703736735E+02  0.32254965263E+02 -0.34618449600E+02  0.58242888894E+02  0.41800000000E+01 0.  1.
         -5    1    3    3    0  502 -0.36647381251E+02 -0.15396933681E+02  0.57558144904E+02  0.70075020971E+02  0.41800000000E+01 0.  1.
        -11    1    4    4    0    0 -0.14224939683E+02 -0.10694378783E+01  0.56480274451E+02  0.58253875480E+02  0.00000000000E+00 0.  1.
         11    1    4    4    0    0  0.17168584199E+02 -0.15788593704E+02 -0.29269478082E+02  0.37426492244E+02  0.00000000000E+00 0. -1.
</event>
<event>
 8    1  0.6945825E-009  0.7608755E+02  0.7561462E-02  0.1340536E+00
         -1   -1    0    0    0  501 -0.00000000000E+00  0.00000000000E+00  0.11854900866E+03  0.11854900866E+03  0.00000000000E+00 0.  1.
          1   -1    0    0  501    0  0.00000000000E+00 -0.00000000000E+00 -0.16282982090E+03  0.16282982090E+03  0.00000000000E+00 0. -1.
         25    2    1    2    0    0 -0.29415202686E+02  0.16764555130E+02  0.55979578851E+02  0.14116197403E+03  0.12508671075E+03 0.  0.
         23    2    1    2    0    0  0.29415202686E+02 -0.16764555130E+02 -0.10026039109E+03  0.14021685553E+03  0.91990847901E+02 0.  0.
          5    1    3    3  502    0 -0.47328247875E+02 -0.14797088382E+01  0.87972926697E+02  0.99994303922E+02  0.41800000000E+01 0.  1.
         -5    1    3    3    0  502  0.17913045190E+02  0.18244263968E+02 -0.31993347846E+02  0.41167670108E+02  0.41800000000E+01 0.  1.
        -11    1    4    4    0    0 -0.22666685996E+02 -0.13861774182E+02  0.69866618206E+00  0.26578479489E+02  0.00000000000E+00 0.  1.
         11    1    4    4    0    0  0.52081888681E+02 -0.29027809486E+01 -0.10095905727E+03  0.11363837605E+03  0.00000000000E+00 0. -1.
</event>
<event>
 8    1  0.6945825E-009  0.8127558E+02  0.7561462E-02  0.1325470E+00
          1   -1    0    0  501    0  0.00000000000E+00  0.00000000000E+00  0.71504072426E+03  0.71504072426E+03  0.00000000000E+00 0. -1.
         -1   -1    0    0    0  501 -0.00000000000E+00 -0.00000000000E+00 -0.20687904028E+02  0.20687904028E+02  0.00000000000E+00 0.  1.
         25    2    1    2    0    0 -0.24408026044E+02 -0.39558241605E+02  0.48590612222E+03  0.50389688657E+03  0.12508679573E+03 0.  0.
         23    2    1    2    0    0  0.24408026044E+02  0.39558241605E+02  0.20844669801E+03  0.23183174172E+03  0.90196032859E+02 0.  0.
          5    1    3    3  502    0 -0.38947940181E+02 -0.40471366745E+02  0.48547816638E+03  0.48873448416E+03  0.41800000000E+01 0.  1.
         -5    1    3    3    0  502  0.14539914137E+02  0.91312514004E+00  0.42795583927E+00  0.15162402410E+02  0.41800000000E+01 0.  1.
        -11    1    4    4    0    0 -0.23640035559E+02  0.35767529863E+02  0.15035905659E+03  0.15635220936E+03  0.00000000000E+00 0. -1.
         11    1    4    4    0    0  0.48048061604E+02  0.37907117427E+01  0.58087641425E+02  0.75479532363E+02  0.00000000000E+00 0.  1.
</event>
<event>
 8    1  0.6945825E-009  0.2327536E+03  0.7561462E-02  0.1124717E+00
         -1   -1    0    0    0  501 -0.00000000000E+00  0.00000000000E+00  0.15563208990E+03  0.15563208990E+03  0.00000000000E+00 0.  1.
          1   -1    0    0  501    0  0.00000000000E+00 -0.00000000000E+00 -0.38716863940E+03  0.38716863940E+03  0.00000000000E+00 0. -1.
         25    2    1    2    0    0 -0.13984582395E+03  0.16279114299E+03 -0.16976089744E+03  0.30087333766E+03  0.12509273479E+03 0.  0.
         23    2    1    2    0    0  0.13984582395E+03 -0.16279114299E+03 -0.61775652053E+02  0.24192739164E+03  0.93031290037E+02 0.  0.
          5    1    3    3  502    0 -0.28042450236E+01  0.92044903269E+02 -0.82008038027E+02  0.12338119269E+03  0.41800000000E+01 0. -1.
         -5    1    3    3    0  502 -0.13704157893E+03  0.70746239724E+02 -0.87752859416E+02  0.17749214497E+03  0.41800000000E+01 0. -1.
        -11    1    4    4    0    0  0.14206674650E+02 -0.43620697054E+02 -0.50747229180E+02  0.68409619832E+02  0.00000000000E+00 0. -1.
         11    1    4    4    0    0  0.12563914930E+03 -0.11917044594E+03 -0.11028422872E+02  0.17351777181E+03  0.00000000000E+00 0.  1.
</event>
<event>
 8    1  0.6945825E-009  0.1254361E+03  0.7561462E-02  0.1234389E+00
          1   -1    0    0  501    0  0.00000000000E+00  0.00000000000E+00  0.21443053712E+02  0.21443053712E+02  0.00000000000E+00 0. -1.
         -1   -1    0    0    0  501 -0.00000000000E+00 -0.00000000000E+00 -0.10238220811E+04  0.10238220811E+04  0.00000000000E+00 0.  1.
         25    2    1    2    0    0 -0.92485425801E+02  0.35753189425E+02 -0.49657762145E+03  0.52160214023E+03  0.12509042344E+03 0.  0.
         23    2    1    2    0    0  0.92485425801E+02 -0.35753189425E+02 -0.50580140590E+03  0.52366299454E+03  0.92498784301E+02 0.  0.
          5    1    3    3  502    0  0.30326865200E+01  0.19856393672E+02 -0.57653121982E+01  0.21311611435E+02  0.41800000000E+01 0. -1.
         -5    1    3    3    0  502 -0.95518112321E+02  0.15896795753E+02 -0.49081230925E+03  0.50029052880E+03  0.41800000000E+01 0. -1.
        -11    1    4    4    0    0  0.59519641364E+02 -0.65872871549E+02 -0.37798258377E+03  0.38826879420E+03  0.00000000000E+00 0.  1.
         11    1    4    4    0    0  0.32965784437E+02  0.30119682124E+02 -0.12781882213E+03  0.13539420034E+03  0.00000000000E+00 0. -1.
</event>
<event>
 8    1  0.6945825E-009  0.8176298E+02  0.7561462E-02  0.1324122E+00
         -3   -1    0    0    0  501 -0.00000000000E+00  0.00000000000E+00  0.51320836798E+02  0.51320836798E+02  0.00000000000E+00 0.  1.
          3   -1    0    0  501    0  0.00000000000E+00 -0.00000000000E+00 -0.32414259956E+03  0.32414259956E+03  0.00000000000E+00 0. -1.
         25    2    1    2    0    0 -0.20918503770E+02  0.50074609156E+02 -0.88168417583E+02  0.16237716427E+03  0.12509046061E+03 0.  0.
         23    2    1    2    0    0  0.20918503770E+02 -0.50074609156E+02 -0.18465334517E+03  0.21308627208E+03  0.91454093310E+02 0.  0.
          5    1    3    3  502    0 -0.12382965591E+02  0.27806488810E+01  0.31031524009E+02  0.33786058180E+02  0.41800000000E+01 0.  1.
         -5    1    3    3    0  502 -0.85355381787E+01  0.47293960275E+02 -0.11919994159E+03  0.12859110609E+03  0.41800000000E+01 0.  1.
        -11    1    4    4    0    0 -0.28200908349E+02  0.44362875072E+01 -0.82584404549E+02  0.87379378307E+02  0.00000000000E+00 0.  1.
         11    1    4    4    0    0  0.49119412119E+02 -0.54510896663E+02 -0.10206894063E+03  0.12570689377E+03  0.00000000000E+00 0. -1.
</event>
<event>
 8    1  0.6945825E-009  0.8061327E+02  0.7561462E-02  0.1327320E+00
         -1   -1    0    0    0  501 -0.00000000000E+00  0.00000000000E+00  0.12313068325E+02  0.12313068325E+02  0.00000000000E+00 0.  1.
          1   -1    0    0  501    0  0.00000000000E+00 -0.00000000000E+00 -0.99477068168E+03  0.99477068168E+03  0.00000000000E+00 0. -1.
         25    2    1    2    0    0 -0.17410233164E+01  0.62725894756E+01 -0.63826254065E+03  0.65043733152E+03  0.12508906788E+03 0.  0.
         23    2    1    2    0    0  0.17410233164E+01 -0.62725894756E+01 -0.34419507271E+03  0.35664641848E+03  0.93188213845E+02 0.  0.
          5    1    3    3  502    0  0.29066691792E-01 -0.34751870259E+02 -0.56703989934E+03  0.56811918923E+03  0.41800000000E+01 0.  1.
         -5    1    3    3    0  502 -0.17700900082E+01  0.41024459735E+02 -0.71222641309E+02  0.82318142291E+02  0.41800000000E+01 0.  1.
        -11    1    4    4    0    0 -0.33046747272E+02  0.22354208680E+02 -0.89395595000E+02  0.97894691155E+02  0.00000000000E+00 0.  1.
         11    1    4    4    0    0  0.34787770588E+02 -0.28626798155E+02 -0.25479947771E+03  0.25875172733E+03  0.00000000000E+00 0. -1.
</event>
<event>
 8    1  0.6945825E-009  0.4933837E+02  0.7561462E-02  0.1448943E+00
         -1   -1    0    0    0  501 -0.00000000000E+00  0.00000000000E+00  0.20376056405E+02  0.20376056405E+02  0.00000000000E+00 0.  1.
          1   -1    0    0  501    0  0.00000000000E+00 -0.00000000000E+00 -0.74350117804E+03  0.74350117804E+03  0.00000000000E+00 0. -1.
         25    2    1    2    0    0  0.31333776712E+02  0.36213074513E+01 -0.55214009918E+03  0.56701083487E+03  0.12509068034E+03 0.  0.
         23    2    1    2    0    0 -0.31333776712E+02 -0.36213074513E+01 -0.17098502246E+03  0.19686639957E+03  0.92334077928E+02 0.  0.
          5    1    3    3  502    0  0.37266104813E+02 -0.22950487504E+01 -0.55571862852E+03  0.55698715991E+03  0.41800000000E+01 0. -1.
         -5    1    3    3    0  502 -0.59323281006E+01  0.59163562016E+01  0.35785293455E+01  0.10023674959E+02  0.41800000000E+01 0. -1.
        -11    1    4    4    0    0 -0.24949461383E+02  0.16977612986E+02 -0.17262080005E+03  0.17523885293E+03  0.00000000000E+00 0. -1.
         11    1    4    4    0    0 -0.63843153290E+01 -0.20598920437E+02  0.16357775982E+01  0.21627546642E+02  0.00000000000E+00 0.  1.
</event>
<event>
 8    1  0.6945825E-009  0.6846000E+02  0.7561462E-02  0.1365410E+00
          2   -1    0    0  501    0  0.00000000000E+00  0.00000000000E+00  0.26035498115E+03  0.26035498115E+03  0.00000000000E+00 0. -1.
         -2   -1    0    0    0  501 -0.00000000000E+00 -0.00000000000E+00 -0.48466356622E+02  0.48466356622E+02  0.00000000000E+00 0.  1.
         25    2    1    2    0    0 -0.11426485658E+02 -0.19119388130E+02  0.12115006881E+03  0.17556025790E+03  0.12509176394E+03 0.  0.
         23    2    1    2    0    0  0.11426485658E+02  0.19119388130E+02  0.90738555718E+02  0.13326107987E+03  0.95020599545E+02 0.  0.
          5    1    3    3  502    0 -0.13697741890E+02  0.19680636490E+02  0.13260942100E+03  0.13482465102E+03  0.41800000000E+01 0. -1.
         -5    1    3    3    0  502  0.22712562329E+01 -0.38800024620E+02 -0.11459352186E+02  0.40735606880E+02  0.41800000000E+01 0. -1.
        -11    1    4    4    0    0  0.38030009688E+02 -0.40054921545E+01  0.90240282503E+02  0.98008337352E+02  0.00000000000E+00 0. -1.
         11    1    4    4    0    0 -0.26603524031E+02  0.23124880284E+02  0.49827321540E+00  0.35252742520E+02  0.00000000000E+00 0.  1.
</event>
<event>
 8    1  0.6945825E-009  0.2028313E+03  0.7561462E-02  0.1147372E+00
          1   -1    0    0  501    0  0.00000000000E+00  0.00000000000E+00  0.44801680850E+02  0.44801680850E+02  0.00000000000E+00 0. -1.
         -1   -1    0    0    0  501 -0.00000000000E+00 -0.00000000000E+00 -0.10200335098E+04  0.10200335098E+04  0.00000000000E+00 0.  1.
         25    2    1    2    0    0  0.10468795790E+03 -0.15366688594E+03 -0.54772606080E+03  0.59179749022E+03  0.12508937359E+03 0.  0.
         23    2    1    2    0    0 -0.10468795790E+03  0.15366688594E+03 -0.42750576818E+03  0.47303770046E+03  0.80189798999E+02 0.  0.
          5    1    3    3  502    0  0.57681268866E+02 -0.13111225449E+02 -0.27553818222E+03  0.28184711329E+03  0.41800000000E+01 0.  1.
         -5    1    3    3    0  502  0.47006689035E+02 -0.14055566050E+03 -0.27218787858E+03  0.30995037693E+03  0.41800000000E+01 0.  1.
        -11    1    4    4    0    0 -0.25876037845E+02  0.98632925270E+02 -0.26879157690E+03  0.28748379971E+03  0.00000000000E+00 0.  1.
         11    1    4    4    0    0 -0.78811920056E+02  0.55033960674E+02 -0.15871419127E+03  0.18555390074E+03  0.00000000000E+00 0. -1.
</event>
<event>
 8    1  0.6945825E-009  0.5525487E+02  0.7561462E-02  0.1418897E+00
          1   -1    0    0  501    0  0.00000000000E+00  0.00000000000E+00  0.20454518514E+03  0.20454518514E+03  0.00000000000E+00 0. -1.
         -1   -1    0    0    0  501 -0.00000000000E+00 -0.00000000000E+00 -0.60824592146E+02  0.60824592146E+02  0.00000000000E+00 0.  1.
         25    2    1    2    0    0  0.23365191733E+02 -0.21732322139E+02  0.91014815340E+02  0.15795364718E+03  0.12508969596E+03 0.  0.
         23    2    1    2    0    0 -0.23365191733E+02  0.21732322139E+02  0.52705777656E+02  0.10741613011E+03  0.87989203879E+02 0.  0.
          5    1    3    3  502    0  0.15505315258E+02 -0.22601997078E+02 -0.27529787697E+02  0.39072070380E+02  0.41800000000E+01 0. -1.
         -5    1    3    3    0  502  0.78598764756E+01  0.86967493848E+00  0.11854460304E+03  0.11888157680E+03  0.41800000000E+01 0. -1.
        -11    1    4    4    0    0  0.22326349916E+01 -0.22566225497E+02  0.51464039206E+02  0.56238479030E+02  0.00000000000E+00 0. -1.
         11    1    4    4    0    0 -0.25597826725E+02  0.44298547636E+02  0.12417384500E+01  0.51177651081E+02  0.00000000000E+00 0.  1.
</event>
<event>
 8    1  0.6945825E-009  0.6127042E+02  0.7561462E-02  0.1392576E+00
          2   -1    0    0  501    0  0.00000000000E+00  0.00000000000E+00  0.11084884586E+04  0.11084884586E+04  0.00000000000E+00 0. -1.
         -2   -1    0    0    0  501 -0.00000000000E+00 -0.00000000000E+00 -0.14505717849E+02  0.14505717849E+02  0.00000000000E+00 0.  1.
         25    2    1    2    0    0  0.93621165924E+01 -0.46196651601E+02  0.81370890692E+03  0.82461600069E+03  0.12509030157E+03 0.  0.
         23    2    1    2    0    0 -0.93621165924E+01  0.46196651601E+02  0.28027383382E+03  0.29837817575E+03  0.90853365335E+02 0.  0.
          5    1    3    3  502    0  0.35966703703E+00 -0.29486795270E+02  0.80064329029E+03  0.80119707385E+03  0.41800000000E+01 0.  1.
         -5    1    3    3    0  502  0.90024495554E+01 -0.16709856331E+02  0.13065616635E+02  0.23418926847E+02  0.41800000000E+01 0.  1.
        -11    1    4    4    0    0 -0.22211858012E+02 -0.30553395383E+01  0.12220977244E+02  0.25535348457E+02  0.00000000000E+00 0.  1.
         11    1    4    4    0    0  0.12849741420E+02  0.49251991139E+02  0.26805285658E+03  0.27284282729E+03  0.00000000000E+00 0. -1.
</event>
<event>
 8    1  0.6945825E-009  0.9739014E+02  0.7561462E-02  0.1285882E+00
          2   -1    0    0  501    0  0.00000000000E+00  0.00000000000E+00  0.55565736488E+03  0.55565736488E+03  0.00000000000E+00 0. -1.
         -2   -1    0    0    0  501 -0.00000000000E+00 -0.00000000000E+00 -0.52277439508E+02  0.52277439508E+02  0.00000000000E+00 0.  1.
         25    2    1    2    0    0  0.45079017682E+01  0.75177396594E+02  0.75548210272E+02  0.16439860177E+03  0.12508959210E+03 0.  0.
         23    2    1    2    0    0 -0.45079017682E+01 -0.75177396594E+02  0.42783171510E+03  0.44353620262E+03  0.89512146948E+02 0.  0.
          5    1    3    3  502    0 -0.96704853561E+01  0.19622785067E+02  0.99616625956E+02  0.10207603317E+03  0.41800000000E+01 0. -1.
         -5    1    3    3    0  502  0.14178387124E+02  0.55554611528E+02 -0.24068415684E+02  0.62322568600E+02  0.41800000000E+01 0. -1.
        -11    1    4    4    0    0  0.41065635106E+02 -0.41240992886E+02  0.17597615967E+03  0.18535051835E+03  0.00000000000E+00 0.  1.
         11    1    4    4    0    0 -0.45573536874E+02 -0.33936403708E+02  0.25185555543E+03  0.25818568427E+03  0.00000000000E+00 0. -1.
</event>
<event>
 8    1  0.6945825E-009  0.1157598E+03  0.7561462E-02  0.1250261E+00
         -1   -1    0    0    0  501 -0.00000000000E+00  0.00000000000E+00  0.85501259254E+02  0.85501259254E+02  0.00000000000E+00 0.  1.
          1   -1    0    0  501    0  0.00000000000E+00 -0.00000000000E+00 -0.18468664845E+03  0.18468664845E+03  0.00000000000E+00 0. -1.
         25    2    1    2    0    0  0.52431793796E+02 -0.22122689414E+02 -0.25146173220E+02  0.13971023946E+03  0.12509242421E+03 0.  0.
         23    2    1    2    0    0 -0.52431793796E+02  0.22122689414E+02 -0.74039215971E+02  0.13047766824E+03  0.91126889670E+02 0.  0.
          5    1    3    3  502    0  0.70312538319E+02 -0.55964603271E+02 -0.39982604298E+02  0.98447808053E+02  0.41800000000E+01 0.  1.
         -5    1    3    3    0  502 -0.17880744523E+02  0.33841913857E+02  0.14836431078E+02  0.41262431403E+02  0.41800000000E+01 0.  1.
        -11    1    4    4    0    0 -0.33141051027E+02 -0.31710656980E+02 -0.14937724631E+02  0.48239306032E+02  0.00000000000E+00 0. -1.
         11    1    4    4    0    0 -0.19290742769E+02  0.53833346394E+02 -0.59101491339E+02  0.82238362211E+02  0.00000000000E+00 0.  1.
</event>
<event>
 8    1  0.6945825E-009  0.1934161E+03  0.7561462E-02  0.1155416E+00
          1   -1    0    0  501    0  0.00000000000E+00  0.00000000000E+00  0.79002043025E+03  0.79002043025E+03  0.00000000000E+00 0. -1.
         -1   -1    0    0    0  501 -0.00000000000E+00 -0.00000000000E+00 -0.78872289108E+02  0.78872289108E+02  0.00000000000E+00 0.  1.
         25    2    1    2    0    0 -0.82796911774E+02 -0.16731015148E+03  0.15158660114E+03  0.27106328609E+03  0.12509513193E+03 0.  0.
         23    2    1    2    0    0  0.82796911774E+02  0.16731015148E+03  0.55956154000E+03  0.59782943327E+03  0.97174579210E+02 0.  0.
          5    1    3    3  502    0 -0.20574435114E+02 -0.23638383700E+02 -0.21037842208E+02  0.37975568053E+02  0.41800000000E+01 0. -1.
         -5    1    3    3    0  502 -0.62222476660E+02 -0.14367176778E+03  0.17262444335E+03  0.23308771804E+03  0.41800000000E+01 0. -1.
        -11    1    4    4    0    0  0.22186388348E+02  0.11909728516E+03  0.23782708029E+03  0.26690470075E+03  0.00000000000E+00 0.  1.
         11    1    4    4    0    0  0.60610523427E+02  0.48212866316E+02  0.32173445971E+03  0.33092473252E+03  0.00000000000E+00 0. -1.
</event>
<event>
 8    1  0.6945825E-009  0.1064601E+03  0.7561462E-02  0.1267269E+00
          4   -1    0    0  501    0  0.00000000000E+00  0.00000000000E+00  0.43640079020E+02  0.43640079020E+02  0.00000000000E+00 0.  1.
         -4   -1    0    0    0  501 -0.00000000000E+00 -0.00000000000E+00 -0.42070407623E+03  0.42070407623E+03  0.00000000000E+00 0. -1.
         25    2    1    2    0    0  0.48025089483E+02  0.57964614498E+02 -0.26433978957E+03  0.30197423529E+03  0.12508640484E+03 0.  0.
         23    2    1    2    0    0 -0.48025089483E+02 -0.57964614498E+02 -0.11272420764E+03  0.16236991996E+03  0.89392047554E+02 0.  0.
          5    1    3    3  502    0 -0.13480130113E+02 -0.12152042235E+01  0.81885883027E+01  0.16362029445E+02  0.41800000000E+01 0.  1.
         -5    1    3    3    0  502  0.61505219596E+02  0.59179818722E+02 -0.27252837787E+03  0.28561220585E+03  0.41800000000E+01 0.  1.
        -11    1    4    4    0    0 -0.15402881993E+02  0.22046018171E+02 -0.45661762663E+02  0.52993134087E+02  0.00000000000E+00 0.  1.
         11    1    4    4    0    0 -0.32622207490E+02 -0.80010632669E+02 -0.67062444976E+02  0.10937678587E+03  0.00000000000E+00 0. -1.
</event>
<event>
 8    1  0.6945825E-009  0.7945568E+02  0.7561462E-02  0.1330603E+00
         -1   -1    0    0    0  501 -0.00000000000E+00  0.00000000000E+00  0.70065004933E+02  0.70065004933E+02  0.00000000000E+00 0.  1.
          1   -1    0    0  501    0  0.00000000000E+00 -0.00000000000E+00 -0.21022812425E+03  0.21022812425E+03  0.00000000000E+00 0. -1.
         25    2    1    2    0    0 -0.38279931756E+02 -0.11433041280E+02 -0.12265983380E+03  0.17969095450E+03  0.12508931487E+03 0.  0.
         23    2    1    2    0    0  0.38279931756E+02  0.11433041280E+02 -0.17503285525E+02  0.10060217469E+03  0.90655198083E+02 0.  0.
          5    1    3    3  502    0  0.90345436487E+01 -0.40255743557E+02  0.37227115680E+01  0.41635067547E+02  0.41800000000E+01 0. -1.
         -5    1    3    3    0  502 -0.47314475405E+02  0.28822702276E+02 -0.12638254536E+03  0.13805588695E+03  0.41800000000E+01 0. -1.
        -11    1    4    4    0    0 -0.77522792472E+01 -0.86896314155E+01 -0.42798938908E+02  0.44354894874E+02  0.00000000000E+00 0. -1.
         11    1    4    4    0    0  0.46032211003E+02  0.20122672696E+02  0.25295653383E+02  0.56247279813E+02  0.00000000000E+00 0.  1.
</event>
<event>
 8    1  0.6945825E-009  0.9641941E+02  0.7561462E-02  0.1288011E+00
         -1   -1    0    0    0  501 -0.00000000000E+00  0.00000000000E+00  0.14133721096E+02  0.14133721096E+02  0.00000000000E+00 0.  1.
          1   -1    0    0  501    0  0.00000000000E+00 -0.00000000000E+00 -0.83725827615E+03  0.83725827615E+03  0.00000000000E+00 0. -1.
         25    2    1    2    0    0  0.21252520838E+01 -0.46045323789E+01 -0.47235312335E+03  0.48866048490E+03  0.12508348392E+03 0.  0.
         23    2    1    2    0    0 -0.21252520838E+01  0.46045323789E+01 -0.35077143170E+03  0.36273151235E+03  0.92237922436E+02 0.  0.
          5    1    3    3  502    0 -0.25108416502E+02 -0.49139177811E+02 -0.11651632927E+03  0.12899077006E+03  0.41800000000E+01 0.  1.
         -5    1    3    3    0  502  0.27233668586E+02  0.44534645432E+02 -0.35583679408E+03  0.35966971484E+03  0.41800000000E+01 0.  1.
        -11    1    4    4    0    0 -0.43049660175E+02 -0.42480598685E+01 -0.24822549182E+03  0.25196669233E+03  0.00000000000E+00 0.  1.
         11    1    4    4    0    0  0.40924408091E+02  0.88525922474E+01 -0.10254593989E+03  0.11076482002E+03  0.00000000000E+00 0. -1.
</event>
<event>
 8    1  0.6945825E-009  0.1932388E+03  0.7561462E-02  0.1155572E+00
          1   -1    0    0  501    0  0.00000000000E+00  0.00000000000E+00  0.14573383884E+04  0.14573383884E+04  0.00000000000E+00 0. -1.
         -1   -1    0    0    0  501 -0.00000000000E+00 -0.00000000000E+00 -0.27132048738E+02  0.27132048738E+02  0.00000000000E+00 0.  1.
         25    2    1    2    0    0 -0.34984928731E+02 -0.16264949853E+03  0.73897042924E+03  0.76772473144E+03  0.12508062745E+03 0.  0.
         23    2    1    2    0    0  0.34984928731E+02  0.16264949853E+03  0.69123591046E+03  0.71674570574E+03  0.90766283222E+02 0.  0.
          5    1    3    3  502    0  0.13903770815E+02 -0.14571030529E+03  0.42565151454E+03  0.45013497102E+03  0.41800000000E+01 0.  1.
         -5    1    3    3    0  502 -0.48888699546E+02 -0.16939193237E+02  0.31331891470E+03  0.31758976041E+03  0.41800000000E+01 0.  1.
        -11    1    4    4    0    0 -0.12988099638E+02 -0.48796167667E+01  0.78267831156E+02  0.79488079521E+02  0.00000000000E+00 0.  1.
         11    1    4    4    0    0  0.47973028369E+02  0.16752911530E+03  0.61296807931E+03  0.63725762622E+03  0.00000000000E+00 0. -1.
</event>
<event>
 8    1  0.6945825E-009  0.1480708E+03  0.7561462E-02  0.1202864E+00
          2   -1    0    0  501    0  0.00000000000E+00  0.00000000000E+00  0.20610618590E+03  0.20610618590E+03  0.00000000000E+00 0. -1.
         -2   -1    0    0    0  501 -0.00000000000E+00 -0.00000000000E+00 -0.17303053579E+03  0.17303053579E+03  0.00000000000E+00 0.  1.
         25    2    1    2    0    0 -0.12550452799E+03 -0.42604973399E+02  0.97075569758E+02  0.20647721300E+03  0.12507039194E+03 0.  0.
         23    2    1    2    0    0  0.12550452799E+03  0.42604973399E+02 -0.63999919652E+02  0.17265950869E+03  0.90270404467E+02 0.  0.
          5    1    3    3  502    0 -0.60980987752E+02  0.46589241476E+01 -0.20128542634E+02  0.64521446589E+02  0.41800000000E+01 0.  1.
         -5    1    3    3    0  502 -0.64523540236E+02 -0.47263897546E+02  0.11720411239E+03  0.14195576641E+03  0.41800000000E+01 0.  1.
        -11    1    4    4    0    0  0.26931759561E+01  0.31302937737E+02 -0.32850380513E+02  0.45456293377E+02  0.00000000000E+00 0.  1.
         11    1    4    4    0    0  0.12281135203E+03  0.11302035662E+02 -0.31149539138E+02  0.12720321531E+03  0.00000000000E+00 0. -1.
</event>
<event>
 8    1  0.6945825E-009  0.1027077E+03  0.7561462E-02  0.1274703E+00
          1   -1    0    0  501    0  0.00000000000E+00  0.00000000000E+00  0.10714685020E+04  0.10714685020E+04  0.00000000000E+00 0. -1.
         -1   -1    0    0    0  501 -0.00000000000E+00 -0.00000000000E+00 -0.19883523567E+02  0.19883523567E+02  0.00000000000E+00 0.  1.
         25    2    1    2    0    0 -0.34669050071E+02  0.58774775807E+02  0.82296146270E+03  0.83520591182E+03  0.12508768418E+03 0.  0.
         23    2    1    2    0    0  0.34669050071E+02 -0.58774775807E+02  0.22862351570E+03  0.25614611372E+03  0.93197115510E+02 0.  0.
          5    1    3    3  502    0 -0.12068636042E+02 -0.17037452631E+02  0.56391756064E+03  0.56431942583E+03  0.41800000000E+01 0. -1.
         -5    1    3    3    0  502 -0.22600414028E+02  0.75812228438E+02  0.25904390206E+03  0.27088648599E+03  0.41800000000E+01 0. -1.
        -11    1    4    4    0    0  0.49416155529E+02 -0.56136298746E+01  0.55879020547E+02  0.74805977067E+02  0.00000000000E+00 0.  1.
         11    1    4    4    0    0 -0.14747105458E+02 -0.53161145933E+02  0.17274449515E+03  0.18134013665E+03  0.00000000000E+00 0. -1.
</event>
<event>
 8    1  0.6945825E-009  0.1437861E+03  0.7561462E-02  0.1208323E+00
         -1   -1    0    0    0  501 -0.00000000000E+00  0.00000000000E+00  0.56679792618E+03  0.56679792618E+03  0.00000000000E+00 0. -1.
          1   -1    0    0  501    0  0.00000000000E+00 -0.00000000000E+00 -0.39234302490E+02  0.39234302490E+02  0.00000000000E+00 0.  1.
         25    2    1    2    0    0 -0.92483155787E+02 -0.40922302247E+02  0.27637488491E+03  0.31978230179E+03  0.12509945884E+03 0.  0.
         23    2    1    2    0    0  0.92483155787E+02  0.40922302247E+02  0.25118873878E+03  0.28624992688E+03  0.92819551955E+02 0.  0.
          5    1    3    3  502    0  0.10881943289E+02  0.30080921096E+02  0.85266660041E+02  0.91165531964E+02  0.41800000000E+01 0.  1.
         -5    1    3    3    0  502 -0.10336509908E+03 -0.71003223343E+02  0.19110822487E+03  0.22861676982E+03  0.41800000000E+01 0.  1.
        -11    1    4    4    0    0  0.96485725982E+01 -0.23173717078E+02  0.18840166928E+02  0.31385793064E+02  0.00000000000E+00 0.  1.
         11    1    4    4    0    0  0.82834583188E+02  0.64096019326E+02  0.23234857185E+03  0.25486413382E+03  0.00000000000E+00 0. -1.
</event>
<event>
 8    1  0.6945825E-009  0.1174974E+03  0.7561462E-02  0.1247284E+00
          1   -1    0    0  501    0  0.00000000000E+00  0.00000000000E+00  0.11794847952E+03  0.11794847952E+03  0.00000000000E+00 0. -1.
         -1   -1    0    0    0  501 -0.00000000000E+00 -0.00000000000E+00 -0.15921936077E+03  0.15921936077E+03  0.00000000000E+00 0.  1.
         25    2    1    2    0    0  0.33036019101E+02 -0.64656440004E+02  0.25072960306E+02  0.14679296903E+03  0.12509072159E+03 0.  0.
         23    2    1    2    0    0 -0.33036019101E+02  0.64656440004E+02 -0.66343841552E+02  0.13037487126E+03  0.85581937060E+02 0.  0.
          5    1    3    3  502    0  0.24802088447E+02  0.30456912514E+02 -0.16209639490E+02  0.42696509502E+02  0.41800000000E+01 0. -1.
         -5    1    3    3    0  502  0.82339306537E+01 -0.95113352518E+02  0.41282599796E+02  0.10409645953E+03  0.41800000000E+01 0. -1.
        -11    1    4    4    0    0  0.20110112505E+02  0.31248278917E+02 -0.55316660038E+02  0.66639361026E+02  0.00000000000E+00 0.  1.
         11    1    4    4    0    0 -0.53146131607E+02  0.33408161088E+02 -0.11027181513E+02  0.63735510229E+02  0.00000000000E+00 0. -1.
</event>
<event>
 8    1  0.6945825E-009  0.1347890E+03  0.7561462E-02  0.1220518E+00
          1   -1    0    0  501    0  0.00000000000E+00  0.00000000000E+00  0.19241683651E+03  0.19241683651E+03  0.00000000000E+00 0. -1.
         -1   -1    0    0    0  501 -0.00000000000E+00 -0.00000000000E+00 -0.10152244548E+03  0.10152244548E+03  0.00000000000E+00 0.  1.
         25    2    1    2    0    0  0.47983455918E+02 -0.71275536997E+02  0.69478925231E+02  0.16690715572E+03  0.12509221944E+03 0.  0.
         23    2    1    2    0    0 -0.47983455918E+02  0.71275536997E+02  0.21415465798E+02  0.12703212627E+03  0.91081967009E+02 0.  0.
          5    1    3    3  502    0 -0.29286563246E+02 -0.60731190092E+02  0.90430490692E+01  0.68155919576E+02  0.41800000000E+01 0.  1.
         -5    1    3    3    0  502  0.77270019164E+02 -0.10544346905E+02  0.60435876162E+02  0.98751236148E+02  0.41800000000E+01 0.  1.
        -11    1    4    4    0    0 -0.50256598725E+01  0.79944833697E+02  0.50829236638E+01  0.80263751501E+02  0.00000000000E+00 0.  1.
         11    1    4    4    0    0 -0.42957796046E+02 -0.86692966997E+01  0.16332542134E+02  0.46768374773E+02  0.00000000000E+00 0. -1.
</event>
<event>
 8    1  0.6945825E-009  0.2219323E+03  0.7561462E-02  0.1132451E+00
          1   -1    0    0  501    0  0.00000000000E+00  0.00000000000E+00  0.72070386300E+03  0.72070386300E+03  0.00000000000E+00 0. -1.
         -1   -1    0    0    0  501 -0.00000000000E+00 -0.00000000000E+00 -0.10353383607E+03  0.10353383607E+03  0.00000000000E+00 0.  1.
         25    2    1    2    0    0 -0.17485376185E+03  0.12481809529E+03  0.51061317123E+03  0.56791396176E+03  0.12508821841E+03 0.  0.
         23    2    1    2    0    0  0.17485376185E+03 -0.12481809529E+03  0.10655685571E+03  0.25632373731E+03  0.90521267476E+02 0.  0.
          5    1    3    3  502    0 -0.15321457741E+03  0.11406354994E+03  0.29863212125E+03  0.35451913403E+03  0.41800000000E+01 0.  1.
         -5    1    3    3    0  502 -0.21639184441E+02  0.10754545350E+02  0.21198104998E+03  0.21339482773E+03  0.41800000000E+01 0.  1.
        -11    1    4    4    0    0  0.87928485118E+02 -0.10881179615E+03  0.39466349403E+02  0.14535824095E+03  0.00000000000E+00 0. -1.
         11    1    4    4    0    0  0.86925276734E+02 -0.16006299145E+02  0.67090506303E+02  0.11096549637E+03  0.00000000000E+00 0.  1.
</event>
<event>
 8    1  0.6945825E-009  0.1804255E+03  0.7561462E-02  0.1167392E+00
         -1   -1    0    0    0  501 -0.00000000000E+00  0.00000000000E+00  0.89117694230E+02  0.89117694230E+02  0.00000000000E+00 0.  1.
          1   -1    0    0  501    0  0.00000000000E+00 -0.00000000000E+00 -0.54386357732E+03  0.54386357732E+03  0.00000000000E+00 0. -1.
         25    2    1    2    0    0  0.14710685253E+02  0.16669323201E+03 -0.37068179322E+03  0.42550474801E+03  0.12508501465E+03 0.  0.
         23    2    1    2    0    0 -0.14710685253E+02 -0.16669323201E+03 -0.84064089866E+02  0.20747652354E+03  0.89312366202E+02 0.  0.
          5    1    3    3  502    0 -0.19966172667E+02  0.45152221692E+02 -0.21281817229E+02  0.53923643416E+02  0.41800000000E+01 0. -1.
         -5    1    3    3    0  502  0.34676857921E+02  0.12154101032E+03 -0.34939997599E+03  0.37158110459E+03  0.41800000000E+01 0. -1.
        -11    1    4    4    0    0  0.12792795673E+02 -0.15403953430E+03 -0.51285266946E+02  0.16285580234E+03  0.00000000000E+00 0.  1.
         11    1    4    4    0    0 -0.27503480927E+02 -0.12653697711E+02 -0.32778822920E+02  0.44620721205E+02  0.00000000000E+00 0. -1.
</event>
<event>
 8    1  0.6945825E-009  0.1056743E+03  0.7561462E-02  0.1268797E+00
         -2   -1    0    0    0  501 -0.00000000000E+00  0.00000000000E+00  0.90849132182E+01  0.90849132182E+01  0.00000000000E+00 0.  1.
          2   -1    0    0  501    0  0.00000000000E+00 -0.00000000000E+00 -0.13374850740E+04  0.13374850740E+04  0.00000000000E+00 0. -1.
         25    2    1    2    0    0  0.43532930063E+01 -0.19891482508E+02 -0.96874463860E+03  0.97699962524E+03  0.12508985037E+03 0.  0.
         23    2    1    2    0    0 -0.43532930063E+01  0.19891482508E+02 -0.35965552219E+03  0.36957036199E+03  0.82556257067E+02 0.  0.
          5    1    3    3  502    0 -0.38953332874E+02  0.37825750277E+02 -0.41580820749E+03  0.41935913885E+03  0.41800000000E+01 0. -1.
         -5    1    3    3    0  502  0.43306625881E+02 -0.57717232785E+02 -0.55293643111E+03  0.55764048639E+03  0.41800000000E+01 0. -1.
        -11    1    4    4    0    0  0.35169733770E+02  0.27147878391E+02 -0.20703654837E+03  0.21174997010E+03  0.00000000000E+00 0.  1.
         11    1    4    4    0    0 -0.39523026776E+02 -0.72563958828E+01 -0.15261897382E+03  0.15782039189E+03  0.00000000000E+00 0. -1.
</event>
<event>
 8    1  0.6945825E-009  0.1323301E+03  0.7561462E-02  0.1224039E+00
         -2   -1    0    0    0  501 -0.00000000000E+00  0.00000000000E+00  0.47933503805E+03  0.47933503805E+03  0.00000000000E+00 0. -1.
          2   -1    0    0  501    0  0.00000000000E+00 -0.00000000000E+00 -0.48330023622E+02  0.48330023622E+02  0.00000000000E+00 0.  1.
         25    2    1    2    0    0  0.66429057244E+02 -0.36043903956E+02  0.10942504013E+03  0.18257382539E+03  0.12508948657E+03 0.  0.
         23    2    1    2    0    0 -0.66429057244E+02  0.36043903956E+02  0.32157997429E+03  0.34509123628E+03  0.99811316164E+02 0.  0.
          5    1    3    3  502    0 -0.99085642390E+01 -0.61497257814E+02  0.29388837351E+02  0.69001945804E+02  0.41800000000E+01 0. -1.
         -5    1    3    3    0  502  0.76337621483E+02  0.25453353858E+02  0.80036202783E+02  0.11357187958E+03  0.41800000000E+01 0. -1.
        -11    1    4    4    0    0  0.73057940946E+01  0.46596479590E+02  0.86908704954E+02  0.98882402551E+02  0.00000000000E+00 0.  1.
         11    1    4    4    0    0 -0.73734851339E+02 -0.10552575633E+02  0.23467126934E+03  0.24620883373E+03  0.00000000000E+00 0. -1.
</event>
<event>
 8    1  0.6945825E-009  0.1300082E+03  0.7561462E-02  0.1227444E+00
         -1   -1    0    0    0  501 -0.00000000000E+00  0.00000000000E+00  0.43961379288E+03  0.43961379288E+03  0.00000000000E+00 0.  1.
          1   -1    0    0  501    0  0.00000000000E+00 -0.00000000000E+00 -0.55839977822E+02  0.55839977822E+02  0.00000000000E+00 0. -1.
         25    2    1    2    0    0  0.31065308280E+02 -0.10565864200E+03  0.15261640830E+03  0.22598186483E+03  0.12508890095E+03 0.  0.
         23    2    1    2    0    0 -0.31065308280E+02  0.10565864200E+03  0.23115740675E+03  0.26947190587E+03  0.83979517427E+02 0.  0.
          5    1    3    3  502    0  0.41714262387E+02 -0.34611439308E+02 -0.30879802545E+01  0.54452175709E+02  0.41800000000E+01 0. -1.
         -5    1    3    3    0  502 -0.10648954107E+02 -0.71047202695E+02  0.15570438855E+03  0.17152968912E+03  0.41800000000E+01 0. -1.
        -11    1    4    4    0    0 -0.28400116867E+01  0.10542506494E+03  0.14858754444E+03  0.18221078000E+03  0.00000000000E+00 0.  1.
         11    1    4    4    0    0 -0.28225296593E+02  0.23357706018E+00  0.82569862310E+02  0.87261125869E+02  0.00000000000E+00 0. -1.
</event>
<event>
 8    1  0.6945825E-009  0.2455794E+03  0.7561462E-02  0.1116131E+00
         -2   -1    0    0    0  501 -0.00000000000E+00  0.00000000000E+00  0.15880205208E+03  0.15880205208E+03  0.00000000000E+00 0.  1.
          2   -1    0    0  501    0  0.00000000000E+00 -0.00000000000E+00 -0.61194190806E+03  0.61194190806E+03  0.00000000000E+00 0. -1.
         25    2    1    2    0    0  0.11797010155E+03 -0.19028526448E+03  0.67945746324E+00  0.25646297020E+03  0.12508943474E+03 0.  0.
         23    2    1    2    0    0 -0.11797010155E+03  0.19028526448E+03 -0.45381931344E+03  0.51428098995E+03  0.91692642202E+02 0.  0.
          5    1    3    3  502    0  0.99556758237E+01 -0.11968022251E+03  0.30449627963E+02  0.12396420203E+03  0.41800000000E+01 0.  1.
         -5    1    3    3    0  502  0.10801442572E+03 -0.70605041967E+02 -0.29770170499E+02  0.13249876817E+03  0.41800000000E+01 0.  1.
        -11    1    4    4    0    0 -0.10683671446E+03  0.86399115904E+02 -0.26317835847E+03  0.29688674466E+03  0.00000000000E+00 0. -1.
         11    1    4    4    0    0 -0.11133387083E+02  0.10388614857E+03 -0.19064095497E+03  0.21739424529E+03  0.00000000000E+00 0.  1.
</event>
<event>
 8    1  0.6945825E-009  0.9681345E+02  0.7561462E-02  0.1287143E+00
          1   -1    0    0  501    0  0.00000000000E+00  0.00000000000E+00  0.88142108742E+02  0.88142108742E+02  0.00000000000E+00 0.  1.
         -1   -1    0    0    0  501 -0.00000000000E+00 -0.00000000000E+00 -0.25119899724E+03  0.25119899724E+03  0.00000000000E+00 0. -1.
         25    2    1    2    0    0  0.29011878115E+01  0.81082577637E+02 -0.16945285688E+02  0.15005517623E+03  0.12508641780E+03 0.  0.
         23    2    1    2    0    0 -0.29011878115E+01 -0.81082577637E+02 -0.14611160282E+03  0.18928592976E+03  0.88869350403E+02 0.  0.
          5    1    3    3  502    0  0.32422598266E+01  0.30608478675E+02  0.54350442205E+02  0.62600592517E+02  0.41800000000E+01 0. -1.
         -5    1    3    3    0  502 -0.34107201502E+00  0.50474098962E+02 -0.71295727892E+02  0.87454583710E+02  0.41800000000E+01 0. -1.
        -11    1    4    4    0    0  0.36615900526E+02 -0.48052783914E+02 -0.11276867292E+03  0.12793188737E+03  0.00000000000E+00 0.  1.
         11    1    4    4    0    0 -0.39517088337E+02 -0.33029793723E+02 -0.33342929897E+02  0.61354042395E+02  0.00000000000E+00 0. -1.
</event>
<event>
 8    1  0.6945825E-009  0.1417504E+03  0.7561462E-02  0.1210993E+00
         -1   -1    0    0    0  501 -0.00000000000E+00  0.00000000000E+00  0.21609193110E+03  0.21609193110E+03  0.00000000000E+00 0.  1.
          1   -1    0    0  501    0  0.00000000000E+00 -0.00000000000E+00 -0.12789993807E+03  0.12789993807E+03  0.00000000000E+00 0. -1.
         25    2    1    2    0    0 -0.20921691220E+01  0.12259089931E+03  0.77632574348E+02  0.19159087663E+03  0.12508933465E+03 0.  0.
         23    2    1    2    0    0  0.20921691220E+01 -0.12259089931E+03  0.10559418682E+02  0.15240099254E+03  0.89898027996E+02 0.  0.
          5    1    3    3  502    0  0.40921723739E+02  0.10164493497E+03  0.12062166884E+02  0.11031431706E+03  0.41800000000E+01 0.  1.
         -5    1    3    3    0  502 -0.43013892861E+02  0.20945964342E+02  0.65570407465E+02  0.81276559575E+02  0.41800000000E+01 0.  1.
        -11    1    4    4    0    0  0.15210624837E+02 -0.64542370306E+02  0.48205822881E+02  0.81980985797E+02  0.00000000000E+00 0.  1.
         11    1    4    4    0    0 -0.13118455715E+02 -0.58048529003E+02 -0.37646404199E+02  0.70420006738E+02  0.00000000000E+00 0. -1.
</event>
<event>
 8    1  0.6945825E-009  0.9078796E+02  0.7561462E-02  0.1300955E+00
          2   -1    0    0  501    0  0.00000000000E+00  0.00000000000E+00  0.72752740492E+03  0.72752740492E+03  0.00000000000E+00 0. -1.
         -2   -1    0    0    0  501 -0.00000000000E+00 -0.00000000000E+00 -0.21564096132E+02  0.21564096132E+02  0.00000000000E+00 0.  1.
         25    2    1    2    0    0  0.44669112601E+02  0.48077236474E+01  0.53315609736E+03  0.54947391385E+03  0.12509082311E+03 0.  0.
         23    2    1    2    0    0 -0.44669112601E+02 -0.48077236474E+01  0.17280721143E+03  0.19961758720E+03  0.89254719596E+02 0.  0.
          5    1    3    3  502    0 -0.16058558944E+02  0.16985212218E+02  0.41780882492E+03  0.41848304784E+03  0.41800000000E+01 0. -1.
         -5    1    3    3    0  502  0.60727671545E+02 -0.12177488571E+02  0.11534727243E+03  0.13099086601E+03  0.41800000000E+01 0. -1.
        -11    1    4    4    0    0 -0.66609865922E+02  0.12543299181E+02  0.93214316350E+02  0.11525240720E+03  0.00000000000E+00 0.  1.
         11    1    4    4    0    0  0.21940753321E+02 -0.17351022828E+02  0.79592895082E+02  0.84365180003E+02  0.00000000000E+00 0. -1.
</event>
<event>
 8    1  0.6945825E-009  0.1303537E+03  0.7561462E-02  0.1226932E+00
         -1   -1    0    0    0  501 -0.00000000000E+00  0.00000000000E+00  0.35663522198E+03  0.35663522198E+03  0.00000000000E+00 0. -1.
          1   -1    0    0  501    0  0.00000000000E+00 -0.00000000000E+00 -0.49703607348E+02  0.49703607348E+02  0.00000000000E+00 0.  1.
         25    2    1    2    0    0  0.45575180440E+02  0.60876244516E+02  0.18642001583E+03  0.23702845369E+03  0.12508817425E+03 0.  0.
         23    2    1    2    0    0 -0.45575180440E+02 -0.60876244516E+02  0.12051159880E+03  0.16931037563E+03  0.91432727371E+02 0.  0.
          5    1    3    3  502    0  0.84680380759E+01  0.92515603253E+02  0.92750901038E+02  0.13134323948E+03  0.41800000000E+01 0.  1.
         -5    1    3    3    0  502  0.37107142364E+02 -0.31639358737E+02  0.93669114795E+02  0.10568521421E+03  0.41800000000E+01 0.  1.
        -11    1    4    4    0    0 -0.52703878184E+02 -0.81438425719E+02  0.10169190470E+03  0.14053881827E+03  0.00000000000E+00 0. -1.
         11    1    4    4    0    0  0.71286977436E+01  0.20562181203E+02  0.18819694098E+02  0.28771557366E+02  0.00000000000E+00 0.  1.
</event>
<event>
 8    1  0.6945825E-009  0.1147604E+03  0.7561462E-02  0.1252000E+00
          4   -1    0    0  501    0  0.00000000000E+00  0.00000000000E+00  0.65550099144E+02  0.65550099144E+02  0.00000000000E+00 0. -1.
         -4   -1    0    0    0  501 -0.00000000000E+00 -0.00000000000E+00 -0.38173575751E+03  0.38173575751E+03  0.00000000000E+00 0.  1.
         25    2    1    2    0    0 -0.51418876739E+02  0.69521180516E+02 -0.66274493896E+02  0.16588147368E+03  0.12508900569E+03 0.  0.
         23    2    1    2    0    0  0.51418876739E+02 -0.69521180516E+02 -0.24991116447E+03  0.28140438297E+03  0.96206762786E+02 0.  0.
          5    1    3    3  502    0 -0.82553908508E+02  0.61632397711E+02 -0.80198830521E+02  0.13062551464E+03  0.41800000000E+01 0.  1.
         -5    1    3    3    0  502  0.31135031770E+02  0.78887828054E+01  0.13924336625E+02  0.35255959041E+02  0.41800000000E+01 0.  1.
        -11    1    4    4    0    0  0.47982528356E+02 -0.35146956342E+02 -0.23728164267E+03  0.24462258586E+03  0.00000000000E+00 0.  1.
         11    1    4    4    0    0  0.34363483826E+01 -0.34374224174E+02 -0.12629521801E+02  0.36781797111E+02  0.00000000000E+00 0. -1.
</event>
<event>
 8    1  0.6945825E-009  0.1634996E+03  0.7561462E-02  0.1184801E+00
         -2   -1    0    0    0  501 -0.00000000000E+00  0.00000000000E+00  0.26118714598E+03  0.26118714598E+03  0.00000000000E+00 0.  1.
          2   -1    0    0  501    0  0.00000000000E+00 -0.00000000000E+00 -0.11258355295E+03  0.11258355295E+03  0.00000000000E+00 0. -1.
         25    2    1    2    0    0  0.89525702836E+01  0.12707301413E+03  0.11405504682E+03  0.21185658166E+03  0.12508780138E+03 0.  0.
         23    2    1    2    0    0 -0.89525702836E+01 -0.12707301413E+03  0.34548546209E+02  0.16191411728E+03  0.93781020971E+02 0.  0.
          5    1    3    3  502    0  0.15388357343E+02 -0.20193982421E+02  0.50085112261E+00  0.25735611894E+02  0.41800000000E+01 0. -1.
         -5    1    3    3    0  502 -0.64357870589E+01  0.14726699655E+03  0.11355419570E+03  0.18612096977E+03  0.41800000000E+01 0. -1.
        -11    1    4    4    0    0  0.36910142345E+02 -0.34653509971E+02 -0.61566071463E+01  0.51001256580E+02  0.00000000000E+00 0. -1.
         11    1    4    4    0    0 -0.45862712629E+02 -0.92419504154E+02  0.40705153355E+02  0.11091286069E+03  0.00000000000E+00 0.  1.
</event>
<event>
 8    1  0.6945825E-009  0.2040770E+03  0.7561462E-02  0.1146344E+00
         -2   -1    0    0    0  501 -0.00000000000E+00  0.00000000000E+00  0.52973806905E+02  0.52973806905E+02  0.00000000000E+00 0.  1.
          2   -1    0    0  501    0  0.00000000000E+00 -0.00000000000E+00 -0.12071114857E+04  0.12071114857E+04  0.00000000000E+00 0. -1.
         25    2    1    2    0    0  0.33735890688E+02  0.18521733790E+03 -0.90975478863E+03  0.93741439627E+03  0.12509357426E+03 0.  0.
         23    2    1    2    0    0 -0.33735890688E+02 -0.18521733790E+03 -0.24438289018E+03  0.32267089635E+03  0.94604110686E+02 0.  0.
          5    1    3    3  502    0 -0.12236881707E+02  0.22933840601E+01 -0.27259121671E+03  0.27290739219E+03  0.41800000000E+01 0. -1.
         -5    1    3    3    0  502  0.45972772395E+02  0.18292395384E+03 -0.63716357192E+03  0.66450700408E+03  0.41800000000E+01 0. -1.
        -11    1    4    4    0    0 -0.10324854515E+01 -0.17049436202E+03 -0.22370931123E+03  0.28127433128E+03  0.00000000000E+00 0. -1.
         11    1    4    4    0    0 -0.32703405237E+02 -0.14722975887E+02 -0.20673578947E+02  0.41396565069E+02  0.00000000000E+00 0.  1.
</event>
<event>
 8    1  0.6945825E-009  0.1023975E+03  0.7561462E-02  0.1275334E+00
          2   -1    0    0  501    0  0.00000000000E+00  0.00000000000E+00  0.10247137867E+04  0.10247137867E+04  0.00000000000E+00 0. -1.
         -2   -1    0    0    0  501 -0.00000000000E+00 -0.00000000000E+00 -0.13658552203E+02  0.13658552203E+02  0.00000000000E+00 0.  1.
         25    2    1    2    0    0 -0.36270310741E+02 -0.86188468747E+01  0.69932216769E+03  0.71139899733E+03  0.12508884526E+03 0.  0.
         23    2    1    2    0    0  0.36270310741E+02  0.86188468747E+01  0.31173306676E+03  0.32697334154E+03  0.91346818216E+02 0.  0.
          5    1    3    3  502    0 -0.12689717507E+02 -0.59779369009E+02  0.20775718990E+03  0.21659899410E+03  0.41800000000E+01 0. -1.
         -5    1    3    3    0  502 -0.23580593234E+02  0.51160522135E+02  0.49156497779E+03  0.49480000322E+03  0.41800000000E+01 0. -1.
        -11    1    4    4    0    0  0.30920351039E+02 -0.32923867541E+02  0.23733699214E+03  0.24159655834E+03  0.00000000000E+00 0. -1.
         11    1    4    4    0    0  0.53499597023E+01  0.41542714416E+02  0.74396074623E+02  0.85376783198E+02  0.00000000000E+00 0.  1.
</event>
<event>
 8    1  0.6945825E-009  0.1598587E+03  0.7561462E-02  0.1188856E+00
          2   -1    0    0  501    0  0.00000000000E+00  0.00000000000E+00  0.59015045688E+03  0.59015045688E+03  0.00000000000E+00 0.  1.
         -2   -1    0    0    0  501 -0.00000000000E+00 -0.00000000000E+00 -0.46495603158E+02  0.46495603158E+02  0.00000000000E+00 0. -1.
         25    2    1    2    0    0  0.10442385740E+03 -0.65206754399E+02  0.22592351885E+03  0.28608602013E+03  0.12509001451E+03 0.  0.
         23    2    1    2    0    0 -0.10442385740E+03  0.65206754399E+02  0.31773133487E+03  0.35056003991E+03  0.82358227322E+02 0.  0.
          5    1    3    3  502    0 -0.11970172171E+02 -0.56150667462E+02  0.59846708378E+02  0.83037843072E+02  0.41800000000E+01 0.  1.
         -5    1    3    3    0  502  0.11639402957E+03 -0.90560869366E+01  0.16607681047E+03  0.20304817705E+03  0.41800000000E+01 0.  1.
        -11    1    4    4    0    0 -0.91970251338E+02  0.14484641305E+02  0.23440551168E+03  0.25221870642E+03  0.00000000000E+00 0.  1.
         11    1    4    4    0    0 -0.12453606061E+02  0.50722113094E+02  0.83325823194E+02  0.98341333485E+02  0.00000000000E+00 0. -1.
</event>
<event>
 8    1  0.6945825E-009  0.1049100E+03  0.7561462E-02  0.1270297E+00
          1   -1    0    0  501    0  0.00000000000E+00  0.00000000000E+00  0.51633067843E+03  0.51633067843E+03  0.00000000000E+00 0. -1.
         -1   -1    0    0    0  501 -0.00000000000E+00 -0.00000000000E+00 -0.22830650954E+02  0.22830650954E+02  0.00000000000E+00 0.  1.
         25    2    1    2    0    0  0.81687920692E+01  0.89848559333E+01  0.27025604259E+03  0.29804944933E+03  0.12509072264E+03 0.  0.
         23    2    1    2    0    0 -0.81687920692E+01 -0.89848559333E+01  0.22324398489E+03  0.24111188006E+03  0.90275163334E+02 0.  0.
          5    1    3    3  502    0  0.54011263803E+02  0.42401595300E+02  0.14711959522E+03  0.16240923495E+03  0.41800000000E+01 0. -1.
         -5    1    3    3    0  502 -0.45842471734E+02 -0.33416739367E+02  0.12313644737E+03  0.13564021437E+03  0.41800000000E+01 0. -1.
        -11    1    4    4    0    0 -0.42281599863E+02  0.12176214020E+02  0.16211766359E+03  0.16798253100E+03  0.00000000000E+00 0. -1.
         11    1    4    4    0    0  0.34112807794E+02 -0.21161069953E+02  0.61126321302E+02  0.73129349054E+02  0.00000000000E+00 0.  1.
</event>
<event>
 8    1  0.6945825E-009  0.1080046E+03  0.7561462E-02  0.1264310E+00
         -4   -1    0    0    0  501 -0.00000000000E+00  0.00000000000E+00  0.92024873026E+02  0.92024873026E+02  0.00000000000E+00 0. -1.
          4   -1    0    0  501    0  0.00000000000E+00 -0.00000000000E+00 -0.22442105397E+03  0.22442105397E+03  0.00000000000E+00 0.  1.
         25    2    1    2    0    0 -0.62935992731E+02  0.32637825024E+02 -0.14246273404E+03  0.20240956639E+03  0.12509130733E+03 0.  0.
         23    2    1    2    0    0  0.62935992731E+02 -0.32637825024E+02  0.10066553102E+02  0.11403636061E+03  0.88751277433E+02 0.  0.
          5    1    3    3  502    0 -0.54129753983E+02 -0.41790219324E+02 -0.62545777685E+02  0.92767986955E+02  0.41800000000E+01 0.  1.
         -5    1    3    3    0  502 -0.88062387474E+01  0.74428044348E+02 -0.79916956359E+02  0.10964157943E+03  0.41800000000E+01 0.  1.
        -11    1    4    4    0    0  0.38336029095E+02 -0.11567207999E+02  0.49071499030E+02  0.63336114853E+02  0.00000000000E+00 0. -1.
         11    1    4    4    0    0  0.24599963636E+02 -0.21070617025E+02 -0.39004945928E+02  0.50700245755E+02  0.00000000000E+00 0.  1.
</event>
<event>
 8    1  0.6945825E-009  0.1300263E+03  0.7561462E-02  0.1227417E+00
          1   -1    0    0  501    0  0.00000000000E+00  0.00000000000E+00  0.35016865689E+03  0.35016865689E+03  0.00000000000E+00 0. -1.
         -1   -1    0    0    0  501 -0.00000000000E+00 -0.00000000000E+00 -0.75694905383E+02  0.75694905383E+02  0.00000000000E+00 0.  1.
         25    2    1    2    0    0 -0.10563733694E+03 -0.10141540964E+01  0.22237710703E+03  0.27614948383E+03  0.12508670683E+03 0.  0.
         23    2    1    2    0    0  0.10563733694E+03  0.10141540964E+01  0.52096644474E+02  0.14971407844E+03  0.92411955146E+02 0.  0.
          5    1    3    3  502    0 -0.34109678923E+02  0.47935228572E+02  0.15636971741E+03  0.16712335940E+03  0.41800000000E+01 0. -1.
         -5    1    3    3    0  502 -0.71527658012E+02 -0.48949382668E+02  0.66007389627E+02  0.10902612444E+03  0.41800000000E+01 0. -1.
        -11    1    4    4    0    0  0.65687865729E+02 -0.20643736419E+02 -0.13251413390E+02  0.70118895558E+02  0.00000000000E+00 0.  1.
         11    1    4    4    0    0  0.39949471206E+02  0.21657890516E+02  0.65348057864E+02  0.79595182880E+02  0.00000000000E+00 0. -1.
</event>
<event>
 8    1  0.6945825E-009  0.1225536E+03  0.7561462E-02  0.1238943E+00
          2   -1    0    0  501    0  0.00000000000E+00  0.00000000000E+00  0.26621258466E+03  0.26621258466E+03  0.00000000000E+00 0. -1.
         -2   -1    0    0    0  501 -0.00000000000E+00 -0.00000000000E+00 -0.71372212561E+02  0.71372212561E+02  0.00000000000E+00 0.  1.
         25    2    1    2    0    0 -0.60964175347E+02 -0.56050635135E+02  0.85903764615E+02  0.17287864805E+03  0.12509702556E+03 0.  0.
         23    2    1    2    0    0  0.60964175347E+02  0.56050635135E+02  0.10893660748E+03  0.16470614917E+03  0.91665842866E+02 0.  0.
          5    1    3    3  502    0 -0.89185423138E+02 -0.42195158712E+01  0.39661777511E+02  0.97787386762E+02  0.41800000000E+01 0.  1.
         -5    1    3    3    0  502  0.28221247791E+02 -0.51831119264E+02  0.46241987103E+02  0.75091261291E+02  0.41800000000E+01 0.  1.
        -11    1    4    4    0    0  0.22253606328E+02 -0.63373889956E+01 -0.97793589350E+01  0.25120138437E+02  0.00000000000E+00 0.  1.
         11    1    4    4    0    0  0.38710569019E+02  0.62388024131E+02  0.11871596642E+03  0.13958601073E+03  0.00000000000E+00 0. -1.
</event>
<event>
 8    1  0.6945825E-009  0.1299308E+03  0.7561462E-02  0.1227558E+00
         -1   -1    0    0    0  501 -0.00000000000E+00  0.00000000000E+00  0.58234877175E+02  0.58234877175E+02  0.00000000000E+00 0.  1.
          1   -1    0    0  501    0  0.00000000000E+00 -0.00000000000E+00 -0.36467731042E+03  0.36467731042E+03  0.00000000000E+00 0. -1.
         25    2    1    2    0    0  0.84401866477E+02  0.31216489951E+02 -0.11373530293E+03  0.19152248818E+03  0.12508796919E+03 0.  0.
         23    2    1    2    0    0 -0.84401866477E+02 -0.31216489951E+02 -0.19270713031E+03  0.23138969942E+03  0.91142803405E+02 0.  0.
          5    1    3    3  502    0  0.10931587902E+03  0.28760488195E+02 -0.12048286003E+03  0.16525955055E+03  0.41800000000E+01 0.  1.
         -5    1    3    3    0  502 -0.24914012545E+02  0.24560017558E+01  0.67475571040E+01  0.26262937623E+02  0.41800000000E+01 0.  1.
        -11    1    4    4    0    0 -0.50839822429E+02  0.24412957034E+02 -0.53355529706E+02  0.77636927850E+02  0.00000000000E+00 0. -1.
         11    1    4    4    0    0 -0.33562044048E+02 -0.55629446985E+02 -0.13935160061E+03  0.15375277157E+03  0.00000000000E+00 0.  1.
</event>
<event>
 8    1  0.6945825E-009  0.7745525E+02  0.7561462E-02  0.1336432E+00
         -2   -1    0    0    0  501 -0.00000000000E+00  0.00000000000E+00  0.98890795266E+02  0.98890795266E+02  0.00000000000E+00 0.  1.
          2   -1    0    0  501    0  0.00000000000E+00 -0.00000000000E+00 -0.12357290111E+03  0.12357290111E+03  0.00000000000E+00 0. -1.
         25    2    1    2    0    0 -0.13797037031E+01  0.22583984671E+02 -0.19312918895E+02  0.12857730431E+03  0.12508874611E+03 0.  0.
         23    2    1    2    0    0  0.13797037031E+01 -0.22583984671E+02 -0.53691869519E+01  0.93886392065E+02  0.90960906441E+02 0.  0.
          5    1    3    3  502    0  0.26905045599E+02  0.21854973598E+02 -0.65515792579E+02  0.74238216754E+02  0.41800000000E+01 0.  1.
         -5    1    3    3    0  502 -0.28284749302E+02  0.72901107214E+00  0.46202873684E+02  0.54339087560E+02  0.41800000000E+01 0.  1.
        -11    1    4    4    0    0  0.44489484171E+02 -0.18181319796E+02 -0.13221720402E+02  0.49846649654E+02  0.00000000000E+00 0. -1.
         11    1    4    4    0    0 -0.43109780468E+02 -0.44026648743E+01  0.78525334506E+01  0.44039742411E+02  0.00000000000E+00 0.  1.
</event>
<event>
 8    1  0.6945825E-009  0.1294935E+03  0.7561462E-02  0.1228209E+00
         -1   -1    0    0    0  501 -0.00000000000E+00  0.00000000000E+00  0.51315160724E+02  0.51315160724E+02  0.00000000000E+00 0.  1.
          1   -1    0    0  501    0  0.00000000000E+00 -0.00000000000E+00 -0.38418232017E+03  0.38418232017E+03  0.00000000000E+00 0. -1.
         25    2    1    2    0    0  0.68735481908E+02 -0.49638712247E+02 -0.14177817469E+03  0.20721228276E+03  0.12508921249E+03 0.  0.
         23    2    1    2    0    0 -0.68735481908E+02  0.49638712247E+02 -0.19108898475E+03  0.22828519813E+03  0.91709123675E+02 0.  0.
          5    1    3    3  502    0 -0.90746584331E+01 -0.65403512926E+02 -0.92328780460E+02  0.11358716930E+03  0.41800000000E+01 0.  1.
         -5    1    3    3    0  502  0.77810140341E+02  0.15764800679E+02 -0.49449394228E+02  0.93625113458E+02  0.41800000000E+01 0.  1.
        -11    1    4    4    0    0 -0.31667608266E+02 -0.17830522348E+02 -0.11271061468E+03  0.11842486057E+03  0.00000000000E+00 0. -1.
         11    1    4    4    0    0 -0.37067873643E+02  0.67469234594E+02 -0.78378370079E+02  0.10986033756E+03  0.00000000000E+00 0.  1.
</event>
<event>
 8    1  0.6945825E-009  0.1104534E+03  0.7561462E-02  0.1259733E+00
          1   -1    0    0  501    0  0.00000000000E+00  0.00000000000E+00  0.81001741023E+03  0.81001741023E+03  0.00000000000E+00 0. -1.
         -1   -1    0    0    0  501 -0.00000000000E+00 -0.00000000000E+00 -0.17097810756E+02  0.17097810756E+02  0.00000000000E+00 0.  1.
         25    2    1    2    0    0 -0.16432243673E+02 -0.28030429810E+02  0.41997830820E+03  0.43941517047E+03  0.12509272185E+03 0.  0.
         23    2    1    2    0    0  0.16432243673E+02  0.28030429810E+02  0.37294129128E+03  0.38770005051E+03  0.10084839512E+03 0.  0.
          5    1    3    3  502    0  0.25705283283E+02 -0.57672865870E+02  0.32670788029E+03  0.33277985590E+03  0.41800000000E+01 0. -1.
         -5    1    3    3    0  502 -0.42137526956E+02  0.29642436059E+02  0.93270427904E+02  0.10663531458E+03  0.41800000000E+01 0. -1.
        -11    1    4    4    0    0  0.49080288663E+02 -0.15549900889E+02  0.18457223844E+03  0.19161833251E+03  0.00000000000E+00 0.  1.
         11    1    4    4    0    0 -0.32648044991E+02  0.43580330700E+02  0.18836905284E+03  0.19608171800E+03  0.00000000000E+00 0. -1.
</event>
<event>
 8    1  0.6945825E-009  0.9266223E+02  0.7561462E-02  0.1296530E+00
         -1   -1    0    0    0  501 -0.00000000000E+00  0.00000000000E+00  0.25108894671E+03  0.25108894671E+03  0.00000000000E+00 0.  1.
          1   -1    0    0  501    0  0.00000000000E+00 -0.00000000000E+00 -0.65147281148E+02  0.65147281148E+02  0.00000000000E+00 0. -1.
         25    2    1    2    0    0 -0.50225923248E+02 -0.39378194111E+02  0.59532978622E+02  0.15253137509E+03  0.12509340233E+03 0.  0.
         23    2    1    2    0    0  0.50225923248E+02  0.39378194111E+02  0.12640868694E+03  0.16370485277E+03  0.82139132863E+02 0.  0.
          5    1    3    3  502    0 -0.16531442827E+02  0.12341822490E+02 -0.34236936121E+02  0.40190165206E+02  0.41800000000E+01 0.  1.
         -5    1    3    3    0  502 -0.33694480420E+02 -0.51720016601E+02  0.93769914743E+02  0.11234120989E+03  0.41800000000E+01 0.  1.
        -11    1    4    4    0    0  0.30594081466E+02  0.63987657549E+02  0.10008892430E+03  0.12267114945E+03  0.00000000000E+00 0.  1.
         11    1    4    4    0    0  0.19631841781E+02 -0.24609463439E+02  0.26319762640E+02  0.41033703317E+02  0.00000000000E+00 0. -1.
</event>
<event>
 8    1  0.6945825E-009  0.1499269E+03  0.7561462E-02  0.1200563E+00
         -2   -1    0    0    0  501 -0.00000000000E+00  0.00000000000E+00  0.11330129018E+03  0.11330129018E+03  0.00000000000E+00 0.  1.
          2   -1    0    0  501    0  0.00000000000E+00 -0.00000000000E+00 -0.29369618213E+03  0.29369618213E+03  0.00000000000E+00 0. -1.
         25    2    1    2    0    0  0.42926004349E+02 -0.12767597024E+03 -0.15853681491E+03  0.24274950110E+03  0.12509837479E+03 0.  0.
         23    2    1    2    0    0 -0.42926004349E+02  0.12767597024E+03 -0.21858077044E+02  0.16424797121E+03  0.91410203406E+02 0.  0.
          5    1    3    3  502    0 -0.15988085064E+02 -0.87950575550E+02 -0.27485062643E+02  0.93615296144E+02  0.41800000000E+01 0. -1.
         -5    1    3    3    0  502  0.58914089413E+02 -0.39725394694E+02 -0.13105175227E+03  0.14913420496E+03  0.41800000000E+01 0. -1.
        -11    1    4    4    0    0 -0.42579686089E+02  0.73017538595E+02 -0.54510411039E+02  0.10057820600E+03  0.00000000000E+00 0. -1.
         11    1    4    4    0    0 -0.34631825946E+00  0.54658431649E+02  0.32652333995E+02  0.63669765211E+02  0.00000000000E+00 0.  1.
</event>
<event>
 8    1  0.6945825E-009  0.1242290E+03  0.7561462E-02  0.1236279E+00
         -1   -1    0    0    0  501 -0.00000000000E+00  0.00000000000E+00  0.86202491745E+02  0.86202491745E+02  0.00000000000E+00 0.  1.
          1   -1    0    0  501    0  0.00000000000E+00 -0.00000000000E+00 -0.24756985360E+03  0.24756985360E+03  0.00000000000E+00 0. -1.
         25    2    1    2    0    0 -0.92799285339E+02 -0.51084904350E+01 -0.53779488671E+02  0.16485622722E+03  0.12509012039E+03 0.  0.
         23    2    1    2    0    0  0.92799285339E+02  0.51084904350E+01 -0.10758787319E+03  0.16891611813E+03  0.91212392100E+02 0.  0.
          5    1    3    3  502    0 -0.21835194571E+02 -0.45035222901E+02  0.20798700466E+02  0.54359961045E+02  0.41800000000E+01 0. -1.
         -5    1    3    3    0  502 -0.70964090768E+02  0.39926732466E+02 -0.74578189137E+02  0.11049626618E+03  0.41800000000E+01 0. -1.
        -11    1    4    4    0    0  0.13579128812E+02  0.30603100650E+02 -0.74808479978E+00  0.33488836044E+02  0.00000000000E+00 0.  1.
         11    1    4    4    0    0  0.79220156527E+02 -0.25494610215E+02 -0.10683978839E+03  0.13542728208E+03  0.00000000000E+00 0. -1.
</event>
<event>
 8    1  0.6945825E-009  0.1116486E+03  0.7561462E-02  0.1257547E+00
          1   -1    0    0  501    0  0.00000000000E+00  0.00000000000E+00  0.77353278659E+03  0.77353278659E+03  0.00000000000E+00 0. -1.
         -1   -1    0    0    0  501 -0.00000000000E+00 -0.00000000000E+00 -0.20799850474E+02  0.20799850474E+02  0.00000000000E+00 0.  1.
         25    2    1    2    0    0  0.33806786538E+02 -0.55399318876E+02  0.40743645768E+03  0.43111919919E+03  0.12508922220E+03 0.  0.
         23    2    1    2    0    0 -0.33806786538E+02  0.55399318876E+02  0.34529647843E+03  0.36321343788E+03  0.92099729036E+02 0.  0.
          5    1    3    3  502    0 -0.40161138942E+02 -0.48824468780E+02  0.23360102521E+03  0.24204061066E+03  0.41800000000E+01 0.  1.
         -5    1    3    3    0  502  0.73967925479E+02 -0.65748500963E+01  0.17383543248E+03  0.18907858853E+03  0.41800000000E+01 0.  1.
        -11    1    4    4    0    0 -0.38398280308E+02  0.64673507771E+02  0.34474049552E+03  0.35284996782E+03  0.00000000000E+00 0. -1.
         11    1    4    4    0    0  0.45914937709E+01 -0.92741888950E+01  0.55598291543E+00  0.10363470061E+02  0.00000000000E+00 0.  1.
</event>
<event>
 8    1  0.6945825E-009  0.1078688E+03  0.7561462E-02  0.1264568E+00
         -2   -1    0    0    0  501 -0.00000000000E+00  0.00000000000E+00  0.30896689942E+03  0.30896689942E+03  0.00000000000E+00 0.  1.
          2   -1    0    0  501    0  0.00000000000E+00 -0.00000000000E+00 -0.84612972344E+02  0.84612972344E+02  0.00000000000E+00 0. -1.
         25    2    1    2    0    0 -0.86479852082E+02  0.21867308954E+02  0.22477498802E+02  0.15527334063E+03  0.12509048062E+03 0.  0.
         23    2    1    2    0    0  0.86479852082E+02 -0.21867308954E+02  0.20187642827E+03  0.23830653113E+03  0.89883071104E+02 0.  0.
          5    1    3    3  502    0 -0.22815224826E+02  0.11778445730E+02  0.70263391568E+02  0.74924514429E+02  0.41800000000E+01 0. -1.
         -5    1    3    3    0  502 -0.63664627255E+02  0.10088863224E+02 -0.47785892766E+02  0.80348826203E+02  0.41800000000E+01 0. -1.
        -11    1    4    4    0    0  0.11696660586E+02  0.31272472782E+02  0.38728880498E+02  0.51134192156E+02  0.00000000000E+00 0. -1.
         11    1    4    4    0    0  0.74783191495E+02 -0.53139781735E+02  0.16314754777E+03  0.18717233897E+03  0.00000000000E+00 0.  1.
</event>
<event>
 8    1  0.6945825E-009  0.9614401E+02  0.7561462E-02  0.1288620E+00
          2   -1    0    0  501    0  0.00000000000E+00  0.00000000000E+00  0.87114594345E+02  0.87114594345E+02  0.00000000000E+00 0.  1.
         -2   -1    0    0    0  501 -0.00000000000E+00 -0.00000000000E+00 -0.22032766748E+03  0.22032766748E+03  0.00000000000E+00 0. -1.
         25    2    1    2    0    0 -0.32516259829E+02  0.41115237496E+02 -0.15155759423E+03  0.20338741511E+03  0.12509582866E+03 0.  0.
         23    2    1    2    0    0  0.32516259829E+02 -0.41115237496E+02  0.18344521099E+02  0.10405484672E+03  0.87994998512E+02 0.  0.
          5    1    3    3  502    0 -0.80099840226E+02  0.34291787513E+02 -0.92936807747E+02  0.12746228356E+03  0.41800000000E+01 0. -1.
         -5    1    3    3    0  502  0.47583580396E+02  0.68234499832E+01 -0.58620786487E+02  0.75925131553E+02  0.41800000000E+01 0. -1.
        -11    1    4    4    0    0  0.31248302217E+01 -0.20899820865E+02 -0.34404466946E+02  0.40376161556E+02  0.00000000000E+00 0. -1.
         11    1    4    4    0    0  0.29391429608E+02 -0.20215416631E+02  0.52748988045E+02  0.63678685160E+02  0.00000000000E+00 0.  1.
</event>
<event>
 8    1  0.6945825E-009  0.1108010E+03  0.7561462E-02  0.1259094E+00
          2   -1    0    0  501    0  0.00000000000E+00  0.00000000000E+00  0.11218158073E+03  0.11218158073E+03  0.00000000000E+00 0. -1.
         -2   -1    0    0    0  501 -0.00000000000E+00 -0.00000000000E+00 -0.18988306710E+03  0.18988306710E+03  0.00000000000E+00 0.  1.
         25    2    1    2    0    0 -0.49035949031E+02  0.14889929402E+00 -0.13030832616E+03  0.18717067411E+03  0.12509218565E+03 0.  0.
         23    2    1    2    0    0  0.49035949031E+02 -0.14889929402E+00  0.52606839785E+02  0.11489397373E+03  0.89602450512E+02 0.  0.
          5    1    3    3  502    0  0.20601121459E+02  0.37118002397E+02 -0.10911519100E+02  0.44030511653E+02  0.41800000000E+01 0.  1.
         -5    1    3    3    0  502 -0.69637070490E+02 -0.36969103103E+02 -0.11939680706E+03  0.14314016245E+03  0.41800000000E+01 0.  1.
        -11    1    4    4    0    0  0.74513133485E+02  0.16649722300E+00  0.28378628358E+02  0.79734442562E+02  0.00000000000E+00 0.  1.
         11    1    4    4    0    0 -0.25477184454E+02 -0.31539651702E+00  0.24228211428E+02  0.35159531164E+02  0.00000000000E+00 0. -1.
</event>
<event>
 8    1  0.6945825E-009  0.9316353E+02  0.7561462E-02  0.1295367E+00
         -2   -1    0    0    0  501 -0.00000000000E+00  0.00000000000E+00  0.24312365873E+02  0.24312365873E+02  0.00000000000E+00 0.  1.
          2   -1    0    0  501    0  0.00000000000E+00 -0.00000000000E+00 -0.64713387775E+03  0.64713387775E+03  0.00000000000E+00 0. -1.
         25    2    1    2    0    0  0.22158182097E+02 -0.29295311774E+02 -0.46428312217E+03  0.48224207603E+03  0.12509757009E+03 0.  0.
         23    2    1    2    0    0 -0.22158182097E+02  0.29295311774E+02 -0.15853838971E+03  0.18920416759E+03  0.96512153096E+02 0.  0.
          5    1    3    3  502    0  0.18770365979E+01  0.37770700197E+02 -0.54355148273E+02  0.66348350420E+02  0.41800000000E+01 0. -1.
         -5    1    3    3    0  502  0.20281145499E+02 -0.67066011970E+02 -0.40992797389E+03  0.41589372561E+03  0.41800000000E+01 0. -1.
        -11    1    4    4    0    0 -0.43580028723E+02  0.23184916882E+01 -0.22949779788E+02  0.49308079455E+02  0.00000000000E+00 0.  1.
         11    1    4    4    0    0  0.21421846625E+02  0.26976820085E+02 -0.13558860992E+03  0.13989608813E+03  0.00000000000E+00 0. -1.
</event>
<event>
 8    1  0.6945825E-009  0.1415560E+03  0.7561462E-02  0.1211250E+00
         -1   -1    0    0    0  501 -0.00000000000E+00  0.00000000000E+00  0.49412456139E+03  0.49412456139E+03  0.00000000000E+00 0.  1.
          1   -1    0    0  501    0  0.00000000000E+00 -0.00000000000E+00 -0.41083232167E+02  0.41083232167E+02  0.00000000000E+00 0. -1.
         25    2    1    2    0    0 -0.85850854766E+02 -0.38247322422E+02  0.24291985294E+03  0.28894707872E+03  0.12508849834E+03 0.  0.
         23    2    1    2    0    0  0.85850854766E+02  0.38247322422E+02  0.21012147629E+03  0.24626071483E+03  0.87521871186E+02 0.  0.
          5    1    3    3  502    0  0.30088352414E+02  0.75840605488E+01  0.40708330621E+02  0.51356280116E+02  0.41800000000E+01 0.  1.
         -5    1    3    3    0  502 -0.11593920718E+03 -0.45831382970E+02  0.20221152232E+03  0.23759079861E+03  0.41800000000E+01 0.  1.
        -11    1    4    4    0    0  0.37634162826E+02  0.62602768112E+02  0.10276316274E+03  0.12607816783E+03  0.00000000000E+00 0. -1.
         11    1    4    4    0    0  0.48216691940E+02 -0.24355445690E+02  0.10735831354E+03  0.12018254700E+03  0.00000000000E+00 0.  1.
</event>
<event>
 8    1  0.6945825E-009  0.1344290E+03  0.7561462E-02  0.1221028E+00
         -1   -1    0    0    0  501 -0.00000000000E+00  0.00000000000E+00  0.90300530672E+02  0.90300530672E+02  0.00000000000E+00 0.  1.
          1   -1    0    0  501    0  0.00000000000E+00 -0.00000000000E+00 -0.27580372974E+03  0.27580372974E+03  0.00000000000E+00 0. -1.
         25    2    1    2    0    0  0.89186741188E+02 -0.58609760619E+02 -0.14624064210E+03  0.22005393895E+03  0.12509209329E+03 0.  0.
         23    2    1    2    0    0 -0.89186741188E+02  0.58609760619E+02 -0.39262556968E+02  0.14605032146E+03  0.91650254636E+02 0.  0.
          5    1    3    3  502    0  0.11021408949E+03 -0.75202555782E+02 -0.13732541248E+03  0.19151582501E+03  0.41800000000E+01 0.  1.
         -5    1    3    3    0  502 -0.21027348304E+02  0.16592795164E+02 -0.89152296252E+01  0.28538113941E+02  0.41800000000E+01 0.  1.
        -11    1    4    4    0    0 -0.45055924378E+02  0.40400347178E+02  0.25436333124E+02  0.65644736396E+02  0.00000000000E+00 0.  1.
         11    1    4    4    0    0 -0.44130816810E+02  0.18209413441E+02 -0.64698890092E+02  0.80405585063E+02  0.00000000000E+00 0. -1.
</event>
<event>
 8    1  0.6945825E-009  0.1791818E+03  0.7561462E-02  0.1168597E+00
         -2   -1    0    0    0  501 -0.00000000000E+00  0.00000000000E+00  0.12590100702E+03  0.12590100702E+03  0.00000000000E+00 0. -1.
          2   -1    0    0  501    0  0.00000000000E+00 -0.00000000000E+00 -0.36782436791E+03  0.36782436791E+03  0.00000000000E+00 0.  1.
         25    2    1    2    0    0  0.15605241188E+03  0.11475981022E+02 -0.24124559349E+03  0.31357932774E+03  0.12509398473E+03 0.  0.
         23    2    1    2    0    0 -0.15605241188E+03 -0.11475981022E+02 -0.67776740060E+00  0.18014604719E+03  0.89264133648E+02 0.  0.
          5    1    3    3  502    0 -0.12554552646E+02 -0.24458135568E+02 -0.36610046426E+02  0.45973743451E+02  0.41800000000E+01 0.  1.
         -5    1    3    3    0  502  0.16860696452E+03  0.35934116590E+02 -0.20463554706E+03  0.26760558429E+03  0.41800000000E+01 0.  1.
        -11    1    4    4    0    0 -0.10390772016E+02 -0.67151069402E+01  0.28898869863E+02  0.31435735775E+02  0.00000000000E+00 0. -1.
         11    1    4    4    0    0 -0.14566163986E+03 -0.47608740820E+01 -0.29576637264E+02  0.14871031141E+03  0.00000000000E+00 0.  1.
</event>
<event>
 8    1  0.6945825E-009  0.1091743E+03  0.7561462E-02  0.1262107E+00
         -3   -1    0    0    0  501 -0.00000000000E+00  0.00000000000E+00  0.17797233993E+03  0.17797233993E+03  0.00000000000E+00 0.  1.
          3   -1    0    0  501    0  0.00000000000E+00 -0.00000000000E+00 -0.81610423609E+02  0.81610423609E+02  0.00000000000E+00 0. -1.
         25    2    1    2    0    0 -0.50890845640E+02  0.13288431128E+02  0.59733979283E+02  0.14826814868E+03  0.12509530391E+03 0.  0.
         23    2    1    2    0    0  0.50890845640E+02 -0.13288431128E+02  0.36627937040E+02  0.11131461486E+03  0.91010313361E+02 0.  0.
          5    1    3    3  502    0  0.34413159463E+02  0.17287893317E+02  0.48441478258E+02  0.62025688350E+02  0.41800000000E+01 0.  1.
         -5    1    3    3    0  502 -0.85304005102E+02 -0.39994621890E+01  0.11292501025E+02  0.86242460330E+02  0.41800000000E+01 0.  1.
        -11    1    4    4    0    0  0.38667686781E+02 -0.45468715953E+02 -0.18109799989E+01  0.59714937662E+02  0.00000000000E+00 0. -1.
         11    1    4    4    0    0  0.12223158859E+02  0.32180284825E+02  0.38438917038E+02  0.51599677199E+02  0.00000000000E+00 0.  1.
</event>
<event>
 8    1  0.6945825E-009  0.9999850E+02  0.7561462E-02  0.1280299E+00
         -2   -1    0    0    0  501 -0.00000000000E+00  0.00000000000E+00  0.22599808366E+02  0.22599808366E+02  0.00000000000E+00 0.  1.
          2   -1    0    0  501    0  0.00000000000E+00 -0.00000000000E+00 -0.72627892393E+03  0.72627892393E+03  0.00000000000E+00 0. -1.
         25    2    1    2    0    0 -0.63524201697E+02 -0.14625609495E+02 -0.35491047677E+03  0.38191399414E+03  0.12509044626E+03 0.  0.
         23    2    1    2    0    0  0.63524201697E+02  0.14625609495E+02 -0.34876863880E+03  0.36696473816E+03  0.93671356288E+02 0.  0.
          5    1    3    3  502    0 -0.77183362721E+02 -0.11106400751E+02 -0.10143681142E+03  0.12801375992E+03  0.41800000000E+01 0.  1.
         -5    1    3    3    0  502  0.13659161024E+02 -0.35192087440E+01 -0.25347366535E+03  0.25390023422E+03  0.41800000000E+01 0.  1.
        -11    1    4    4    0    0  0.72808272598E+02  0.37939811019E+02 -0.31073652467E+03  0.32139953575E+03  0.00000000000E+00 0. -1.
         11    1    4    4    0    0 -0.92840709007E+01 -0.23314201525E+02 -0.38032114131E+02  0.45565202408E+02  0.00000000000E+00 0.  1.
</event>
<event>
 8    1  0.6945825E-009  0.9412308E+02  0.7561462E-02  0.1293163E+00
          2   -1    0    0  501    0  0.00000000000E+00  0.00000000000E+00  0.14199061118E+04  0.14199061118E+04  0.00000000000E+00 0.  1.
         -2   -1    0    0    0  501 -0.00000000000E+00 -0.00000000000E+00 -0.11643246647E+02  0.11643246647E+02  0.00000000000E+00 0. -1.
         25    2    1    2    0    0  0.18868021176E+02 -0.28314944432E+02  0.11158908536E+04  0.11233972283E+04  0.12510474430E+03 0.  0.
         23    2    1    2    0    0 -0.18868021176E+02  0.28314944432E+02  0.29237201158E+03  0.30815213020E+03  0.91206380751E+02 0.  0.
          5    1    3    3  502    0 -0.77463375284E+01 -0.54236536728E+02  0.22108079933E+03  0.22780649660E+03  0.41800000000E+01 0. -1.
         -5    1    3    3    0  502  0.26614358704E+02  0.25921592297E+02  0.89481005428E+03  0.89559073169E+03  0.41800000000E+01 0. -1.
        -11    1    4    4    0    0  0.17406874505E+02 -0.25584445301E+02  0.12051815898E+03  0.12442744780E+03  0.00000000000E+00 0. -1.
         11    1    4    4    0    0 -0.36274895681E+02  0.53899389732E+02  0.17185385260E+03  0.18372468240E+03  0.00000000000E+00 0.  1.
</event>
<event>
 8    1  0.6945825E-009  0.3681460E+03  0.7561462E-02  0.1055404E+00
         -1   -1    0    0    0  501 -0.00000000000E+00  0.00000000000E+00  0.62461804401E+03  0.62461804401E+03  0.00000000000E+00 0.  1.
          1   -1    0    0  501    0  0.00000000000E+00 -0.00000000000E+00 -0.26256678389E+03  0.26256678389E+03  0.00000000000E+00 0. -1.
         25    2    1    2    0    0  0.31376960911E+03 -0.18662175023E+03  0.33279964288E+03  0.50959036694E+03  0.12509074512E+03 0.  0.
         23    2    1    2    0    0 -0.31376960911E+03  0.18662175023E+03  0.29251617244E+02  0.37759446096E+03  0.91885116187E+02 0.  0.
          5    1    3    3  502    0  0.81773328244E+02 -0.53314095968E+02  0.23305929208E+02  0.10044853795E+03  0.41800000000E+01 0.  1.
         -5    1    3    3    0  502  0.23199628087E+03 -0.13330765426E+03  0.30949371367E+03  0.40914182898E+03  0.41800000000E+01 0. -1.
        -11    1    4    4    0    0 -0.16258900001E+03  0.13468949364E+03  0.48376963501E+02  0.21660280058E+03  0.00000000000E+00 0.  1.
         11    1    4    4    0    0 -0.15118060911E+03  0.51932256587E+02 -0.19125346257E+02  0.16099166038E+03  0.00000000000E+00 0. -1.
</event>
<event>
 8    1  0.6945825E-009  0.1140722E+03  0.7561462E-02  0.1253209E+00
         -2   -1    0    0    0  501 -0.00000000000E+00  0.00000000000E+00  0.19164020722E+02  0.19164020722E+02  0.00000000000E+00 0.  1.
          2   -1    0    0  501    0  0.00000000000E+00 -0.00000000000E+00 -0.73776122678E+03  0.73776122678E+03  0.00000000000E+00 0. -1.
         25    2    1    2    0    0 -0.16173491743E+02 -0.32868706542E+02 -0.30693157521E+03  0.33345994356E+03  0.12508640372E+03 0.  0.
         23    2    1    2    0    0  0.16173491743E+02  0.32868706542E+02 -0.41166563085E+03  0.42346530394E+03  0.92262334210E+02 0.  0.
          5    1    3    3  502    0  0.47836961964E+02 -0.43507551219E+02 -0.16806959464E+03  0.18012812936E+03  0.41800000000E+01 0.  1.
         -5    1    3    3    0  502 -0.64010453707E+02  0.10638844678E+02 -0.13886198056E+03  0.15333181420E+03  0.41800000000E+01 0.  1.
        -11    1    4    4    0    0  0.30417331817E+02  0.60231055071E+02 -0.30814761079E+03  0.31544879792E+03  0.00000000000E+00 0. -1.
         11    1    4    4    0    0 -0.14243840074E+02 -0.27362348530E+02 -0.10351802006E+03  0.10801650602E+03  0.00000000000E+00 0.  1.
</event>
<event>
 8    1  0.6945825E-009  0.2818280E+03  0.7561462E-02  0.1094695E+00
         -1   -1    0    0    0  501 -0.00000000000E+00  0.00000000000E+00  0.35131703517E+03  0.35131703517E+03  0.00000000000E+00 0.  1.
          1   -1    0    0  501    0  0.00000000000E+00 -0.00000000000E+00 -0.23078736924E+03  0.23078736924E+03  0.00000000000E+00 0. -1.
         25    2    1    2    0    0 -0.14808857215E+03  0.21570981639E+03  0.88091401530E+02  0.30309783167E+03  0.12508897015E+03 0.  0.
         23    2    1    2    0    0  0.14808857215E+03 -0.21570981639E+03  0.32438264403E+02  0.27900657274E+03  0.91276922314E+02 0.  0.
          5    1    3    3  502    0 -0.16574156934E+03  0.17034560917E+03  0.54702507792E+02  0.24392156758E+03  0.41800000000E+01 0.  1.
         -5    1    3    3    0  502  0.17652997199E+02  0.45364207213E+02  0.33388893738E+02  0.59176264086E+02  0.41800000000E+01 0.  1.
        -11    1    4    4    0    0  0.11217154560E+03 -0.21341711135E+03  0.29460309771E+02  0.24289345177E+03  0.00000000000E+00 0. -1.
         11    1    4    4    0    0  0.35917026543E+02 -0.22927050323E+01  0.29779546328E+01  0.36113120965E+02  0.00000000000E+00 0.  1.
</event>
<event>
 8    1  0.6945825E-009  0.1079873E+03  0.7561462E-02  0.1264343E+00
          2   -1    0    0  501    0  0.00000000000E+00  0.00000000000E+00  0.29528459521E+03  0.29528459521E+03  0.00000000000E+00 0. -1.
         -2   -1    0    0    0  501 -0.00000000000E+00 -0.00000000000E+00 -0.53934980015E+02  0.53934980015E+02  0.00000000000E+00 0.  1.
         25    2    1    2    0    0 -0.47074529189E+02  0.35039908217E+02  0.16995132953E+03  0.21903166551E+03  0.12509040578E+03 0.  0.
         23    2    1    2    0    0  0.47074529189E+02 -0.35039908217E+02  0.71398285665E+02  0.13018790972E+03  0.91691712686E+02 0.  0.
          5    1    3    3  502    0 -0.88059185585E+02  0.20210526046E+02  0.13729845014E+03  0.16441174636E+03  0.41800000000E+01 0.  1.
         -5    1    3    3    0  502  0.40984656396E+02  0.14829382171E+02  0.32652879393E+02  0.54619919152E+02  0.41800000000E+01 0.  1.
        -11    1    4    4    0    0  0.37308146055E+02  0.75367965220E+01 -0.86173237099E+01  0.39025111554E+02  0.00000000000E+00 0.  1.
         11    1    4    4    0    0  0.97663831341E+01 -0.42576704739E+02  0.80015609375E+02  0.91162798167E+02  0.00000000000E+00 0. -1.
</event>
<event>
 8    1  0.6945825E-009  0.1261284E+03  0.7561462E-02  0.1233316E+00
         -2   -1    0    0    0  501 -0.00000000000E+00  0.00000000000E+00  0.58956379122E+03  0.58956379122E+03  0.00000000000E+00 0.  1.
          2   -1    0    0  501    0  0.00000000000E+00 -0.00000000000E+00 -0.34498849928E+02  0.34498849928E+02  0.00000000000E+00 0. -1.
         25    2    1    2    0    0  0.69202395410E+02  0.20902574085E+02  0.42923031354E+03  0.45289215765E+03  0.12508699080E+03 0.  0.
         23    2    1    2    0    0 -0.69202395410E+02 -0.20902574085E+02  0.12583462775E+03  0.17117048350E+03  0.90769442792E+02 0.  0.
          5    1    3    3  502    0  0.95168205412E+02 -0.17031602073E+02  0.31991651074E+03  0.33423211850E+03  0.41800000000E+01 0. -1.
         -5    1    3    3    0  502 -0.25965810001E+02  0.37934176158E+02  0.10931380279E+03  0.11866003915E+03  0.41800000000E+01 0. -1.
        -11    1    4    4    0    0 -0.27872444355E+02 -0.51054456226E+02  0.95130279024E+02  0.11150426289E+03  0.00000000000E+00 0.  1.
         11    1    4    4    0    0 -0.41329951055E+02  0.30151882141E+02  0.30704348728E+02  0.59666220608E+02  0.00000000000E+00 0. -1.
</event>
<event>
 8    1  0.6945825E-009  0.8474098E+02  0.7561462E-02  0.1316111E+00
          2   -1    0    0  501    0  0.00000000000E+00  0.00000000000E+00  0.22534805950E+03  0.22534805950E+03  0.00000000000E+00 0.  1.
         -2   -1    0    0    0  501 -0.00000000000E+00 -0.00000000000E+00 -0.64421318999E+02  0.64421318999E+02  0.00000000000E+00 0. -1.
         25    2    1    2    0    0 -0.32027921126E+02 -0.35455181835E+02  0.11507347802E+03  0.17655630221E+03  0.12508942744E+03 0.  0.
         23    2    1    2    0    0  0.32027921126E+02  0.35455181835E+02  0.45853262482E+02  0.11321307629E+03  0.91824949285E+02 0.  0.
          5    1    3    3  502    0  0.45771149903E+00 -0.59188861056E+02  0.12186312791E+03  0.13554196810E+03  0.41800000000E+01 0.  1.
         -5    1    3    3    0  502 -0.32485632625E+02  0.23733679220E+02 -0.67896498961E+01  0.41014334105E+02  0.41800000000E+01 0.  1.
        -11    1    4    4    0    0 -0.12850403169E+02  0.58722192578E+00  0.54259089259E+02  0.55763128126E+02  0.00000000000E+00 0.  1.
         11    1    4    4    0    0  0.44878324295E+02  0.34867959910E+02 -0.84058267769E+01  0.57449948160E+02  0.00000000000E+00 0. -1.
</event>
<event>
 8    1  0.6945825E-009  0.9139029E+02  0.7561462E-02  0.1299519E+00
         -1   -1    0    0    0  501 -0.00000000000E+00  0.00000000000E+00  0.57782219960E+02  0.57782219960E+02  0.00000000000E+00 0.  1.
          1   -1    0    0  501    0  0.00000000000E+00 -0.00000000000E+00 -0.27135256016E+03  0.27135256016E+03  0.00000000000E+00 0. -1.
         25    2    1    2    0    0 -0.31771056749E+02 -0.31592537418E+02 -0.62733628086E+02  0.14693857514E+03  0.12509175954E+03 0.  0.
         23    2    1    2    0    0  0.31771056749E+02  0.31592537418E+02 -0.15083671211E+03  0.18219620498E+03  0.91849087747E+02 0.  0.
          5    1    3    3  502    0  0.26308183788E+02  0.82638992389E+01 -0.70627392746E+02  0.75934929848E+02  0.41800000000E+01 0.  1.
         -5    1    3    3    0  502 -0.58079240537E+02 -0.39856436657E+02  0.78937646601E+01  0.71003645293E+02  0.41800000000E+01 0.  1.
        -11    1    4    4    0    0  0.49583542756E+02  0.40857594144E+02 -0.55909583051E+02  0.85168962589E+02  0.00000000000E+00 0.  1.
         11    1    4    4    0    0 -0.17812486007E+02 -0.92650567259E+01 -0.94927129060E+02  0.97027242389E+02  0.00000000000E+00 0. -1.
</event>
<event>
 8    1  0.6945825E-009  0.8587124E+02  0.7561462E-02  0.1313170E+00
          1   -1    0    0  501    0  0.00000000000E+00  0.00000000000E+00  0.10041109932E+03  0.10041109932E+03  0.00000000000E+00 0. -1.
         -1   -1    0    0    0  501 -0.00000000000E+00 -0.00000000000E+00 -0.16549172721E+03  0.16549172721E+03  0.00000000000E+00 0.  1.
         25    2    1    2    0    0  0.46464709336E+02 -0.22502112993E+02 -0.83182968098E+02  0.15884435472E+03  0.12508720375E+03 0.  0.
         23    2    1    2    0    0 -0.46464709336E+02  0.22502112993E+02  0.18102340206E+02  0.10705847181E+03  0.92024493270E+02 0.  0.
          5    1    3    3  502    0 -0.16055579329E+02 -0.82784467184E+01  0.26133384238E+02  0.32042791379E+02  0.41800000000E+01 0. -1.
         -5    1    3    3    0  502  0.62520288666E+02 -0.14223666275E+02 -0.10931635234E+03  0.12680156334E+03  0.41800000000E+01 0. -1.
        -11    1    4    4    0    0 -0.53666051428E+02 -0.10913300373E+02 -0.17704505375E+02  0.57555144961E+02  0.00000000000E+00 0.  1.
         11    1    4    4    0    0  0.72013420912E+01  0.33415413366E+02  0.35806845581E+02  0.49503326846E+02  0.00000000000E+00 0. -1.
</event>
<event>
 8    1  0.6945825E-009  0.1403908E+03  0.7561462E-02  0.1212804E+00
          1   -1    0    0  501    0  0.00000000000E+00  0.00000000000E+00  0.44534198831E+03  0.44534198831E+03  0.00000000000E+00 0. -1.
         -1   -1    0    0    0  501 -0.00000000000E+00 -0.00000000000E+00 -0.56143778284E+02  0.56143778284E+02  0.00000000000E+00 0.  1.
         25    2    1    2    0    0 -0.11590887517E+03 -0.72108378176E+01  0.19842617668E+03  0.26173763362E+03  0.12508708061E+03 0.  0.
         23    2    1    2    0    0  0.11590887517E+03  0.72108378176E+01  0.19077203335E+03  0.23974813298E+03  0.87168429102E+02 0.  0.
          5    1    3    3  502    0 -0.12069227077E+03 -0.41969311959E+02  0.18287176875E+03  0.22313135946E+03  0.41800000000E+01 0.  1.
         -5    1    3    3    0  502  0.47833955966E+01  0.34758474141E+02  0.15554407925E+02  0.38606274153E+02  0.41800000000E+01 0.  1.
        -11    1    4    4    0    0  0.46854864726E+02 -0.61696142801E+01  0.15253507166E+03  0.15968841716E+03  0.00000000000E+00 0. -1.
         11    1    4    4    0    0  0.69054010447E+02  0.13380452098E+02  0.38236961685E+02  0.80059715813E+02  0.00000000000E+00 0.  1.
</event>
<event>
 8    1  0.6945825E-009  0.1165967E+03  0.7561462E-02  0.1248819E+00
         -2   -1    0    0    0  501 -0.00000000000E+00  0.00000000000E+00  0.19039710125E+02  0.19039710125E+02  0.00000000000E+00 0.  1.
          2   -1    0    0  501    0  0.00000000000E+00 -0.00000000000E+00 -0.10275931404E+04  0.10275931404E+04  0.00000000000E+00 0. -1.
         25    2    1    2    0    0  0.59180845039E+02  0.61393973132E+02 -0.61108640277E+03  0.62956048520E+03  0.12509284756E+03 0.  0.
         23    2    1    2    0    0 -0.59180845039E+02 -0.61393973132E+02 -0.39746702753E+03  0.41707236535E+03  0.93261608462E+02 0.  0.
          5    1    3    3  502    0 -0.58757275272E+01  0.57231009948E+02 -0.47628519880E+03  0.47976554239E+03  0.41800000000E+01 0.  1.
         -5    1    3    3    0  502  0.65056572566E+02  0.41629631847E+01 -0.13480120397E+03  0.14979494280E+03  0.41800000000E+01 0.  1.
        -11    1    4    4    0    0 -0.31074506235E+02 -0.73336217406E+02 -0.36015271532E+03  0.36885471947E+03  0.00000000000E+00 0. -1.
         11    1    4    4    0    0 -0.28106338804E+02  0.11942244274E+02 -0.37314312210E+02  0.48217645887E+02  0.00000000000E+00 0.  1.
</event>
<event>
 8    1  0.6945825E-009  0.1518599E+03  0.7561462E-02  0.1198206E+00
          2   -1    0    0  501    0  0.00000000000E+00  0.00000000000E+00  0.60354670530E+02  0.60354670530E+02  0.00000000000E+00 0. -1.
         -2   -1    0    0    0  501 -0.00000000000E+00 -0.00000000000E+00 -0.41836042891E+03  0.41836042891E+03  0.00000000000E+00 0.  1.
         25    2    1    2    0    0  0.11183024668E+03 -0.93203919303E+01 -0.23305802655E+03  0.28732927206E+03  0.12509673482E+03 0.  0.
         23    2    1    2    0    0 -0.11183024668E+03  0.93203919303E+01 -0.12494773183E+03  0.19138582738E+03  0.91780855600E+02 0.  0.
          5    1    3    3  502    0  0.72065183505E+02 -0.66260122979E+02 -0.14699098797E+03  0.17665677886E+03  0.41800000000E+01 0. -1.
         -5    1    3    3    0  502  0.39765063179E+02  0.56939731048E+02 -0.86067038578E+02  0.11067249320E+03  0.41800000000E+01 0. -1.
        -11    1    4    4    0    0 -0.34804475907E+02 -0.33263726772E+02 -0.77927152315E+02  0.91599498524E+02  0.00000000000E+00 0.  1.
         11    1    4    4    0    0 -0.77025770777E+02  0.42584118702E+02 -0.47020579516E+02  0.99786328861E+02  0.00000000000E+00 0. -1.
</event>
<event>
 8    1  0.6945825E-009  0.2549403E+03  0.7561462E-02  0.1110222E+00
         -1   -1    0    0    0  501 -0.00000000000E+00  0.00000000000E+00  0.52823610419E+02  0.52823610419E+02  0.00000000000E+00 0. -1.
          1   -1    0    0  501    0  0.00000000000E+00 -0.00000000000E+00 -0.12720815479E+04  0.12720815479E+04  0.00000000000E+00 0.  1.
         25    2    1    2    0    0 -0.23168381392E+03 -0.16828986579E+02 -0.71861006826E+03  0.76551190365E+03  0.12508972785E+03 0.  0.
         23    2    1    2    0    0  0.23168381392E+03  0.16828986579E+02 -0.50064786921E+03  0.55939325465E+03  0.91169731707E+02 0.  0.
          5    1    3    3  502    0 -0.24401310078E+03 -0.26876549750E+02 -0.69160707370E+03  0.73389546877E+03  0.41800000000E+01 0.  1.
         -5    1    3    3    0  502  0.12329286859E+02  0.10047563171E+02 -0.27002994553E+02  0.31616434887E+02  0.41800000000E+01 0.  1.
        -11    1    4    4    0    0  0.54715643398E+02  0.42246236546E+02 -0.16974435730E+03  0.18328036711E+03  0.00000000000E+00 0.  1.
         11    1    4    4    0    0  0.17696817053E+03 -0.25417249967E+02 -0.33090351191E+03  0.37611288753E+03  0.00000000000E+00 0. -1.
</event>
<event>
 8    1  0.6945825E-009  0.9999232E+02  0.7561462E-02  0.1280312E+00
         -1   -1    0    0    0  501 -0.00000000000E+00  0.00000000000E+00  0.25286543975E+03  0.25286543975E+03  0.00000000000E+00 0.  1.
          1   -1    0    0  501    0  0.00000000000E+00 -0.00000000000E+00 -0.66628015664E+02  0.66628015664E+02  0.00000000000E+00 0. -1.
         25    2    1    2    0    0  0.17645003018E+01 -0.63994643891E+02  0.13554537228E+03  0.19523903434E+03  0.12508918689E+03 0.  0.
         23    2    1    2    0    0 -0.17645003018E+01  0.63994643891E+02  0.50692051806E+02  0.12425442107E+03  0.93653879423E+02 0.  0.
          5    1    3    3  502    0  0.20601459742E+02 -0.43307031035E+00  0.12645867494E+03  0.12819468227E+03  0.41800000000E+01 0. -1.
         -5    1    3    3    0  502 -0.18836959440E+02 -0.63561573581E+02  0.90866973394E+01  0.67044352078E+02  0.41800000000E+01 0. -1.
        -11    1    4    4    0    0  0.39114977645E+02  0.59776386752E+02  0.24500950045E+02  0.75521483317E+02  0.00000000000E+00 0. -1.
         11    1    4    4    0    0 -0.40879477947E+02  0.42182571391E+01  0.26191101761E+02  0.48732937753E+02  0.00000000000E+00 0.  1.
</event>
<event>
 8    1  0.6945825E-009  0.7954565E+02  0.7561462E-02  0.1330346E+00
          2   -1    0    0  501    0  0.00000000000E+00  0.00000000000E+00  0.22137405973E+03  0.22137405973E+03  0.00000000000E+00 0. -1.
         -2   -1    0    0    0  501 -0.00000000000E+00 -0.00000000000E+00 -0.56074352775E+02  0.56074352775E+02  0.00000000000E+00 0.  1.
         25    2    1    2    0    0  0.52616117436E+01  0.94679745146E+01  0.12907194136E+03  0.18006890143E+03  0.12509163088E+03 0.  0.
         23    2    1    2    0    0 -0.52616117436E+01 -0.94679745146E+01  0.36227765597E+02  0.97379511078E+02  0.89738459304E+02 0.  0.
          5    1    3    3  502    0 -0.22765301674E+02  0.42470246271E+02  0.12769509727E+03  0.13654849338E+03  0.41800000000E+01 0.  1.
         -5    1    3    3    0  502  0.28026913418E+02 -0.33002271757E+02  0.13768440925E+01  0.43520408046E+02  0.41800000000E+01 0.  1.
        -11    1    4    4    0    0  0.29346834901E+02  0.48986428202E+01  0.49393169854E+02  0.57662107562E+02  0.00000000000E+00 0. -1.
         11    1    4    4    0    0 -0.34608446645E+02 -0.14366617335E+02 -0.13165404258E+02  0.39717403516E+02  0.00000000000E+00 0.  1.
</event>
<event>
 8    1  0.6945825E-009  0.6875119E+02  0.7561462E-02  0.1364392E+00
          2   -1    0    0  501    0  0.00000000000E+00  0.00000000000E+00  0.25040152484E+03  0.25040152484E+03  0.00000000000E+00 0. -1.
         -2   -1    0    0    0  501 -0.00000000000E+00 -0.00000000000E+00 -0.50480540696E+02  0.50480540696E+02  0.00000000000E+00 0.  1.
         25    2    1    2    0    0  0.21851166276E+02  0.29959332715E+01  0.14963043485E+03  0.19627058065E+03  0.12508566950E+03 0.  0.
         23    2    1    2    0    0 -0.21851166276E+02 -0.29959332715E+01  0.50290549299E+02  0.10461148489E+03  0.89039173049E+02 0.  0.
          5    1    3    3  502    0  0.26655408790E+02 -0.12035075827E+02  0.16864309937E+03  0.17121133500E+03  0.41800000000E+01 0.  1.
         -5    1    3    3    0  502 -0.48042425135E+01  0.15031009099E+02 -0.19012664520E+02  0.25059245655E+02  0.41800000000E+01 0.  1.
        -11    1    4    4    0    0 -0.28668061615E+02  0.39382163999E+02  0.29115131840E+02  0.56749480174E+02  0.00000000000E+00 0. -1.
         11    1    4    4    0    0  0.68168953385E+01 -0.42378097271E+02  0.21175417460E+02  0.47862004711E+02  0.00000000000E+00 0.  1.
</event>
<event>
 8    1  0.6945825E-009  0.1058237E+03  0.7561462E-02  0.1268505E+00
          1   -1    0    0  501    0  0.00000000000E+00  0.00000000000E+00  0.10764410477E+03  0.10764410477E+03  0.00000000000E+00 0.  1.
         -1   -1    0    0    0  501 -0.00000000000E+00 -0.00000000000E+00 -0.12045223847E+03  0.12045223847E+03  0.00000000000E+00 0. -1.
         25    2    1    2    0    0  0.21595980886E+02  0.26152992821E+02  0.63409886137E+01  0.12976090198E+03  0.12508924063E+03 0.  0.
         23    2    1    2    0    0 -0.21595980886E+02 -0.26152992821E+02 -0.19149122311E+02  0.98335441267E+02  0.90292882887E+02 0.  0.
          5    1    3    3  502    0 -0.46274779054E+02  0.16317336046E+02 -0.23846024824E+02  0.54714860249E+02  0.41800000000E+01 0.  1.
         -5    1    3    3    0  502  0.67870759940E+02  0.98356567751E+01  0.30187013438E+02  0.75046041730E+02  0.41800000000E+01 0.  1.
        -11    1    4    4    0    0  0.30128275259E+02 -0.29100122076E+02 -0.20228986601E+02  0.46516039963E+02  0.00000000000E+00 0. -1.
         11    1    4    4    0    0 -0.51724256145E+02  0.29471292554E+01  0.10798642901E+01  0.51819401304E+02  0.00000000000E+00 0.  1.
</event>
<event>
 8    1  0.6945825E-009  0.2545649E+03  0.7561462E-02  0.1110453E+00
          1   -1    0    0  501    0  0.00000000000E+00  0.00000000000E+00  0.12962966210E+03  0.12962966210E+03  0.00000000000E+00 0. -1.
         -1   -1    0    0    0  501 -0.00000000000E+00 -0.00000000000E+00 -0.63695701341E+03  0.63695701341E+03  0.00000000000E+00 0.  1.
         25    2    1    2    0    0 -0.19437850499E+03  0.15472128170E+03 -0.13423332650E+03  0.30884875702E+03  0.12508913046E+03 0.  0.
         23    2    1    2    0    0  0.19437850499E+03 -0.15472128170E+03 -0.37309402481E+03  0.45773791848E+03  0.92753288074E+02 0.  0.
          5    1    3    3  502    0 -0.81857401760E+02  0.31957994102E+02  0.99502458018E+01  0.88534893694E+02  0.41800000000E+01 0.  1.
         -5    1    3    3    0  502 -0.11252110323E+03  0.12276328760E+03 -0.14418357230E+03  0.22031386333E+03  0.41800000000E+01 0.  1.
        -11    1    4    4    0    0  0.95362316775E+01 -0.30281263460E+02 -0.10196005382E+03  0.10678832898E+03  0.00000000000E+00 0.  1.
         11    1    4    4    0    0  0.18484227331E+03 -0.12444001824E+03 -0.27113397099E+03  0.35094958950E+03  0.00000000000E+00 0. -1.
</event>
<event>
 8    1  0.6945825E-009  0.1241166E+03  0.7561462E-02  0.1236456E+00
          2   -1    0    0  501    0  0.00000000000E+00  0.00000000000E+00  0.76988310442E+03  0.76988310442E+03  0.00000000000E+00 0. -1.
         -2   -1    0    0    0  501 -0.00000000000E+00 -0.00000000000E+00 -0.29722417051E+02  0.29722417051E+02  0.00000000000E+00 0.  1.
         25    2    1    2    0    0  0.97241549203E+02 -0.32689808269E+02  0.43080834782E+03  0.46018368660E+03  0.12509456583E+03 0.  0.
         23    2    1    2    0    0 -0.97241549203E+02  0.32689808269E+02  0.30935233955E+03  0.33942183488E+03  0.94782749223E+02 0.  0.
          5    1    3    3  502    0  0.71067992742E+02  0.13757863529E+02  0.91791192609E+02  0.11697450082E+03  0.41800000000E+01 0. -1.
         -5    1    3    3    0  502  0.26173556461E+02 -0.46447671798E+02  0.33901715521E+03  0.34320918578E+03  0.41800000000E+01 0. -1.
        -11    1    4    4    0    0 -0.79944801481E+02 -0.56927582234E+01  0.11257208698E+03  0.13818847111E+03  0.00000000000E+00 0.  1.
         11    1    4    4    0    0 -0.17296747722E+02  0.38382566493E+02  0.19678025257E+03  0.20123336377E+03  0.00000000000E+00 0. -1.
</event>
<event>
 8    1  0.6945825E-009  0.1226923E+03  0.7561462E-02  0.1238721E+00
          1   -1    0    0  501    0  0.00000000000E+00  0.00000000000E+00  0.44379932226E+02  0.44379932226E+02  0.00000000000E+00 0. -1.
         -1   -1    0    0    0  501 -0.00000000000E+00 -0.00000000000E+00 -0.44198178770E+03  0.44198178770E+03  0.00000000000E+00 0.  1.
         25    2    1    2    0    0 -0.76013676504E+02  0.43617369376E+02 -0.18736140631E+03  0.24172884583E+03  0.12509190382E+03 0.  0.
         23    2    1    2    0    0  0.76013676504E+02 -0.43617369376E+02 -0.21024044916E+03  0.24463287410E+03  0.89239244165E+02 0.  0.
          5    1    3    3  502    0  0.18825952445E+02  0.15761051043E+02 -0.11874460153E+03  0.12132839737E+03  0.41800000000E+01 0. -1.
         -5    1    3    3    0  502 -0.94839628950E+02  0.27856318332E+02 -0.68616804782E+02  0.12040044846E+03  0.41800000000E+01 0. -1.
        -11    1    4    4    0    0 -0.39562860973E+01  0.19356015603E+02 -0.59912821797E+02  0.63086082105E+02  0.00000000000E+00 0.  1.
         11    1    4    4    0    0  0.79969962601E+02 -0.62973384978E+02 -0.15032762736E+03  0.18154679199E+03  0.00000000000E+00 0. -1.
</event>
<event>
 8    1  0.6945825E-009  0.8659097E+02  0.7561462E-02  0.1311324E+00
         -1   -1    0    0    0  501 -0.00000000000E+00  0.00000000000E+00  0.29043144070E+02  0.29043144070E+02  0.00000000000E+00 0.  1.
          1   -1    0    0  501    0  0.00000000000E+00 -0.00000000000E+00 -0.47834879114E+03  0.47834879114E+03  0.00000000000E+00 0. -1.
         25    2    1    2    0    0  0.14688087165E+02  0.41627617937E+01 -0.35236319095E+03  0.37421924630E+03  0.12508859849E+03 0.  0.
         23    2    1    2    0    0 -0.14688087165E+02 -0.41627617937E+01 -0.96942456120E+02  0.13317268891E+03  0.90022534864E+02 0.  0.
          5    1    3    3  502    0  0.11251699491E+02  0.46534988452E+02 -0.31122847757E+03  0.31491704231E+03  0.41800000000E+01 0.  1.
         -5    1    3    3    0  502  0.34363876738E+01 -0.42372226658E+02 -0.41134713384E+02  0.59302203984E+02  0.41800000000E+01 0.  1.
        -11    1    4    4    0    0  0.25827783714E+02  0.22210288303E+02 -0.13308051352E+02  0.36571512805E+02  0.00000000000E+00 0.  1.
         11    1    4    4    0    0 -0.40515870879E+02 -0.26373050097E+02 -0.83634404769E+02  0.96601176108E+02  0.00000000000E+00 0. -1.
</event>
<event>
 8    1  0.6945825E-009  0.8115290E+02  0.7561462E-02  0.1325811E+00
         -2   -1    0    0    0  501 -0.00000000000E+00  0.00000000000E+00  0.49858162455E+02  0.49858162455E+02  0.00000000000E+00 0.  1.
          2   -1    0    0  501    0  0.00000000000E+00 -0.00000000000E+00 -0.29606617508E+03  0.29606617508E+03  0.00000000000E+00 0. -1.
         25    2    1    2    0    0 -0.25984856759E+02 -0.13895329763E+02 -0.70336065808E+02  0.14650710150E+03  0.12509546621E+03 0.  0.
         23    2    1    2    0    0  0.25984856759E+02  0.13895329763E+02 -0.17587194682E+03  0.19941723604E+03  0.89263650954E+02 0.  0.
          5    1    3    3  502    0 -0.45903113973E+02 -0.58920523703E+01  0.22145272135E+02  0.51475213758E+02  0.41800000000E+01 0. -1.
         -5    1    3    3    0  502  0.19918257213E+02 -0.80032773927E+01 -0.92481337943E+02  0.95031887739E+02  0.41800000000E+01 0. -1.
        -11    1    4    4    0    0 -0.69952994811E+01 -0.34611778774E+02 -0.68666269142E+02  0.77213767960E+02  0.00000000000E+00 0.  1.
         11    1    4    4    0    0  0.32980156241E+02  0.48507108537E+02 -0.10720567768E+03  0.12220346808E+03  0.00000000000E+00 0. -1.
</event>
<event>
 8    1  0.6945825E-009  0.1755100E+03  0.7561462E-02  0.1172221E+00
          1   -1    0    0  501    0  0.00000000000E+00  0.00000000000E+00  0.88305621780E+03  0.88305621780E+03  0.00000000000E+00 0. -1.
         -1   -1    0    0    0  501 -0.00000000000E+00 -0.00000000000E+00 -0.47518578824E+02  0.47518578824E+02  0.00000000000E+00 0.  1.
         25    2    1    2    0    0 -0.13603263092E+03 -0.58251509958E+02  0.63660164133E+03  0.66543641974E+03  0.12508342768E+03 0.  0.
         23    2    1    2    0    0  0.13603263092E+03  0.58251509958E+02  0.19893599764E+03  0.26513837688E+03  0.93939941721E+02 0.  0.
          5    1    3    3  502    0  0.13120717370E+02 -0.38411485417E+02  0.18363821882E+03  0.18811715298E+03  0.41800000000E+01 0.  1.
         -5    1    3    3    0  502 -0.14915334829E+03 -0.19840024541E+02  0.45296342251E+03  0.47731926676E+03  0.41800000000E+01 0.  1.
        -11    1    4    4    0    0  0.52754219346E+02  0.55200782198E+02  0.41247747272E+02  0.86784276624E+02  0.00000000000E+00 0. -1.
         11    1    4    4    0    0  0.83278411575E+02  0.30507277599E+01  0.15768825037E+03  0.17835410026E+03  0.00000000000E+00 0.  1.
</event>
<event>
 8    1  0.6945825E-009  0.1352079E+03  0.7561462E-02  0.1219927E+00
          1   -1    0    0  501    0  0.00000000000E+00  0.00000000000E+00  0.23324717260E+02  0.23324717260E+02  0.00000000000E+00 0. -1.
         -1   -1    0    0    0  501 -0.00000000000E+00 -0.00000000000E+00 -0.13367126508E+04  0.13367126508E+04  0.00000000000E+00 0.  1.
         25    2    1    2    0    0 -0.40479877788E+02  0.82738459101E+02 -0.10949070689E+04  0.11058724288E+04  0.12509223088E+03 0.  0.
         23    2    1    2    0    0  0.40479877788E+02 -0.82738459101E+02 -0.21848086471E+03  0.25416493929E+03  0.91551379012E+02 0.  0.
          5    1    3    3  502    0  0.35984178706E+02 -0.38647232421E+00 -0.42076577340E+03  0.42232252953E+03  0.41800000000E+01 0. -1.
         -5    1    3    3    0  502 -0.76464056494E+02  0.83124931425E+02 -0.67414129546E+03  0.68354989928E+03  0.41800000000E+01 0. -1.
        -11    1    4    4    0    0 -0.20291504618E+02 -0.45685476956E+02 -0.47486201182E+02  0.68948149120E+02  0.00000000000E+00 0.  1.
         11    1    4    4    0    0  0.60771382406E+02 -0.37052982145E+02 -0.17099466353E+03  0.18521679017E+03  0.00000000000E+00 0. -1.
</event>
<event>
 8    1  0.6945825E-009  0.1171807E+03  0.7561462E-02  0.1247822E+00
         -2   -1    0    0    0  501 -0.00000000000E+00  0.00000000000E+00  0.41981892289E+02  0.41981892289E+02  0.00000000000E+00 0. -1.
          2   -1    0    0  501    0  0.00000000000E+00 -0.00000000000E+00 -0.42540422654E+03  0.42540422654E+03  0.00000000000E+00 0.  1.
         25    2    1    2    0    0  0.56646835230E+02  0.18524139939E+02 -0.12259038212E+03  0.18500887853E+03  0.12509146912E+03 0.  0.
         23    2    1    2    0    0 -0.56646835230E+02 -0.18524139939E+02 -0.26083195213E+03  0.28237724029E+03  0.90286161084E+02 0.  0.
          5    1    3    3  502    0 -0.17337132335E+02  0.53478392001E+02 -0.55552594007E+02  0.79145926424E+02  0.41800000000E+01 0.  1.
         -5    1    3    3    0  502  0.73983967565E+02 -0.34954252062E+02 -0.67037788116E+02  0.10586295211E+03  0.41800000000E+01 0.  1.
        -11    1    4    4    0    0 -0.54050419205E+02  0.19860002034E+02 -0.21480391541E+03  0.22238837553E+03  0.00000000000E+00 0.  1.
         11    1    4    4    0    0 -0.25964160254E+01 -0.38384141974E+02 -0.46028036719E+02  0.59988864762E+02  0.00000000000E+00 0. -1.
</event>
<event>
 8    1  0.6945825E-009  0.1098761E+03  0.7561462E-02  0.1260800E+00
         -4   -1    0    0    0  501 -0.00000000000E+00  0.00000000000E+00  0.30286889679E+03  0.30286889679E+03  0.00000000000E+00 0.  1.
          4   -1    0    0  501    0  0.00000000000E+00 -0.00000000000E+00 -0.52623817779E+02  0.52623817779E+02  0.00000000000E+00 0. -1.
         25    2    1    2    0    0 -0.50492915639E+02 -0.28074955763E+02  0.12859928152E+03  0.18847390402E+03  0.12508756780E+03 0.  0.
         23    2    1    2    0    0  0.50492915639E+02  0.28074955763E+02  0.12164579749E+03  0.16701881055E+03  0.98791929624E+02 0.  0.
          5    1    3    3  502    0 -0.45325831554E+02  0.41842244132E+02  0.33709291538E+02  0.70420118831E+02  0.41800000000E+01 0.  1.
         -5    1    3    3    0  502 -0.51670840852E+01 -0.69917199895E+02  0.94889989979E+02  0.11805378519E+03  0.41800000000E+01 0.  1.
        -11    1    4    4    0    0  0.66678053679E+02  0.25040007414E+02  0.36002829684E+02  0.79807070858E+02  0.00000000000E+00 0. -1.
         11    1    4    4    0    0 -0.16185138040E+02  0.30349483485E+01  0.85642967810E+02  0.87211739692E+02  0.00000000000E+00 0.  1.
</event>
<event>
 8    1  0.6945825E-009  0.9646565E+02  0.7561462E-02  0.1287909E+00
          3   -1    0    0  501    0  0.00000000000E+00  0.00000000000E+00  0.10005721696E+03  0.10005721696E+03  0.00000000000E+00 0. -1.
         -3   -1    0    0    0  501 -0.00000000000E+00 -0.00000000000E+00 -0.14201268047E+03  0.14201268047E+03  0.00000000000E+00 0.  1.
         25    2    1    2    0    0  0.23063514551E+02  0.17049962104E+02 -0.65614671036E+02  0.14413651065E+03  0.12508965479E+03 0.  0.
         23    2    1    2    0    0 -0.23063514551E+02 -0.17049962104E+02  0.23659207522E+02  0.97933386779E+02  0.90601121595E+02 0.  0.
          5    1    3    3  502    0  0.39229189262E+02  0.50907505175E+02  0.44400294786E+01  0.64557645829E+02  0.41800000000E+01 0.  1.
         -5    1    3    3    0  502 -0.16165674711E+02 -0.33857543070E+02 -0.70054700515E+02  0.79578864819E+02  0.41800000000E+01 0.  1.
        -11    1    4    4    0    0  0.28533321333E+02 -0.25768953322E+02 -0.41569758397E+01  0.38671304991E+02  0.00000000000E+00 0.  1.
         11    1    4    4    0    0 -0.51596835884E+02  0.87189912173E+01  0.27816183361E+02  0.59262081788E+02  0.00000000000E+00 0. -1.
</event>
<event>
 8    1  0.6945825E-009  0.1119233E+03  0.7561462E-02  0.1257049E+00
          1   -1    0    0  501    0  0.00000000000E+00  0.00000000000E+00  0.11186880817E+02  0.11186880817E+02  0.00000000000E+00 0. -1.
         -1   -1    0    0    0  501 -0.00000000000E+00 -0.00000000000E+00 -0.16783491979E+04  0.16783491979E+04  0.00000000000E+00 0.  1.
         25    2    1    2    0    0 -0.56756906113E+02 -0.63156068537E+01 -0.12870133390E+04  0.12943367368E+04  0.12507205992E+03 0.  0.
         23    2    1    2    0    0  0.56756906113E+02  0.63156068537E+01 -0.38014897813E+03  0.39519934197E+03  0.91695370862E+02 0.  0.
          5    1    3    3  502    0 -0.53241258852E+02  0.41579805490E+02 -0.10650801337E+04  0.10672285020E+04  0.41800000000E+01 0. -1.
         -5    1    3    3    0  502 -0.35156472615E+01 -0.47895412344E+02 -0.22193320528E+03  0.22710823478E+03  0.41800000000E+01 0. -1.
        -11    1    4    4    0    0 -0.87938133916E+01  0.35231681621E+02 -0.12138537692E+03  0.12670048253E+03  0.00000000000E+00 0.  1.
         11    1    4    4    0    0  0.65550719505E+02 -0.28916074767E+02 -0.25876360122E+03  0.26849885944E+03  0.00000000000E+00 0. -1.
</event>
<event>
 8    1  0.6945825E-009  0.3177457E+03  0.7561462E-02  0.1076692E+00
          2   -1    0    0  501    0  0.00000000000E+00  0.00000000000E+00  0.19025338271E+03  0.19025338271E+03  0.00000000000E+00 0. -1.
         -2   -1    0    0    0  501 -0.00000000000E+00 -0.00000000000E+00 -0.59212254165E+03  0.59212254165E+03  0.00000000000E+00 0.  1.
         25    2    1    2    0    0 -0.65677265115E+02 -0.30360548317E+03 -0.12896768041E+03  0.35884518218E+03  0.12508960634E+03 0.  0.
         23    2    1    2    0    0  0.65677265115E+02  0.30360548317E+03 -0.27290147854E+03  0.42353074219E+03  0.91723933751E+02 0.  0.
          5    1    3    3  502    0 -0.59538063260E+02 -0.19752134134E+03 -0.14375175881E+03  0.25147863094E+03  0.41800000000E+01 0.  1.
         -5    1    3    3    0  502 -0.61392018542E+01 -0.10608414184E+03  0.14784078403E+02  0.10736655123E+03  0.41800000000E+01 0.  1.
        -11    1    4    4    0    0 -0.19259511892E+02  0.10575108656E+03 -0.74870511384E+02  0.13099547542E+03  0.00000000000E+00 0.  1.
         11    1    4    4    0    0  0.84936777006E+02  0.19785439662E+03 -0.19803096715E+03  0.29253526677E+03  0.00000000000E+00 0. -1.
</event>
<event>
 8    1  0.6945825E-009  0.9699913E+02  0.7561462E-02  0.1286736E+00
         -2   -1    0    0    0  501 -0.00000000000E+00  0.00000000000E+00  0.38009865320E+02  0.38009865320E+02  0.00000000000E+00 0. -1.
          2   -1    0    0  501    0  0.00000000000E+00 -0.00000000000E+00 -0.47066309367E+03  0.47066309367E+03  0.00000000000E+00 0.  1.
         25    2    1    2    0    0 -0.49596258103E+02 -0.41782106210E+02 -0.32294704317E+03  0.35234546084E+03  0.12508796054E+03 0.  0.
         23    2    1    2    0    0  0.49596258103E+02  0.41782106210E+02 -0.10970618519E+03  0.15632749815E+03  0.90538977196E+02 0.  0.
          5    1    3    3  502    0  0.22519079147E+02  0.37488564934E+01 -0.58244805565E+01  0.23928222340E+02  0.41800000000E+01 0.  1.
         -5    1    3    3    0  502 -0.72115337249E+02 -0.45530962704E+02 -0.31712256261E+03  0.32841723850E+03  0.41800000000E+01 0.  1.
        -11    1    4    4    0    0  0.51815666231E+02  0.90571234382E+01 -0.11170111429E+03  0.12346673108E+03  0.00000000000E+00 0.  1.
         11    1    4    4    0    0 -0.22194081280E+01  0.32724982772E+02  0.19949290992E+01  0.32860767063E+02  0.00000000000E+00 0. -1.
</event>
<event>
 8    1  0.6945825E-009  0.1196732E+03  0.7561462E-02  0.1243637E+00
         -1   -1    0    0    0  501 -0.00000000000E+00  0.00000000000E+00  0.84003663904E+02  0.84003663904E+02  0.00000000000E+00 0.  1.
          1   -1    0    0  501    0  0.00000000000E+00 -0.00000000000E+00 -0.23010765046E+03  0.23010765046E+03  0.00000000000E+00 0. -1.
         25    2    1    2    0    0  0.24324523403E+00 -0.89054840401E+02 -0.78250657359E+02  0.17234204696E+03  0.12509113481E+03 0.  0.
         23    2    1    2    0    0 -0.24324523403E+00  0.89054840401E+02 -0.67853329201E+02  0.14176926740E+03  0.86969115952E+02 0.  0.
          5    1    3    3  502    0  0.18459744941E+02  0.26735100723E+02 -0.33367693243E+02  0.46758990005E+02  0.41800000000E+01 0. -1.
         -5    1    3    3    0  502 -0.18216499707E+02 -0.11578994112E+03 -0.44882964116E+02  0.12558305696E+03  0.41800000000E+01 0. -1.
        -11    1    4    4    0    0 -0.34351987491E+01  0.46612721893E+02  0.14610451952E+02  0.48969498047E+02  0.00000000000E+00 0.  1.
         11    1    4    4    0    0  0.31919535151E+01  0.42442118507E+02 -0.82463781153E+02  0.92799769357E+02  0.00000000000E+00 0. -1.
</event>
<event>
 8    1  0.6945825E-009  0.1311027E+03  0.7561462E-02  0.1225829E+00
         -2   -1    0    0    0  501 -0.00000000000E+00  0.00000000000E+00  0.23867479860E+03  0.23867479860E+03  0.00000000000E+00 0.  1.
          2   -1    0    0  501    0  0.00000000000E+00 -0.00000000000E+00 -0.76431507023E+02  0.76431507023E+02  0.00000000000E+00 0. -1.
         25    2    1    2    0    0  0.52770117177E+02  0.52958633167E+02  0.10948845608E+03  0.18227575541E+03  0.12508967545E+03 0.  0.
         23    2    1    2    0    0 -0.52770117177E+02 -0.52958633167E+02  0.52754835500E+02  0.13283055021E+03  0.96289045626E+02 0.  0.
          5    1    3    3  502    0  0.29294756532E+01 -0.37648493752E+02  0.11357428459E+02  0.39654186294E+02  0.41800000000E+01 0.  1.
         -5    1    3    3    0  502  0.49840641524E+02  0.90607126919E+02  0.98131027622E+02  0.14262156912E+03  0.41800000000E+01 0.  1.
        -11    1    4    4    0    0  0.13346772638E+01  0.25432633611E+02  0.19008921288E+02  0.31779542230E+02  0.00000000000E+00 0. -1.
         11    1    4    4    0    0 -0.54104794441E+02 -0.78391266778E+02  0.33745914212E+02  0.10105100798E+03  0.00000000000E+00 0.  1.
</event>
<event>
 8    1  0.6945825E-009  0.1111447E+03  0.7561462E-02  0.1258465E+00
         -1   -1    0    0    0  501 -0.00000000000E+00  0.00000000000E+00  0.47178414867E+02  0.47178414867E+02  0.00000000000E+00 0.  1.
          1   -1    0    0  501    0  0.00000000000E+00 -0.00000000000E+00 -0.30779534751E+03  0.30779534751E+03  0.00000000000E+00 0. -1.
         25    2    1    2    0    0  0.16531158465E+02 -0.45956682966E+02 -0.16945958143E+03  0.21621598234E+03  0.12508998909E+03 0.  0.
         23    2    1    2    0    0 -0.16531158465E+02  0.45956682966E+02 -0.91157351216E+02  0.13875778004E+03  0.92513582420E+02 0.  0.
          5    1    3    3  502    0  0.38291286732E+02  0.26887030074E+02 -0.11000080320E+03  0.11961096994E+03  0.41800000000E+01 0.  1.
         -5    1    3    3    0  502 -0.21760128266E+02 -0.72843713039E+02 -0.59458778229E+02  0.96605012396E+02  0.41800000000E+01 0.  1.
        -11    1    4    4    0    0 -0.37545718418E+02 -0.10457198214E+02 -0.15192829249E+02  0.41831280480E+02  0.00000000000E+00 0.  1.
         11    1    4    4    0    0  0.21014559953E+02  0.56413881179E+02 -0.75964521968E+02  0.96926499563E+02  0.00000000000E+00 0. -1.
</event>
<event>
 8    1  0.6945825E-009  0.1190601E+03  0.7561462E-02  0.1244656E+00
         -1   -1    0    0    0  501 -0.00000000000E+00  0.00000000000E+00  0.26547366344E+02  0.26547366344E+02  0.00000000000E+00 0.  1.
          1   -1    0    0  501    0  0.00000000000E+00 -0.00000000000E+00 -0.67566298400E+03  0.67566298400E+03  0.00000000000E+00 0. -1.
         25    2    1    2    0    0  0.76525012141E+02  0.16298311033E+02 -0.34079186436E+03  0.37136146430E+03  0.12509408431E+03 0.  0.
         23    2    1    2    0    0 -0.76525012141E+02 -0.16298311033E+02 -0.30832375330E+03  0.33084888605E+03  0.90971072996E+02 0.  0.
          5    1    3    3  502    0  0.10634009806E+03 -0.87786449876E+01 -0.22353032354E+03  0.24772678297E+03  0.41800000000E+01 0.  1.
         -5    1    3    3    0  502 -0.29815085914E+02  0.25076956021E+02 -0.11726154082E+03  0.12363468133E+03  0.41800000000E+01 0.  1.
        -11    1    4    4    0    0 -0.74422723284E+02 -0.28559128485E+02 -0.30826926437E+03  0.31840902141E+03  0.00000000000E+00 0. -1.
         11    1    4    4    0    0 -0.21022888564E+01  0.12260817452E+02 -0.54488929193E-01  0.12439864632E+02  0.00000000000E+00 0.  1.
</event>
<event>
 8    1  0.6945825E-009  0.1183048E+03  0.7561462E-02  0.1245920E+00
          1   -1    0    0  501    0  0.00000000000E+00  0.00000000000E+00  0.11377599182E+04  0.11377599182E+04  0.00000000000E+00 0. -1.
         -1   -1    0    0    0  501 -0.00000000000E+00 -0.00000000000E+00 -0.19233657426E+02  0.19233657426E+02  0.00000000000E+00 0.  1.
         25    2    1    2    0    0  0.44059244935E+02 -0.22957036966E+02  0.94696549071E+03  0.95648303572E+03  0.12509162408E+03 0.  0.
         23    2    1    2    0    0 -0.44059244935E+02  0.22957036966E+02  0.17156077010E+03  0.20051053995E+03  0.91121546191E+02 0.  0.
          5    1    3    3  502    0 -0.61104201322E+01  0.46518095580E+02  0.41154185388E+03  0.41422872950E+03  0.41800000000E+01 0.  1.
         -5    1    3    3    0  502  0.50169665068E+02 -0.69475132546E+02  0.53542363683E+03  0.54225430622E+03  0.41800000000E+01 0.  1.
        -11    1    4    4    0    0  0.71064524964E+01  0.46745749605E+02  0.82074739660E+02  0.94720270604E+02  0.00000000000E+00 0.  1.
         11    1    4    4    0    0 -0.51165697432E+02 -0.23788712639E+02  0.89486030445E+02  0.10579026934E+03  0.00000000000E+00 0. -1.
</event>
<event>
 8    1  0.6945825E-009  0.1336585E+03  0.7561462E-02  0.1222126E+00
         -2   -1    0    0    0  501 -0.00000000000E+00  0.00000000000E+00  0.12622249134E+02  0.12622249134E+02  0.00000000000E+00 0. -1.
          2   -1    0    0  501    0  0.00000000000E+00 -0.00000000000E+00 -0.23300853793E+04  0.23300853793E+04  0.00000000000E+00 0.  1.
         25    2    1    2    0    0 -0.10484980943E+03 -0.29265847318E+02 -0.17545157055E+04  0.17623345162E+04  0.12509042339E+03 0.  0.
         23    2    1    2    0    0  0.10484980943E+03  0.29265847318E+02 -0.56294742469E+03  0.58037311219E+03  0.89850843260E+02 0.  0.
          5    1    3    3  502    0 -0.69217023130E+02 -0.49383666014E+02 -0.50374838305E+03  0.51089103397E+03  0.41800000000E+01 0.  1.
         -5    1    3    3    0  502 -0.35632786296E+02  0.20117818696E+02 -0.12507673224E+04  0.12514434823E+04  0.41800000000E+01 0.  1.
        -11    1    4    4    0    0  0.97795977858E+02 -0.12594177992E+02 -0.38357900999E+03  0.39604990028E+03  0.00000000000E+00 0.  1.
         11    1    4    4    0    0  0.70538315680E+01  0.41860025309E+02 -0.17936841470E+03  0.18432321191E+03  0.00000000000E+00 0. -1.
</event>
<event>
 8    1  0.6945825E-009  0.1265881E+03  0.7561462E-02  0.1232608E+00
          4   -1    0    0  501    0  0.00000000000E+00  0.00000000000E+00  0.22654157908E+03  0.22654157908E+03  0.00000000000E+00 0. -1.
         -4   -1    0    0    0  501 -0.00000000000E+00 -0.00000000000E+00 -0.10096078706E+03  0.10096078706E+03  0.00000000000E+00 0.  1.
         25    2    1    2    0    0  0.63489423093E+02 -0.88110353753E+02  0.85936479353E+02  0.18661643511E+03  0.12508506740E+03 0.  0.
         23    2    1    2    0    0 -0.63489423093E+02  0.88110353753E+02  0.39644312662E+02  0.14088593103E+03  0.80516040345E+02 0.  0.
          5    1    3    3  502    0  0.84345840848E+02 -0.77741546595E+02  0.19936981011E+02  0.11650289502E+03  0.41800000000E+01 0.  1.
         -5    1    3    3    0  502 -0.20856417755E+02 -0.10368807159E+02  0.65999498341E+02  0.70113540096E+02  0.41800000000E+01 0.  1.
        -11    1    4    4    0    0 -0.38350888060E+02  0.22493333663E+02 -0.19967710084E+02  0.48738589642E+02  0.00000000000E+00 0.  1.
         11    1    4    4    0    0 -0.25138535033E+02  0.65617020091E+02  0.59612022746E+02  0.92147341389E+02  0.00000000000E+00 0. -1.
</event>
<event>
 8    1  0.6945825E-009  0.9808844E+02  0.7561462E-02  0.1284368E+00
          1   -1    0    0  501    0  0.00000000000E+00  0.00000000000E+00  0.59198605119E+02  0.59198605119E+02  0.00000000000E+00 0. -1.
         -1   -1    0    0    0  501 -0.00000000000E+00 -0.00000000000E+00 -0.23372893499E+03  0.23372893499E+03  0.00000000000E+00 0.  1.
         25    2    1    2    0    0  0.32272198382E+02 -0.23757548741E+02 -0.66510533267E+02  0.14722950823E+03  0.12508781375E+03 0.  0.
         23    2    1    2    0    0 -0.32272198382E+02  0.23757548741E+02 -0.10801979661E+03  0.14569803188E+03  0.89183653903E+02 0.  0.
          5    1    3    3  502    0  0.76645043527E+02 -0.36397466895E+02 -0.45358133819E+02  0.96301978158E+02  0.41800000000E+01 0.  1.
         -5    1    3    3    0  502 -0.44372845145E+02  0.12639918154E+02 -0.21152399448E+02  0.50927530076E+02  0.41800000000E+01 0.  1.
        -11    1    4    4    0    0 -0.47796619207E+01 -0.15922840074E+02  0.91478485551E+01  0.18975382401E+02  0.00000000000E+00 0. -1.
         11    1    4    4    0    0 -0.27492536462E+02  0.39680388815E+02 -0.11716764516E+03  0.12672264948E+03  0.00000000000E+00 0.  1.
</event>
<event>
 8    1  0.6945825E-009  0.7097453E+02  0.7561462E-02  0.1356810E+00
         -3   -1    0    0    0  501 -0.00000000000E+00  0.00000000000E+00  0.46023098187E+02  0.46023098187E+02  0.00000000000E+00 0.  1.
          3   -1    0    0  501    0  0.00000000000E+00 -0.00000000000E+00 -0.31884727069E+03  0.31884727069E+03  0.00000000000E+00 0. -1.
         25    2    1    2    0    0  0.13058357863E+02  0.37721692674E+02 -0.98164646558E+02  0.16394301471E+03  0.12509023715E+03 0.  0.
         23    2    1    2    0    0 -0.13058357863E+02 -0.37721692674E+02 -0.17465952595E+03  0.20092735417E+03  0.90952761591E+02 0.  0.
          5    1    3    3  502    0 -0.22491331355E+02  0.53630188901E+02 -0.10872663597E+03  0.12337346115E+03  0.41800000000E+01 0.  1.
         -5    1    3    3    0  502  0.35549689218E+02 -0.15908496227E+02  0.10561989408E+02  0.40569553559E+02  0.41800000000E+01 0.  1.
        -11    1    4    4    0    0 -0.16651738544E+01 -0.31398773300E+02 -0.18285202781E+03  0.18553576432E+03  0.00000000000E+00 0. -1.
         11    1    4    4    0    0 -0.11393184009E+02 -0.63229193737E+01  0.81925018618E+01  0.15391589847E+02  0.00000000000E+00 0.  1.
</event>
<event>
 8    1  0.6945825E-009  0.8627907E+02  0.7561462E-02  0.1312121E+00
         -2   -1    0    0    0  501 -0.00000000000E+00  0.00000000000E+00  0.44143060662E+02  0.44143060662E+02  0.00000000000E+00 0.  1.
          2   -1    0    0  501    0  0.00000000000E+00 -0.00000000000E+00 -0.48468038350E+03  0.48468038350E+03  0.00000000000E+00 0. -1.
         25    2    1    2    0    0  0.51748684957E+02 -0.51084214930E+02 -0.35588087282E+03  0.38417261338E+03  0.12509947169E+03 0.  0.
         23    2    1    2    0    0 -0.51748684957E+02  0.51084214930E+02 -0.84656450013E+02  0.14465083078E+03  0.92030565074E+02 0.  0.
          5    1    3    3  502    0  0.12360135006E+02 -0.17174671213E+02 -0.32035078018E+03  0.32107606113E+03  0.41800000000E+01 0. -1.
         -5    1    3    3    0  502  0.39388549951E+02 -0.33909543717E+02 -0.35530092647E+02  0.63096552250E+02  0.41800000000E+01 0. -1.
        -11    1    4    4    0    0  0.82154583965E+01  0.36122277078E+02  0.32570216202E+01  0.37187643752E+02  0.00000000000E+00 0.  1.
         11    1    4    4    0    0 -0.59964143354E+02  0.14961937852E+02 -0.87913471633E+02  0.10746318703E+03  0.00000000000E+00 0. -1.
</event>
<event>
 8    1  0.6945825E-009  0.1726404E+03  0.7561462E-02  0.1175122E+00
          2   -1    0    0  501    0  0.00000000000E+00  0.00000000000E+00  0.35512965926E+03  0.35512965926E+03  0.00000000000E+00 0. -1.
         -2   -1    0    0    0  501 -0.00000000000E+00 -0.00000000000E+00 -0.93837537835E+02  0.93837537835E+02  0.00000000000E+00 0.  1.
         25    2    1    2    0    0 -0.10834397068E+03  0.87926161538E+02  0.18540266098E+03  0.26361380918E+03  0.12509463547E+03 0.  0.
         23    2    1    2    0    0  0.10834397068E+03 -0.87926161538E+02  0.75889460447E+02  0.18535338792E+03  0.95536602100E+02 0.  0.
          5    1    3    3  502    0  0.24714559884E+02  0.22561349653E+02  0.12858218451E+02  0.36091967946E+02  0.41800000000E+01 0.  1.
         -5    1    3    3    0  502 -0.13305853057E+03  0.65364811885E+02  0.17254444253E+03  0.22752184123E+03  0.41800000000E+01 0.  1.
        -11    1    4    4    0    0  0.15094055260E+02  0.17095308510E+02 -0.49042073149E+01  0.23326622701E+02  0.00000000000E+00 0.  1.
         11    1    4    4    0    0  0.93249915422E+02 -0.10502147005E+03  0.80793667762E+02  0.16202676522E+03  0.00000000000E+00 0. -1.
</event>
<event>
 8    1  0.6945825E-009  0.9459771E+02  0.7561462E-02  0.1292085E+00
         -1   -1    0    0    0  501 -0.00000000000E+00  0.00000000000E+00  0.11289985364E+03  0.11289985364E+03  0.00000000000E+00 0.  1.
          1   -1    0    0  501    0  0.00000000000E+00 -0.00000000000E+00 -0.11614263092E+03  0.11614263092E+03  0.00000000000E+00 0. -1.
         25    2    1    2    0    0  0.28012527745E+02  0.34681050693E+02  0.13699796031E+02  0.13350294967E+03  0.12509147121E+03 0.  0.
         23    2    1    2    0    0 -0.28012527745E+02 -0.34681050693E+02 -0.16942573303E+02  0.95539534892E+02  0.82784509114E+02 0.  0.
          5    1    3    3  502    0  0.66046656033E+01 -0.41651119356E+02 -0.20483319435E+02  0.47068844541E+02  0.41800000000E+01 0.  1.
         -5    1    3    3    0  502  0.21407862142E+02  0.76332170049E+02  0.34183115466E+02  0.86434105126E+02  0.41800000000E+01 0.  1.
        -11    1    4    4    0    0 -0.38028933167E+00  0.12632506510E+02  0.24011055422E+02  0.27134030722E+02  0.00000000000E+00 0.  1.
         11    1    4    4    0    0 -0.27632238414E+02 -0.47313557203E+02 -0.40953628726E+02  0.68405504170E+02  0.00000000000E+00 0. -1.
</event>
<event>
 8    1  0.6945825E-009  0.1135230E+03  0.7561462E-02  0.1254182E+00
         -2   -1    0    0    0  501 -0.00000000000E+00  0.00000000000E+00  0.37088596286E+02  0.37088596286E+02  0.00000000000E+00 0.  1.
          2   -1    0    0  501    0  0.00000000000E+00 -0.00000000000E+00 -0.38600575321E+03  0.38600575321E+03  0.00000000000E+00 0. -1.
         25    2    1    2    0    0 -0.18223126391E+02 -0.42335647108E+02 -0.20503398814E+03  0.24456259767E+03  0.12509012165E+03 0.  0.
         23    2    1    2    0    0  0.18223126391E+02  0.42335647108E+02 -0.14388316878E+03  0.17853175182E+03  0.95114829543E+02 0.  0.
          5    1    3    3  502    0  0.25145253521E+02 -0.74323051714E+02 -0.10908226754E+03  0.13443442000E+03  0.41800000000E+01 0.  1.
         -5    1    3    3    0  502 -0.43368379912E+02  0.31987404605E+02 -0.95951720605E+02  0.11012817767E+03  0.41800000000E+01 0.  1.
        -11    1    4    4    0    0  0.26101076592E+02  0.65204599165E+02 -0.63836667381E+02  0.94910621396E+02  0.00000000000E+00 0.  1.
         11    1    4    4    0    0 -0.78779502003E+01 -0.22868952057E+02 -0.80046501398E+02  0.83621130425E+02  0.00000000000E+00 0. -1.
</event>
<event>
 8    1  0.6945825E-009  0.7640602E+02  0.7561462E-02  0.1339572E+00
          2   -1    0    0  501    0  0.00000000000E+00  0.00000000000E+00  0.16570474946E+03  0.16570474946E+03  0.00000000000E+00 0.  1.
         -2   -1    0    0    0  501 -0.00000000000E+00 -0.00000000000E+00 -0.76520923981E+02  0.76520923981E+02  0.00000000000E+00 0. -1.
         25    2    1    2    0    0  0.92151542559E+01 -0.25341745773E+02  0.54692115251E+02  0.13914806458E+03  0.12507531035E+03 0.  0.
         23    2    1    2    0    0 -0.92151542559E+01  0.25341745773E+02  0.34491710225E+02  0.10307760886E+03  0.93317695143E+02 0.  0.
          5    1    3    3  502    0  0.55495053237E+02 -0.16298728184E+02  0.68581770602E+02  0.89812477602E+02  0.41800000000E+01 0. -1.
         -5    1    3    3    0  502 -0.46279898981E+02 -0.90430175888E+01 -0.13889655351E+02  0.49335586979E+02  0.41800000000E+01 0. -1.
        -11    1    4    4    0    0 -0.21938186735E+02  0.26846876063E+02  0.62951262601E+02  0.71867240483E+02  0.00000000000E+00 0.  1.
         11    1    4    4    0    0  0.12723032480E+02 -0.15051302901E+01 -0.28459552376E+02  0.31210368375E+02  0.00000000000E+00 0. -1.
</event>
<event>
 8    1  0.6945825E-009  0.1731194E+03  0.7561462E-02  0.1174633E+00
         -1   -1    0    0    0  501 -0.00000000000E+00  0.00000000000E+00  0.78709754018E+02  0.78709754018E+02  0.00000000000E+00 0.  1.
          1   -1    0    0  501    0  0.00000000000E+00 -0.00000000000E+00 -0.48011920012E+03  0.48011920012E+03  0.00000000000E+00 0. -1.
         25    2    1    2    0    0 -0.48138089871E+01 -0.14231909727E+03 -0.31891612857E+03  0.37098777469E+03  0.12508610516E+03 0.  0.
         23    2    1    2    0    0  0.48138089871E+01  0.14231909727E+03 -0.82493317534E+02  0.18784117945E+03  0.90560825173E+02 0.  0.
          5    1    3    3  502    0 -0.55872985466E+02 -0.24784534368E+02 -0.98892493688E+02  0.11633254642E+03  0.41800000000E+01 0.  1.
         -5    1    3    3    0  502  0.51059176479E+02 -0.11753456290E+03 -0.22002363488E+03  0.25465522827E+03  0.41800000000E+01 0.  1.
        -11    1    4    4    0    0 -0.28323815991E+02  0.93950698502E+02 -0.84030185777E+02  0.12918995481E+03  0.00000000000E+00 0. -1.
         11    1    4    4    0    0  0.33137624978E+02  0.48368398763E+02  0.15368682433E+01  0.58651224643E+02  0.00000000000E+00 0.  1.
</event>
<event>
 8    1  0.6945825E-009  0.1300579E+03  0.7561462E-02  0.1227370E+00
         -3   -1    0    0    0  501 -0.00000000000E+00  0.00000000000E+00  0.15101329725E+04  0.15101329725E+04  0.00000000000E+00 0.  1.
          3   -1    0    0  501    0  0.00000000000E+00 -0.00000000000E+00 -0.12767849184E+02  0.12767849184E+02  0.00000000000E+00 0. -1.
         25    2    1    2    0    0 -0.29904548189E+02  0.79891912521E+02  0.89411357268E+03  0.90684195131E+03  0.12508494759E+03 0.  0.
         23    2    1    2    0    0  0.29904548189E+02 -0.79891912521E+02  0.60325155067E+03  0.61605887041E+03  0.91318665866E+02 0.  0.
          5    1    3    3  502    0 -0.75063890177E+02  0.48244144283E+02  0.41236254516E+03  0.42192703886E+03  0.41800000000E+01 0. -1.
         -5    1    3    3    0  502  0.45159341988E+02  0.31647768238E+02  0.48175102752E+03  0.48491491246E+03  0.41800000000E+01 0. -1.
        -11    1    4    4    0    0  0.12509552218E+02 -0.92915764808E+02  0.55845326374E+03  0.56626837809E+03  0.00000000000E+00 0.  1.
         11    1    4    4    0    0  0.17394995971E+02  0.13023852287E+02  0.44798286930E+02  0.49790492316E+02  0.00000000000E+00 0. -1.
</event>
<event>
 8    1  0.6945825E-009  0.1384366E+03  0.7561462E-02  0.1215448E+00
          2   -1    0    0  501    0  0.00000000000E+00  0.00000000000E+00  0.95075642229E+02  0.95075642229E+02  0.00000000000E+00 0. -1.
         -2   -1    0    0    0  501 -0.00000000000E+00 -0.00000000000E+00 -0.25067645289E+03  0.25067645289E+03  0.00000000000E+00 0.  1.
         25    2    1    2    0    0 -0.46193224294E+02  0.87684037376E+02 -0.31812215745E+02  0.16273203053E+03  0.12508953717E+03 0.  0.
         23    2    1    2    0    0  0.46193224294E+02 -0.87684037376E+02 -0.12378859492E+03  0.18302006459E+03  0.91380651280E+02 0.  0.
          5    1    3    3  502    0 -0.50060071652E+01  0.10144948603E+03  0.10194468165E+02  0.10216877167E+03  0.41800000000E+01 0.  1.
         -5    1    3    3    0  502 -0.41187217129E+02 -0.13765448652E+02 -0.42006683910E+02  0.60563258866E+02  0.41800000000E+01 0.  1.
        -11    1    4    4    0    0  0.59618891032E+02 -0.20454637056E+02 -0.39555040855E+02  0.74413746055E+02  0.00000000000E+00 0. -1.
         11    1    4    4    0    0 -0.13425666738E+02 -0.67229400320E+02 -0.84233554065E+02  0.10860631853E+03  0.00000000000E+00 0.  1.
</event>
<event>
 8    1  0.6945825E-009  0.1475599E+03  0.7561462E-02  0.1203504E+00
         -2   -1    0    0    0  501 -0.00000000000E+00  0.00000000000E+00  0.24867254759E+03  0.24867254759E+03  0.00000000000E+00 0.  1.
          2   -1    0    0  501    0  0.00000000000E+00 -0.00000000000E+00 -0.95991546919E+02  0.95991546919E+02  0.00000000000E+00 0. -1.
         25    2    1    2    0    0  0.68004148044E+01  0.10193594218E+03  0.43176939113E+02  0.16716974423E+03  0.12507714966E+03 0.  0.
         23    2    1    2    0    0 -0.68004148044E+01 -0.10193594218E+03  0.10950406156E+03  0.17749435028E+03  0.95267638438E+02 0.  0.
          5    1    3    3  502    0  0.49276779640E+02  0.40078366773E+01  0.33586580940E+02  0.59914894524E+02  0.41800000000E+01 0. -1.
         -5    1    3    3    0  502 -0.42476364836E+02  0.97928105499E+02  0.95903581729E+01  0.10725484971E+03  0.41800000000E+01 0. -1.
        -11    1    4    4    0    0  0.15692415599E+02 -0.11266882234E+03  0.97542753892E+02  0.14985027284E+03  0.00000000000E+00 0.  1.
         11    1    4    4    0    0 -0.22492830403E+02  0.10732880161E+02  0.11961307669E+02  0.27644077435E+02  0.00000000000E+00 0. -1.
</event>
<event>
 8    1  0.6945825E-009  0.1299305E+03  0.7561462E-02  0.1227559E+00
         -2   -1    0    0    0  501 -0.00000000000E+00  0.00000000000E+00  0.33720504763E+03  0.33720504763E+03  0.00000000000E+00 0.  1.
          2   -1    0    0  501    0  0.00000000000E+00 -0.00000000000E+00 -0.70339413097E+02  0.70339413097E+02  0.00000000000E+00 0. -1.
         25    2    1    2    0    0 -0.85880221036E+02 -0.13921000532E+02  0.57539448913E+02  0.16287272006E+03  0.12509008009E+03 0.  0.
         23    2    1    2    0    0  0.85880221036E+02  0.13921000532E+02  0.20932618562E+03  0.24467174067E+03  0.92073894648E+02 0.  0.
          5    1    3    3  502    0 -0.71495305954E+02 -0.56860341259E+02  0.70633862913E+02  0.11554779172E+03  0.41800000000E+01 0.  1.
         -5    1    3    3    0  502 -0.14384915082E+02  0.42939340727E+02 -0.13094414000E+02  0.47324928336E+02  0.41800000000E+01 0.  1.
        -11    1    4    4    0    0  0.37226536731E+02  0.50022454328E+02  0.13557503670E+03  0.14922684594E+03  0.00000000000E+00 0.  1.
         11    1    4    4    0    0  0.48653684305E+02 -0.36101453796E+02  0.73751148927E+02  0.95444894734E+02  0.00000000000E+00 0. -1.
</event>
<event>
 8    1  0.6945825E-009  0.2660106E+03  0.7561462E-02  0.1103585E+00
         -1   -1    0    0    0  501 -0.00000000000E+00  0.00000000000E+00  0.11655782298E+04  0.11655782298E+04  0.00000000000E+00 0.  1.
          1   -1    0    0  501    0  0.00000000000E+00 -0.00000000000E+00 -0.22129840380E+03  0.22129840380E+03  0.00000000000E+00 0. -1.
         25    2    1    2    0    0  0.24622100680E+03  0.52878806511E+02 -0.10788363507E+03  0.30117709170E+03  0.12509120465E+03 0.  0.
         23    2    1    2    0    0 -0.24622100680E+03 -0.52878806511E+02  0.10521634611E+04  0.10856995419E+04  0.90964796041E+02 0.  0.
          5    1    3    3  502    0  0.33586368289E+02  0.41104326065E+02  0.14938489368E+02  0.55301361834E+02  0.41800000000E+01 0. -1.
         -5    1    3    3    0  502  0.21263463851E+03  0.11774480446E+02 -0.12282212444E+03  0.24587572987E+03  0.41800000000E+01 0. -1.
        -11    1    4    4    0    0 -0.61952578996E+01 -0.23090568272E+02  0.62689727651E+02  0.67093647363E+02  0.00000000000E+00 0. -1.
         11    1    4    4    0    0 -0.24002574890E+03 -0.29788238238E+02  0.98947373346E+03  0.10186058946E+04  0.00000000000E+00 0.  1.
</event>
<event>
 8    1  0.6945825E-009  0.6697792E+02  0.7561462E-02  0.1370682E+00
         -3   -1    0    0    0  501 -0.00000000000E+00  0.00000000000E+00  0.18278643420E+03  0.18278643420E+03  0.00000000000E+00 0.  1.
          3   -1    0    0  501    0  0.00000000000E+00 -0.00000000000E+00 -0.83412367049E+02  0.83412367049E+02  0.00000000000E+00 0. -1.
         25    2    1    2    0    0 -0.89406687595E+01  0.27301318268E+02  0.95840176652E+00  0.12834347935E+03  0.12508330273E+03 0.  0.
         23    2    1    2    0    0  0.89406687595E+01 -0.27301318268E+02  0.98415665386E+02  0.13785532190E+03  0.92158282562E+02 0.  0.
          5    1    3    3  502    0 -0.29365238355E+02  0.78498378110E+01  0.57412814816E+02  0.65097164933E+02  0.41800000000E+01 0.  1.
         -5    1    3    3    0  502  0.20424569595E+02  0.19451480457E+02 -0.56454413049E+02  0.63246314421E+02  0.41800000000E+01 0.  1.
        -11    1    4    4    0    0 -0.35539663527E+01 -0.49317709222E+02  0.10095508446E+03  0.11241350540E+03  0.00000000000E+00 0.  1.
         11    1    4    4    0    0  0.12494635112E+02  0.22016390954E+02 -0.25394190700E+01  0.25441816492E+02  0.00000000000E+00 0. -1.
</event>
<event>
 8    1  0.6945825E-009  0.7449832E+02  0.7561462E-02  0.1345432E+00
          2   -1    0    0  501    0  0.00000000000E+00  0.00000000000E+00  0.18791677284E+02  0.18791677284E+02  0.00000000000E+00 0.  1.
         -2   -1    0    0    0  501 -0.00000000000E+00 -0.00000000000E+00 -0.74116162086E+03  0.74116162086E+03  0.00000000000E+00 0. -1.
         25    2    1    2    0    0  0.31671821717E+02 -0.31800942882E+02 -0.42340105317E+03  0.44376816097E+03  0.12508926656E+03 0.  0.
         23    2    1    2    0    0 -0.31671821717E+02  0.31800942882E+02 -0.29896889041E+03  0.31618513717E+03  0.92607987120E+02 0.  0.
          5    1    3    3  502    0  0.12379325724E+02  0.20207863180E+01 -0.39541265999E+03  0.39563363780E+03  0.41800000000E+01 0. -1.
         -5    1    3    3    0  502  0.19292495994E+02 -0.33821729200E+02 -0.27988393181E+02  0.48134523167E+02  0.41800000000E+01 0. -1.
        -11    1    4    4    0    0 -0.53410040363E+02 -0.52392377404E+01 -0.10994702463E+03  0.12234553628E+03  0.00000000000E+00 0.  1.
         11    1    4    4    0    0  0.21738218646E+02  0.37040180622E+02 -0.18902186578E+03  0.19383960089E+03  0.00000000000E+00 0. -1.
</event>
<event>
 8    1  0.6945825E-009  0.1429812E+03  0.7561462E-02  0.1209373E+00
          1   -1    0    0  501    0  0.00000000000E+00  0.00000000000E+00  0.15897249943E+03  0.15897249943E+03  0.00000000000E+00 0. -1.
         -1   -1    0    0    0  501 -0.00000000000E+00 -0.00000000000E+00 -0.13673655974E+03  0.13673655974E+03  0.00000000000E+00 0.  1.
         25    2    1    2    0    0 -0.81360946662E+02 -0.53425135787E+02  0.36478704545E+02  0.16263684662E+03  0.12508476812E+03 0.  0.
         23    2    1    2    0    0  0.81360946662E+02  0.53425135787E+02 -0.14242764857E+02  0.13307221255E+03  0.89618684584E+02 0.  0.
          5    1    3    3  502    0 -0.56951447307E+02  0.31489705550E+02 -0.40588873461E+01  0.65337706361E+02  0.41800000000E+01 0. -1.
         -5    1    3    3    0  502 -0.24409499355E+02 -0.84914841337E+02  0.40537591891E+02  0.97299140255E+02  0.41800000000E+01 0. -1.
        -11    1    4    4    0    0 -0.18751426989E+02 -0.15025079894E+00 -0.14698449126E+01  0.18809546339E+02  0.00000000000E+00 0. -1.
         11    1    4    4    0    0  0.10011237365E+03  0.53575386586E+02 -0.12772919945E+02  0.11426266621E+03  0.00000000000E+00 0.  1.
</event>
<event>
 8    1  0.6945825E-009  0.1236075E+03  0.7561462E-02  0.1237262E+00
          1   -1    0    0  501    0  0.00000000000E+00  0.00000000000E+00  0.30941354017E+02  0.30941354017E+02  0.00000000000E+00 0. -1.
         -1   -1    0    0    0  501 -0.00000000000E+00 -0.00000000000E+00 -0.68711627312E+03  0.68711627312E+03  0.00000000000E+00 0.  1.
         25    2    1    2    0    0 -0.51206271993E+02 -0.71530242511E+02 -0.45972095870E+03  0.48448873494E+03  0.12508923429E+03 0.  0.
         23    2    1    2    0    0  0.51206271993E+02  0.71530242511E+02 -0.19645396041E+03  0.23356889220E+03  0.90673099414E+02 0.  0.
          5    1    3    3  502    0 -0.29503281359E+02 -0.10561657292E+03 -0.29263024382E+03  0.31253037626E+03  0.41800000000E+01 0.  1.
         -5    1    3    3    0  502 -0.21702990634E+02  0.34086330406E+02 -0.16709071487E+03  0.17195835868E+03  0.41800000000E+01 0.  1.
        -11    1    4    4    0    0  0.29344469390E+02  0.91305551630E+01 -0.14911954332E+03  0.15225341744E+03  0.00000000000E+00 0.  1.
         11    1    4    4    0    0  0.21861802603E+02  0.62399687348E+02 -0.47334417084E+02  0.81315474756E+02  0.00000000000E+00 0. -1.
</event>
<event>
 8    1  0.6945825E-009  0.1287356E+03  0.7561462E-02  0.1229344E+00
         -3   -1    0    0    0  501 -0.00000000000E+00  0.00000000000E+00  0.58772307569E+03  0.58772307569E+03  0.00000000000E+00 0.  1.
          3   -1    0    0  501    0  0.00000000000E+00 -0.00000000000E+00 -0.55006915878E+02  0.55006915878E+02  0.00000000000E+00 0. -1.
         25    2    1    2    0    0 -0.10503817077E+03 -0.61690822764E+01  0.10836363054E+03  0.19611462789E+03  0.12508875230E+03 0.  0.
         23    2    1    2    0    0  0.10503817077E+03  0.61690822764E+01  0.42435252928E+03  0.44661536368E+03  0.91209314664E+02 0.  0.
          5    1    3    3  502    0 -0.21642438440E+02  0.31134933883E+02 -0.16315173303E+02  0.41490197992E+02  0.41800000000E+01 0. -1.
         -5    1    3    3    0  502 -0.83395732331E+02 -0.37304016160E+02  0.12467880384E+03  0.15462442989E+03  0.41800000000E+01 0. -1.
        -11    1    4    4    0    0  0.69920454210E+02  0.38771611454E+02  0.17095143851E+03  0.18872334805E+03  0.00000000000E+00 0. -1.
         11    1    4    4    0    0  0.35117716561E+02 -0.32602529177E+02  0.25340109077E+03  0.25789201564E+03  0.00000000000E+00 0.  1.
</event>
<event>
 8    1  0.6945825E-009  0.1054275E+03  0.7561462E-02  0.1269280E+00
          1   -1    0    0  501    0  0.00000000000E+00  0.00000000000E+00  0.24464973096E+03  0.24464973096E+03  0.00000000000E+00 0. -1.
         -1   -1    0    0    0  501 -0.00000000000E+00 -0.00000000000E+00 -0.58461910330E+02  0.58461910330E+02  0.00000000000E+00 0.  1.
         25    2    1    2    0    0 -0.29755375659E+02  0.12135991711E+02  0.62228330068E+02  0.14336579480E+03  0.12509484954E+03 0.  0.
         23    2    1    2    0    0  0.29755375659E+02 -0.12135991711E+02  0.12395949057E+03  0.15974584649E+03  0.95499295782E+02 0.  0.
          5    1    3    3  502    0 -0.10542341719E+02  0.61878477314E+02  0.21759018583E+01  0.62946754265E+02  0.41800000000E+01 0.  1.
         -5    1    3    3    0  502 -0.19213033940E+02 -0.49742485602E+02  0.60052428209E+02  0.80419040537E+02  0.41800000000E+01 0.  1.
        -11    1    4    4    0    0  0.31931374076E+02  0.34939428185E+02  0.34293542271E+02  0.58450178219E+02  0.00000000000E+00 0.  1.
         11    1    4    4    0    0 -0.21759984169E+01 -0.47075419896E+02  0.89665948294E+02  0.10129566827E+03  0.00000000000E+00 0. -1.
</event>
<event>
 8    1  0.6945825E-009  0.8649276E+02  0.7561462E-02  0.1311574E+00
          2   -1    0    0  501    0  0.00000000000E+00  0.00000000000E+00  0.20659147780E+03  0.20659147780E+03  0.00000000000E+00 0. -1.
         -2   -1    0    0    0  501 -0.00000000000E+00 -0.00000000000E+00 -0.93778568920E+02  0.93778568920E+02  0.00000000000E+00 0.  1.
         25    2    1    2    0    0  0.66470088109E+02 -0.16167207273E+02  0.11929462195E+03  0.18590111321E+03  0.12509342853E+03 0.  0.
         23    2    1    2    0    0 -0.66470088109E+02  0.16167207273E+02 -0.64817130721E+01  0.11446893351E+03  0.91550384653E+02 0.  0.
          5    1    3    3  502    0  0.11592754264E+02 -0.27348961574E+02 -0.19768909829E+02  0.35925476287E+02  0.41800000000E+01 0. -1.
         -5    1    3    3    0  502  0.54877333845E+02  0.11181754301E+02  0.13906353178E+03  0.14997563692E+03  0.41800000000E+01 0. -1.
        -11    1    4    4    0    0 -0.59444573746E+02  0.33423023659E+02 -0.37841677144E+02  0.77991976430E+02  0.00000000000E+00 0.  1.
         11    1    4    4    0    0 -0.70255143624E+01 -0.17255816386E+02  0.31359964071E+02  0.36476957079E+02  0.00000000000E+00 0. -1.
</event>
<event>
 8    1  0.6945825E-009  0.1141670E+03  0.7561462E-02  0.1253042E+00
          2   -1    0    0  501    0  0.00000000000E+00  0.00000000000E+00  0.20258933417E+04  0.20258933417E+04  0.00000000000E+00 0. -1.
         -2   -1    0    0    0  501 -0.00000000000E+00 -0.00000000000E+00 -0.14744932363E+03  0.14744932363E+03  0.00000000000E+00 0.  1.
         25    2    1    2    0    0  0.83526199380E+01 -0.74269093197E+02  0.19980463804E+04  0.20033528770E+04  0.12509095455E+03 0.  0.
         23    2    1    2    0    0 -0.83526199380E+01  0.74269093197E+02 -0.11960236236E+03  0.16998978834E+03  0.94900677513E+02 0.  0.
          5    1    3    3  502    0  0.47513410120E+01 -0.96172120890E+02  0.19108310873E+04  0.19132601936E+04  0.41800000000E+01 0. -1.
         -5    1    3    3    0  502  0.36012789260E+01  0.21903027693E+02  0.87215293182E+02  0.90092683370E+02  0.41800000000E+01 0. -1.
        -11    1    4    4    0    0  0.35933345514E+02  0.31126962191E+02 -0.89233869784E+02  0.10110774754E+03  0.00000000000E+00 0. -1.
         11    1    4    4    0    0 -0.44285965452E+02  0.43142131005E+02 -0.30368492580E+02  0.68882040804E+02  0.00000000000E+00 0.  1.
</event>
<event>
 8    1  0.6945825E-009  0.9718319E+02  0.7561462E-02  0.1286333E+00
          1   -1    0    0  501    0  0.00000000000E+00  0.00000000000E+00  0.20877333812E+03  0.20877333812E+03  0.00000000000E+00 0. -1.
         -1   -1    0    0    0  501 -0.00000000000E+00 -0.00000000000E+00 -0.65796206488E+02  0.65796206488E+02  0.00000000000E+00 0.  1.
         25    2    1    2    0    0 -0.39100972020E+02  0.18969211336E+02  0.77501678094E+02  0.15343835451E+03  0.12509237202E+03 0.  0.
         23    2    1    2    0    0  0.39100972020E+02 -0.18969211336E+02  0.65475453540E+02  0.12113119010E+03  0.92179244989E+02 0.  0.
          5    1    3    3  502    0 -0.62235669223E+02 -0.33512535892E+02  0.61394925439E+02  0.93718609973E+02  0.41800000000E+01 0.  1.
         -5    1    3    3    0  502  0.23134697204E+02  0.52481747228E+02  0.16106752655E+02  0.59719744540E+02  0.41800000000E+01 0.  1.
        -11    1    4    4    0    0  0.37693352302E+02 -0.34115576953E+02 -0.30564552230E+01  0.50931358877E+02  0.00000000000E+00 0.  1.
         11    1    4    4    0    0  0.14076197175E+01  0.15146365617E+02  0.68531908763E+02  0.70199831221E+02  0.00000000000E+00 0. -1.
</event>
<event>
 8    1  0.6945825E-009  0.1447622E+03  0.7561462E-02  0.1207061E+00
         -1   -1    0    0    0  501 -0.00000000000E+00  0.00000000000E+00  0.14478091671E+03  0.14478091671E+03  0.00000000000E+00 0.  1.
          1   -1    0    0  501    0  0.00000000000E+00 -0.00000000000E+00 -0.18559105320E+03  0.18559105320E+03  0.00000000000E+00 0. -1.
         25    2    1    2    0    0  0.66691986780E+02 -0.10072136559E+03 -0.23714656091E+02  0.17550630756E+03  0.12508982570E+03 0.  0.
         23    2    1    2    0    0 -0.66691986780E+02  0.10072136559E+03 -0.17095480407E+02  0.15486566235E+03  0.95386075183E+02 0.  0.
          5    1    3    3  502    0  0.85820062712E+02 -0.10810623218E+03 -0.45406698114E+02  0.14536602503E+03  0.41800000000E+01 0.  1.
         -5    1    3    3    0  502 -0.19128075932E+02  0.73848665947E+01  0.21692042022E+02  0.30140282523E+02  0.41800000000E+01 0.  1.
        -11    1    4    4    0    0 -0.15577528184E+02  0.68123291461E+02 -0.49962430859E+02  0.85905102998E+02  0.00000000000E+00 0. -1.
         11    1    4    4    0    0 -0.51114458596E+02  0.32598074128E+02  0.32866950452E+02  0.68960559354E+02  0.00000000000E+00 0.  1.
</event>
<event>
 8    1  0.6945825E-009  0.1066034E+03  0.7561462E-02  0.1266992E+00
          1   -1    0    0  501    0  0.00000000000E+00  0.00000000000E+00  0.30572165584E+02  0.30572165584E+02  0.00000000000E+00 0. -1.
         -1   -1    0    0    0  501 -0.00000000000E+00 -0.00000000000E+00 -0.38489724479E+03  0.38489724479E+03  0.00000000000E+00 0.  1.
         25    2    1    2    0    0  0.24260246015E+01  0.15849201379E+02 -0.19726728865E+03  0.23413645989E+03  0.12509362854E+03 0.  0.
         23    2    1    2    0    0 -0.24260246015E+01 -0.15849201379E+02 -0.15705779056E+03  0.18133295048E+03  0.89204296840E+02 0.  0.
          5    1    3    3  502    0 -0.25961711099E+02 -0.47800929781E+02 -0.67616236611E+02  0.86881339680E+02  0.41800000000E+01 0.  1.
         -5    1    3    3    0  502  0.28387735701E+02  0.63650131160E+02 -0.12965105203E+03  0.14725512021E+03  0.41800000000E+01 0.  1.
        -11    1    4    4    0    0 -0.19530255393E+02  0.32293886529E+02 -0.49395838072E+02  0.62163291432E+02  0.00000000000E+00 0.  1.
         11    1    4    4    0    0  0.17104230791E+02 -0.48143087908E+02 -0.10766195249E+03  0.11916965905E+03  0.00000000000E+00 0. -1.
</event>
<event>
 8    1  0.6945825E-009  0.9509471E+02  0.7561462E-02  0.1290963E+00
          2   -1    0    0  501    0  0.00000000000E+00  0.00000000000E+00  0.44080569194E+02  0.44080569194E+02  0.00000000000E+00 0. -1.
         -2   -1    0    0    0  501 -0.00000000000E+00 -0.00000000000E+00 -0.43813635615E+03  0.43813635615E+03  0.00000000000E+00 0.  1.
         25    2    1    2    0    0 -0.29954114799E+02 -0.78747793509E+02 -0.24099115262E+03  0.28429406519E+03  0.12509162996E+03 0.  0.
         23    2    1    2    0    0  0.29954114799E+02  0.78747793509E+02 -0.15306463433E+03  0.19792286015E+03  0.92985011212E+02 0.  0.
          5    1    3    3  502    0 -0.10881628364E+02 -0.72771968938E+02 -0.25096959938E+03  0.26156716444E+03  0.41800000000E+01 0. -1.
         -5    1    3    3    0  502 -0.19072486434E+02 -0.59758245710E+01  0.99784467601E+01  0.22726900753E+02  0.41800000000E+01 0. -1.
        -11    1    4    4    0    0  0.41153330273E+02  0.47346011226E+02 -0.28370157985E+02  0.68848436697E+02  0.00000000000E+00 0. -1.
         11    1    4    4    0    0 -0.11199215474E+02  0.31401782284E+02 -0.12469447635E+03  0.12907442345E+03  0.00000000000E+00 0.  1.
</event>
<event>
 8    1  0.6945825E-009  0.1519166E+03  0.7561462E-02  0.1198137E+00
         -1   -1    0    0    0  501 -0.00000000000E+00  0.00000000000E+00  0.23957835830E+03  0.23957835830E+03  0.00000000000E+00 0.  1.
          1   -1    0    0  501    0  0.00000000000E+00 -0.00000000000E+00 -0.12138585849E+03  0.12138585849E+03  0.00000000000E+00 0. -1.
         25    2    1    2    0    0 -0.11531574575E+03 -0.20995600794E+01  0.12959046414E+03  0.21388132211E+03  0.12509757064E+03 0.  0.
         23    2    1    2    0    0  0.11531574575E+03  0.20995600794E+01 -0.11397964336E+02  0.14708289469E+03  0.90561222101E+02 0.  0.
          5    1    3    3  502    0  0.54116082469E+01  0.37183230514E+02  0.54470333152E+02  0.66305110881E+02  0.41800000000E+01 0.  1.
         -5    1    3    3    0  502 -0.12072735400E+03 -0.39282790594E+02  0.75120130993E+02  0.14757621123E+03  0.41800000000E+01 0.  1.
        -11    1    4    4    0    0  0.11994158484E+03 -0.15375547320E+02 -0.26188167259E+02  0.12372635666E+03  0.00000000000E+00 0. -1.
         11    1    4    4    0    0 -0.46258390897E+01  0.17475107400E+02  0.14790202923E+02  0.23356538023E+02  0.00000000000E+00 0.  1.
</event>
<event>
 8    1  0.6945825E-009  0.9661882E+02  0.7561462E-02  0.1287571E+00
         -2   -1    0    0    0  501 -0.00000000000E+00  0.00000000000E+00  0.22587912526E+02  0.22587912526E+02  0.00000000000E+00 0.  1.
          2   -1    0    0  501    0  0.00000000000E+00 -0.00000000000E+00 -0.58560274195E+03  0.58560274195E+03  0.00000000000E+00 0. -1.
         25    2    1    2    0    0 -0.22230490917E+02 -0.15310671216E+02 -0.23789331527E+03  0.27012802768E+03  0.12508921020E+03 0.  0.
         23    2    1    2    0    0  0.22230490917E+02  0.15310671216E+02 -0.32512151416E+03  0.33806262680E+03  0.88621268832E+02 0.  0.
          5    1    3    3  502    0  0.30736444044E+02  0.21263363124E+02 -0.17858949853E+03  0.18250627657E+03  0.41800000000E+01 0.  1.
         -5    1    3    3    0  502 -0.52966934961E+02 -0.36574034340E+02 -0.59303816737E+02  0.87621751105E+02  0.41800000000E+01 0.  1.
        -11    1    4    4    0    0  0.43146106279E+02 -0.21941638891E+02 -0.14199392290E+03  0.15001765277E+03  0.00000000000E+00 0.  1.
         11    1    4    4    0    0 -0.20915615362E+02  0.37252310107E+02 -0.18312759126E+03  0.18804497402E+03  0.00000000000E+00 0. -1.
</event>
<event>
 8    1  0.6945825E-009  0.2324353E+03  0.7561462E-02  0.1124937E+00
          1   -1    0    0  501    0  0.00000000000E+00  0.00000000000E+00  0.56015764781E+03  0.56015764781E+03  0.00000000000E+00 0. -1.
         -1   -1    0    0    0  501 -0.00000000000E+00 -0.00000000000E+00 -0.14294283200E+03  0.14294283200E+03  0.00000000000E+00 0.  1.
         25    2    1    2    0    0  0.32989246362E+02 -0.22000144711E+03  0.44432624591E+02  0.25905768822E+03  0.12509076941E+03 0.  0.
         23    2    1    2    0    0 -0.32989246362E+02  0.22000144711E+03  0.37278219122E+03  0.44404279158E+03  0.93372970168E+02 0.  0.
          5    1    3    3  502    0  0.16106129170E+02 -0.74962839488E+01  0.42037795930E+02  0.45828488482E+02  0.41800000000E+01 0.  1.
         -5    1    3    3    0  502  0.16883117192E+02 -0.21250516316E+03  0.23948286611E+01  0.21322919974E+03  0.41800000000E+01 0.  1.
        -11    1    4    4    0    0  0.20851001697E+02  0.35123168086E+02  0.29301454110E+02  0.50269040384E+02  0.00000000000E+00 0. -1.
         11    1    4    4    0    0 -0.53840248060E+02  0.18487827903E+03  0.34348073711E+03  0.39377375120E+03  0.00000000000E+00 0.  1.
</event>
<event>
 8    1  0.6945825E-009  0.2020361E+03  0.7561462E-02  0.1148032E+00
         -2   -1    0    0    0  501 -0.00000000000E+00  0.00000000000E+00  0.11296934596E+03  0.11296934596E+03  0.00000000000E+00 0. -1.
          2   -1    0    0  501    0  0.00000000000E+00 -0.00000000000E+00 -0.37214867014E+03  0.37214867014E+03  0.00000000000E+00 0.  1.
         25    2    1    2    0    0  0.17252938352E+03  0.15220276670E+02 -0.15208191817E+03  0.26225018880E+03  0.12509279232E+03 0.  0.
         23    2    1    2    0    0 -0.17252938352E+03 -0.15220276670E+02 -0.10709740600E+03  0.22286782729E+03  0.90565827263E+02 0.  0.
          5    1    3    3  502    0  0.28828849194E+02  0.52560807706E+02 -0.19569512175E+02  0.63199519454E+02  0.41800000000E+01 0. -1.
         -5    1    3    3    0  502  0.14370053433E+03 -0.37340531036E+02 -0.13251240600E+03  0.19905066935E+03  0.41800000000E+01 0. -1.
        -11    1    4    4    0    0  0.21378089092E+01 -0.20587015308E+02 -0.11603016322E+02  0.23728156566E+02  0.00000000000E+00 0.  1.
         11    1    4    4    0    0 -0.17466719243E+03  0.53667386385E+01 -0.95494389681E+02  0.19913967073E+03  0.00000000000E+00 0. -1.
</event>
<event>
 8    1  0.6945825E-009  0.1191069E+03  0.7561462E-02  0.1244578E+00
          2   -1    0    0  501    0  0.00000000000E+00  0.00000000000E+00  0.72575662661E+03  0.72575662661E+03  0.00000000000E+00 0. -1.
         -2   -1    0    0    0  501 -0.00000000000E+00 -0.00000000000E+00 -0.23147883170E+02  0.23147883170E+02  0.00000000000E+00 0.  1.
         25    2    1    2    0    0 -0.69904585447E+01  0.62960521610E+02  0.29631611932E+03  0.32781579928E+03  0.12508821646E+03 0.  0.
         23    2    1    2    0    0  0.69904585447E+01 -0.62960521610E+02  0.40629262412E+03  0.42108871050E+03  0.90714452561E+02 0.  0.
          5    1    3    3  502    0  0.19068634793E+02  0.92208575254E+02  0.24902865162E+03  0.26626824052E+03  0.41800000000E+01 0.  1.
         -5    1    3    3    0  502 -0.26059093338E+02 -0.29248053644E+02  0.47287467699E+02  0.61547558757E+02  0.41800000000E+01 0.  1.
        -11    1    4    4    0    0 -0.37635066529E+02 -0.19987216018E+02  0.10182796984E+03  0.11038488338E+03  0.00000000000E+00 0.  1.
         11    1    4    4    0    0  0.44625525074E+02 -0.42973305592E+02  0.30446465428E+03  0.31070382712E+03  0.00000000000E+00 0. -1.
</event>
<event>
 8    1  0.6945825E-009  0.1000915E+03  0.7561462E-02  0.1280104E+00
          1   -1    0    0  501    0  0.00000000000E+00  0.00000000000E+00  0.16950312430E+02  0.16950312430E+02  0.00000000000E+00 0. -1.
         -1   -1    0    0    0  501 -0.00000000000E+00 -0.00000000000E+00 -0.81441803286E+03  0.81441803286E+03  0.00000000000E+00 0.  1.
         25    2    1    2    0    0  0.16091879549E+02  0.16770919347E+02 -0.59469053253E+03  0.60814736183E+03  0.12508465890E+03 0.  0.
         23    2    1    2    0    0 -0.16091879549E+02 -0.16770919347E+02 -0.20277718790E+03  0.22322098347E+03  0.90381453864E+02 0.  0.
          5    1    3    3  502    0 -0.34605527013E+02 -0.25624897174E+02 -0.40352074322E+03  0.40583326683E+03  0.41800000000E+01 0. -1.
         -5    1    3    3    0  502  0.50697406562E+02  0.42395816521E+02 -0.19116978931E+03  0.20231409500E+03  0.41800000000E+01 0. -1.
        -11    1    4    4    0    0 -0.52266725516E+02 -0.43292898065E+01 -0.14233752464E+03  0.15169220239E+03  0.00000000000E+00 0.  1.
         11    1    4    4    0    0  0.36174845967E+02 -0.12441629540E+02 -0.60439663262E+02  0.71528781071E+02  0.00000000000E+00 0. -1.
</event>
<event>
 8    1  0.6945825E-009  0.9540771E+02  0.7561462E-02  0.1290260E+00
         -2   -1    0    0    0  501 -0.00000000000E+00  0.00000000000E+00  0.36736062253E+02  0.36736062253E+02  0.00000000000E+00 0. -1.
          2   -1    0    0  501    0  0.00000000000E+00 -0.00000000000E+00 -0.35873165139E+03  0.35873165139E+03  0.00000000000E+00 0.  1.
         25    2    1    2    0    0 -0.18655275856E+02 -0.24340077176E+02 -0.15143049815E+03  0.19879370285E+03  0.12508909564E+03 0.  0.
         23    2    1    2    0    0  0.18655275856E+02  0.24340077176E+02 -0.17056509099E+03  0.19667401080E+03  0.92993320112E+02 0.  0.
          5    1    3    3  502    0 -0.46027755564E+02  0.21705058548E+02 -0.16662733546E+02  0.53710175368E+02  0.41800000000E+01 0. -1.
         -5    1    3    3    0  502  0.27372479708E+02 -0.46045135724E+02 -0.13476776461E+03  0.14508352748E+03  0.41800000000E+01 0. -1.
        -11    1    4    4    0    0 -0.91307357556E+01  0.48410197484E+02 -0.14143755093E+03  0.14977148717E+03  0.00000000000E+00 0.  1.
         11    1    4    4    0    0  0.27786011611E+02 -0.24070120308E+02 -0.29127540057E+02  0.46902523628E+02  0.00000000000E+00 0. -1.
</event>
<event>
 8    1  0.6945825E-009  0.1221124E+03  0.7561462E-02  0.1239652E+00
         -1   -1    0    0    0  501 -0.00000000000E+00  0.00000000000E+00  0.68152547059E+02  0.68152547059E+02  0.00000000000E+00 0.  1.
          1   -1    0    0  501    0  0.00000000000E+00 -0.00000000000E+00 -0.34123886268E+03  0.34123886268E+03  0.00000000000E+00 0. -1.
         25    2    1    2    0    0 -0.82560937362E+02  0.48819352117E+02 -0.20663620748E+03  0.25989536270E+03  0.12508972697E+03 0.  0.
         23    2    1    2    0    0  0.82560937362E+02 -0.48819352117E+02 -0.66450108142E+02  0.14949604704E+03  0.93454875143E+02 0.  0.
          5    1    3    3  502    0 -0.23629717153E+02 -0.33813793642E+02 -0.17093141176E+02  0.44848456478E+02  0.41800000000E+01 0. -1.
         -5    1    3    3    0  502 -0.58931220209E+02  0.82633145759E+02 -0.18954306631E+03  0.21504690623E+03  0.41800000000E+01 0. -1.
        -11    1    4    4    0    0  0.23551166128E+02 -0.32166175201E+02 -0.77538557248E+02  0.87186857456E+02  0.00000000000E+00 0. -1.
         11    1    4    4    0    0  0.59009771234E+02 -0.16653176916E+02  0.11088449106E+02  0.62309189580E+02  0.00000000000E+00 0.  1.
</event>
<event>
 8    1  0.6945825E-009  0.2140833E+03  0.7561462E-02  0.1138373E+00
          1   -1    0    0  501    0  0.00000000000E+00  0.00000000000E+00  0.90985029759E+03  0.90985029759E+03  0.00000000000E+00 0. -1.
         -1   -1    0    0    0  501 -0.00000000000E+00 -0.00000000000E+00 -0.58442083754E+02  0.58442083754E+02  0.00000000000E+00 0.  1.
         25    2    1    2    0    0  0.18332102684E+03  0.27108763140E+02  0.61368730018E+03  0.65314698927E+03  0.12508958098E+03 0.  0.
         23    2    1    2    0    0 -0.18332102684E+03 -0.27108763140E+02  0.23772091365E+03  0.31514539207E+03  0.91999464330E+02 0.  0.
          5    1    3    3  502    0  0.72209609937E+02  0.73353648457E+02  0.27137988505E+03  0.29027486960E+03  0.41800000000E+01 0. -1.
         -5    1    3    3    0  502  0.11111141690E+03 -0.46244885317E+02  0.34230741514E+03  0.36287211968E+03  0.41800000000E+01 0. -1.
        -11    1    4    4    0    0 -0.78919327201E+02  0.31529262360E+02  0.12153103243E+03  0.14829749302E+03  0.00000000000E+00 0. -1.
         11    1    4    4    0    0 -0.10440169963E+03 -0.58638025500E+02  0.11618988122E+03  0.16684789905E+03  0.00000000000E+00 0.  1.
</event>
<event>
 8    1  0.6945825E-009  0.9849310E+02  0.7561462E-02  0.1283497E+00
          2   -1    0    0  501    0  0.00000000000E+00  0.00000000000E+00  0.18903231435E+02  0.18903231435E+02  0.00000000000E+00 0. -1.
         -2   -1    0    0    0  501 -0.00000000000E+00 -0.00000000000E+00 -0.70360446636E+03  0.70360446636E+03  0.00000000000E+00 0.  1.
         25    2    1    2    0    0 -0.13926974315E+02  0.74149875801E+01 -0.50686682642E+03  0.52231370283E+03  0.12509469126E+03 0.  0.
         23    2    1    2    0    0  0.13926974315E+02 -0.74149875801E+01 -0.17783440850E+03  0.20019399497E+03  0.90573815853E+02 0.  0.
          5    1    3    3  502    0 -0.63739595211E+02 -0.11026526859E+02 -0.18409184321E+03  0.19517069306E+03  0.41800000000E+01 0. -1.
         -5    1    3    3    0  502  0.49812620896E+02  0.18441514439E+02 -0.32277498320E+03  0.32714300976E+03  0.41800000000E+01 0. -1.
        -11    1    4    4    0    0  0.12715642851E+02 -0.42201941250E+02 -0.14775836042E+03  0.15419216742E+03  0.00000000000E+00 0.  1.
         11    1    4    4    0    0  0.12113314644E+01  0.34786953670E+02 -0.30076048081E+02  0.46001827548E+02  0.00000000000E+00 0. -1.
</event>
<event>
 8    1  0.6945825E-009  0.8505607E+02  0.7561462E-02  0.1315286E+00
          1   -1    0    0  501    0  0.00000000000E+00  0.00000000000E+00  0.92715773787E+02  0.92715773787E+02  0.00000000000E+00 0. -1.
         -1   -1    0    0    0  501 -0.00000000000E+00 -0.00000000000E+00 -0.15774296916E+03  0.15774296916E+03  0.00000000000E+00 0.  1.
         25    2    1    2    0    0  0.12949870997E+02 -0.41681902159E+02 -0.43584343691E+01  0.13255888446E+03  0.12509109389E+03 0.  0.
         23    2    1    2    0    0 -0.12949870997E+02  0.41681902159E+02 -0.60668761008E+02  0.11789985850E+03  0.91184417225E+02 0.  0.
          5    1    3    3  502    0  0.70956184290E+01 -0.55189885448E+02 -0.55785190219E+02  0.78903302240E+02  0.41800000000E+01 0. -1.
         -5    1    3    3    0  502  0.58542525684E+01  0.13507983288E+02  0.51426755850E+02  0.53655582215E+02  0.41800000000E+01 0. -1.
        -11    1    4    4    0    0  0.49065461158E+01  0.67465757942E+02 -0.52114114494E+02  0.85390770104E+02  0.00000000000E+00 0. -1.
         11    1    4    4    0    0 -0.17856417113E+02 -0.25783855782E+02 -0.85546465139E+01  0.32509088392E+02  0.00000000000E+00 0.  1.
</event>
<event>
 8    1  0.6945825E-009  0.1000938E+03  0.7561462E-02  0.1280099E+00
          1   -1    0    0  501    0  0.00000000000E+00  0.00000000000E+00  0.43068479694E+03  0.43068479694E+03  0.00000000000E+00 0. -1.
         -1   -1    0    0    0  501 -0.00000000000E+00 -0.00000000000E+00 -0.35064252985E+02  0.35064252985E+02  0.00000000000E+00 0.  1.
         25    2    1    2    0    0  0.13995045480E+02  0.56970726400E+02  0.24994509978E+03  0.28558624611E+03  0.12508167770E+03 0.  0.
         23    2    1    2    0    0 -0.13995045480E+02 -0.56970726400E+02  0.14567544417E+03  0.18016280382E+03  0.88293691055E+02 0.  0.
          5    1    3    3  502    0 -0.11509631548E+02  0.80136224090E+02  0.86713067324E+02  0.11870515774E+03  0.41800000000E+01 0.  1.
         -5    1    3    3    0  502  0.25504677029E+02 -0.23165497690E+02  0.16323203246E+03  0.16688108836E+03  0.41800000000E+01 0.  1.
        -11    1    4    4    0    0  0.21893799833E+02 -0.37908703630E+02  0.12902084381E+03  0.13624531706E+03  0.00000000000E+00 0. -1.
         11    1    4    4    0    0 -0.35888845313E+02 -0.19062022770E+02  0.16654600355E+02  0.43917486756E+02  0.00000000000E+00 0.  1.
</event>
<event>
 8    1  0.6945825E-009  0.1228269E+03  0.7561462E-02  0.1238505E+00
         -2   -1    0    0    0  501 -0.00000000000E+00  0.00000000000E+00  0.48391626317E+02  0.48391626317E+02  0.00000000000E+00 0.  1.
          2   -1    0    0  501    0  0.00000000000E+00 -0.00000000000E+00 -0.33257291100E+03  0.33257291100E+03  0.00000000000E+00 0. -1.
         25    2    1    2    0    0 -0.33430507783E+01  0.56176786994E+02 -0.20077777025E+03  0.24315247783E+03  0.12507760417E+03 0.  0.
         23    2    1    2    0    0  0.33430507783E+01 -0.56176786994E+02 -0.83403514438E+02  0.13781205949E+03  0.94175422133E+02 0.  0.
          5    1    3    3  502    0  0.29397249380E+02 -0.31096609547E+02 -0.51204187001E+02  0.66862086139E+02  0.41800000000E+01 0. -1.
         -5    1    3    3    0  502 -0.32740300158E+02  0.87273396542E+02 -0.14957358325E+03  0.17629039169E+03  0.41800000000E+01 0. -1.
        -11    1    4    4    0    0 -0.14840618580E+02 -0.78880038812E+02 -0.66006330875E+02  0.10391891165E+03  0.00000000000E+00 0. -1.
         11    1    4    4    0    0  0.18183669359E+02  0.22703251817E+02 -0.17397183563E+02  0.33893147838E+02  0.00000000000E+00 0.  1.
</event>
<event>
 8    1  0.6945825E-009  0.1126191E+03  0.7561462E-02  0.1255795E+00
          2   -1    0    0  501    0  0.00000000000E+00  0.00000000000E+00  0.13426449759E+02  0.13426449759E+02  0.00000000000E+00 0. -1.
         -2   -1    0    0    0  501 -0.00000000000E+00 -0.00000000000E+00 -0.97773367788E+03  0.97773367788E+03  0.00000000000E+00 0.  1.
         25    2    1    2    0    0  0.25764996338E+02 -0.27427328083E+02 -0.59553317776E+03  0.60969147419E+03  0.12509130475E+03 0.  0.
         23    2    1    2    0    0 -0.25764996338E+02  0.27427328083E+02 -0.36877405036E+03  0.38146865345E+03  0.90044100208E+02 0.  0.
          5    1    3    3  502    0  0.25097045915E+02  0.48282614962E+02 -0.26704196852E+03  0.27256184248E+03  0.41800000000E+01 0. -1.
         -5    1    3    3    0  502  0.66795042269E+00 -0.75709943045E+02 -0.32849120923E+03  0.33712963171E+03  0.41800000000E+01 0. -1.
        -11    1    4    4    0    0 -0.17557914277E+02  0.59339885326E+02 -0.28050012764E+03  0.28724523312E+03  0.00000000000E+00 0.  1.
         11    1    4    4    0    0 -0.82070820610E+01 -0.31912557244E+02 -0.88273922715E+02  0.94223420323E+02  0.00000000000E+00 0. -1.
</event>
<event>
 8    1  0.6945825E-009  0.1314117E+03  0.7561462E-02  0.1225376E+00
         -1   -1    0    0    0  501 -0.00000000000E+00  0.00000000000E+00  0.27000100096E+02  0.27000100096E+02  0.00000000000E+00 0.  1.
          1   -1    0    0  501    0  0.00000000000E+00 -0.00000000000E+00 -0.11217073356E+04  0.11217073356E+04  0.00000000000E+00 0. -1.
         25    2    1    2    0    0 -0.12175815128E+03  0.40727316071E+02 -0.72884458853E+03  0.75056342289E+03  0.12508899181E+03 0.  0.
         23    2    1    2    0    0  0.12175815128E+03 -0.40727316071E+02 -0.36586264695E+03  0.39814401278E+03  0.90440128281E+02 0.  0.
          5    1    3    3  502    0 -0.69923386635E+02  0.10892341761E+02 -0.12462268552E+03  0.14337436749E+03  0.41800000000E+01 0.  1.
         -5    1    3    3    0  502 -0.51834764644E+02  0.29834974309E+02 -0.60422190300E+03  0.60718905539E+03  0.41800000000E+01 0.  1.
        -11    1    4    4    0    0  0.79318691959E+02 -0.10802639371E+02 -0.31660916628E+03  0.32657237496E+03  0.00000000000E+00 0. -1.
         11    1    4    4    0    0  0.42439459321E+02 -0.29924676700E+02 -0.49253480670E+02  0.71571637826E+02  0.00000000000E+00 0.  1.
</event>
<event>
 8    1  0.6945825E-009  0.1362779E+03  0.7561462E-02  0.1218427E+00
          2   -1    0    0  501    0  0.00000000000E+00  0.00000000000E+00  0.14188433796E+03  0.14188433796E+03  0.00000000000E+00 0. -1.
         -2   -1    0    0    0  501 -0.00000000000E+00 -0.00000000000E+00 -0.14671203906E+03  0.14671203906E+03  0.00000000000E+00 0.  1.
         25    2    1    2    0    0  0.86319663920E+02  0.22697179239E+02 -0.35074594182E+02  0.15761434425E+03  0.12508320444E+03 0.  0.
         23    2    1    2    0    0 -0.86319663920E+02 -0.22697179239E+02  0.30246893081E+02  0.13098203277E+03  0.90967972628E+02 0.  0.
          5    1    3    3  502    0 -0.13103589587E+02 -0.35712826119E+02 -0.92956289469E+01  0.39382624684E+02  0.41800000000E+01 0. -1.
         -5    1    3    3    0  502  0.99423253507E+02  0.58410005357E+02 -0.25778965235E+02  0.11823171957E+03  0.41800000000E+01 0. -1.
        -11    1    4    4    0    0 -0.93746595842E+02 -0.38572637492E+02  0.42160276453E+02  0.10978962385E+03  0.00000000000E+00 0. -1.
         11    1    4    4    0    0  0.74269319219E+01  0.15875458254E+02 -0.11913383372E+02  0.21192408922E+02  0.00000000000E+00 0.  1.
</event>
<event>
 8    1  0.6945825E-009  0.1005481E+03  0.7561462E-02  0.1279147E+00
          2   -1    0    0  501    0  0.00000000000E+00  0.00000000000E+00  0.28019047737E+03  0.28019047737E+03  0.00000000000E+00 0. -1.
         -2   -1    0    0    0  501 -0.00000000000E+00 -0.00000000000E+00 -0.51795351763E+02  0.51795351763E+02  0.00000000000E+00 0.  1.
         25    2    1    2    0    0  0.37279154815E+02 -0.36338446059E+02  0.14993634238E+03  0.20208618492E+03  0.12509077235E+03 0.  0.
         23    2    1    2    0    0 -0.37279154815E+02  0.36338446059E+02  0.78458783231E+02  0.12989964421E+03  0.89486975889E+02 0.  0.
          5    1    3    3  502    0 -0.29486625198E+02 -0.23673553239E+02  0.69797445262E+00  0.38050726102E+02  0.41800000000E+01 0. -1.
         -5    1    3    3    0  502  0.66765780013E+02 -0.12664892820E+02  0.14923836792E+03  0.16403545882E+03  0.41800000000E+01 0. -1.
        -11    1    4    4    0    0 -0.57954178757E+02  0.44160679602E+02  0.79412450574E+02  0.10777378978E+03  0.00000000000E+00 0. -1.
         11    1    4    4    0    0  0.20675023942E+02 -0.78222335431E+01 -0.95366734314E+00  0.22125854424E+02  0.00000000000E+00 0.  1.
</event>
<event>
 8    1  0.6945825E-009  0.1002101E+03  0.7561462E-02  0.1279855E+00
          1   -1    0    0  501    0  0.00000000000E+00  0.00000000000E+00  0.69826947357E+03  0.69826947357E+03  0.00000000000E+00 0. -1.
         -1   -1    0    0    0  501 -0.00000000000E+00 -0.00000000000E+00 -0.17031296349E+02  0.17031296349E+02  0.00000000000E+00 0.  1.
         25    2    1    2    0    0 -0.32779326218E+01 -0.12561138912E+02  0.41440408699E+03  0.43306757551E+03  0.12509296782E+03 0.  0.
         23    2    1    2    0    0  0.32779326218E+01  0.12561138912E+02  0.26683409023E+03  0.28223319440E+03  0.91030858831E+02 0.  0.
          5    1    3    3  502    0 -0.37584570300E+02 -0.55527115416E+02  0.17640975038E+03  0.18876899348E+03  0.41800000000E+01 0. -1.
         -5    1    3    3    0  502  0.34306637678E+02  0.42965976504E+02  0.23799433661E+03  0.24429858203E+03  0.41800000000E+01 0. -1.
        -11    1    4    4    0    0 -0.10814270631E+02  0.43115319559E+02  0.72758364335E+02  0.85262294191E+02  0.00000000000E+00 0.  1.
         11    1    4    4    0    0  0.14092203253E+02 -0.30554180647E+02  0.19407572590E+03  0.19697090021E+03  0.00000000000E+00 0. -1.
</event>
<event>
 8    1  0.6945825E-009  0.1004629E+03  0.7561462E-02  0.1279326E+00
         -1   -1    0    0    0  501 -0.00000000000E+00  0.00000000000E+00  0.58739172883E+02  0.58739172883E+02  0.00000000000E+00 0.  1.
          1   -1    0    0  501    0  0.00000000000E+00 -0.00000000000E+00 -0.21613674990E+03  0.21613674990E+03  0.00000000000E+00 0. -1.
         25    2    1    2    0    0 -0.21541529309E+02  0.14552425434E+02 -0.13210785523E+03  0.18378210346E+03  0.12509022971E+03 0.  0.
         23    2    1    2    0    0  0.21541529309E+02 -0.14552425434E+02 -0.25289721793E+02  0.91093819327E+02  0.83562571288E+02 0.  0.
          5    1    3    3  502    0 -0.49873560611E+02 -0.38240940406E+02 -0.42780340126E+02  0.76140471974E+02  0.41800000000E+01 0. -1.
         -5    1    3    3    0  502  0.28332031302E+02  0.52793365840E+02 -0.89327515100E+02  0.10764163148E+03  0.41800000000E+01 0. -1.
        -11    1    4    4    0    0  0.23930610212E+02 -0.43064557593E+02  0.48875376494E+01  0.49508769426E+02  0.00000000000E+00 0.  1.
         11    1    4    4    0    0 -0.23890809032E+01  0.28512132159E+02 -0.30177259442E+02  0.41585049901E+02  0.00000000000E+00 0. -1.
</event>
<event>
 8    1  0.6945825E-009  0.9058939E+02  0.7561462E-02  0.1301431E+00
         -1   -1    0    0    0  501 -0.00000000000E+00  0.00000000000E+00  0.31810923473E+02  0.31810923473E+02  0.00000000000E+00 0.  1.
          1   -1    0    0  501    0  0.00000000000E+00 -0.00000000000E+00 -0.55031866377E+03  0.55031866377E+03  0.00000000000E+00 0. -1.
         25    2    1    2    0    0 -0.47239139768E+02 -0.58168383570E+02 -0.31163092558E+03  0.34405865781E+03  0.12508968408E+03 0.  0.
         23    2    1    2    0    0  0.47239139768E+02  0.58168383570E+02 -0.20687681472E+03  0.23807092944E+03  0.90910141353E+02 0.  0.
          5    1    3    3  502    0 -0.84230662419E+01 -0.31997594099E+02 -0.29070193536E+03  0.29260875191E+03  0.41800000000E+01 0. -1.
         -5    1    3    3    0  502 -0.38816073526E+02 -0.26170789471E+02 -0.20928990221E+02  0.51449905900E+02  0.41800000000E+01 0. -1.
        -11    1    4    4    0    0  0.54479523958E+02  0.14244804402E+02 -0.17356366951E+03  0.18246994371E+03  0.00000000000E+00 0.  1.
         11    1    4    4    0    0 -0.72403841900E+01  0.43923579168E+02 -0.33313145210E+02  0.55600985729E+02  0.00000000000E+00 0. -1.
</event>
<event>
 8    1  0.6945825E-009  0.1147870E+03  0.7561462E-02  0.1251953E+00
         -1   -1    0    0    0  501 -0.00000000000E+00  0.00000000000E+00  0.21831210737E+03  0.21831210737E+03  0.00000000000E+00 0. -1.
          1   -1    0    0  501    0  0.00000000000E+00 -0.00000000000E+00 -0.15106619919E+03  0.15106619919E+03  0.00000000000E+00 0.  1.
         25    2    1    2    0    0  0.69538414295E+02 -0.82663231617E+02 -0.62977065634E+02  0.17686710575E+03  0.12508821438E+03 0.  0.
         23    2    1    2    0    0 -0.69538414295E+02  0.82663231617E+02  0.13022297382E+03  0.19251120081E+03  0.91835388632E+02 0.  0.
          5    1    3    3  502    0  0.19632643570E+02 -0.80093556903E+01 -0.82153597507E+02  0.84948669533E+02  0.41800000000E+01 0.  1.
         -5    1    3    3    0  502  0.49905770725E+02 -0.74653875927E+02  0.19176531873E+02  0.91918436221E+02  0.41800000000E+01 0.  1.
        -11    1    4    4    0    0 -0.33705204818E+02  0.71106535120E+01  0.96295003433E+02  0.10227086541E+03  0.00000000000E+00 0. -1.
         11    1    4    4    0    0 -0.35833209478E+02  0.75552578105E+02  0.33927970383E+02  0.90240335406E+02  0.00000000000E+00 0.  1.
</event>
<event>
 8    1  0.6945825E-009  0.1386406E+03  0.7561462E-02  0.1215170E+00
          1   -1    0    0  501    0  0.00000000000E+00  0.00000000000E+00  0.39201904510E+03  0.39201904510E+03  0.00000000000E+00 0. -1.
         -1   -1    0    0    0  501 -0.00000000000E+00 -0.00000000000E+00 -0.69580433488E+02  0.69580433488E+02  0.00000000000E+00 0.  1.
         25    2    1    2    0    0 -0.10201137397E+03  0.28907072707E+01  0.74113438151E+02  0.17763671607E+03  0.12508926641E+03 0.  0.
         23    2    1    2    0    0  0.10201137397E+03 -0.28907072707E+01  0.24832517346E+03  0.28396276252E+03  0.92492065153E+02 0.  0.
          5    1    3    3  502    0 -0.11726505013E+03  0.33067935899E+02  0.75748848497E+02  0.14352679477E+03  0.41800000000E+01 0. -1.
         -5    1    3    3    0  502  0.15253676160E+02 -0.30177228628E+02 -0.16354103465E+01  0.34109921299E+02  0.41800000000E+01 0. -1.
        -11    1    4    4    0    0  0.32729161434E+02  0.30188994235E+02  0.33178849392E+02  0.55528456021E+02  0.00000000000E+00 0.  1.
         11    1    4    4    0    0  0.69282212540E+02 -0.33079701506E+02  0.21514632407E+03  0.22843430650E+03  0.00000000000E+00 0. -1.
</event>
<event>
 8    1  0.6945825E-009  0.2202019E+03  0.7561462E-02  0.1133733E+00
          1   -1    0    0  501    0  0.00000000000E+00  0.00000000000E+00  0.38027286072E+03  0.38027286072E+03  0.00000000000E+00 0. -1.
         -1   -1    0    0    0  501 -0.00000000000E+00 -0.00000000000E+00 -0.17011656484E+03  0.17011656484E+03  0.00000000000E+00 0.  1.
         25    2    1    2    0    0  0.19744045323E+03 -0.45051654715E+02 -0.93793054385E+01  0.23821619530E+03  0.12508637083E+03 0.  0.
         23    2    1    2    0    0 -0.19744045323E+03  0.45051654715E+02  0.21953560132E+03  0.31217323026E+03  0.90795711773E+02 0.  0.
          5    1    3    3  502    0 -0.13377559012E+02 -0.18827346300E+02  0.85432451175E+01  0.24977739909E+02  0.41800000000E+01 0.  1.
         -5    1    3    3    0  502  0.21081801224E+03 -0.26224308415E+02 -0.17922550556E+02  0.21323845539E+03  0.41800000000E+01 0.  1.
        -11    1    4    4    0    0 -0.44958726011E+02 -0.16085642725E+01  0.55820214719E+01  0.45332477180E+02  0.00000000000E+00 0.  1.
         11    1    4    4    0    0 -0.15248172722E+03  0.46660218987E+02  0.21395357985E+03  0.26684075308E+03  0.00000000000E+00 0. -1.
</event>
<event>
 8    1  0.6945825E-009  0.8525074E+02  0.7561462E-02  0.1314778E+00
          1   -1    0    0  501    0  0.00000000000E+00  0.00000000000E+00  0.60394923382E+02  0.60394923382E+02  0.00000000000E+00 0. -1.
         -1   -1    0    0    0  501 -0.00000000000E+00 -0.00000000000E+00 -0.22292025334E+03  0.22292025334E+03  0.00000000000E+00 0.  1.
         25    2    1    2    0    0 -0.40335020785E+02  0.33193495394E+01 -0.12636585671E+03  0.18235180733E+03  0.12508365166E+03 0.  0.
         23    2    1    2    0    0  0.40335020785E+02 -0.33193495394E+01 -0.36159473248E+02  0.10096336939E+03  0.85136140796E+02 0.  0.
          5    1    3    3  502    0 -0.45558178634E+02 -0.49064398726E+02 -0.10662579671E+03  0.12597379008E+03  0.41800000000E+01 0.  1.
         -5    1    3    3    0  502  0.52231578487E+01  0.52383748266E+02 -0.19740059992E+02  0.56378017248E+02  0.41800000000E+01 0.  1.
        -11    1    4    4    0    0  0.20297758636E+02 -0.16891303663E+02 -0.60885118852E+02  0.66364997119E+02  0.00000000000E+00 0.  1.
         11    1    4    4    0    0  0.20037262149E+02  0.13571954124E+02  0.24725645603E+02  0.34598372269E+02  0.00000000000E+00 0. -1.
</event>
<event>
 8    1  0.6945825E-009  0.1360868E+03  0.7561462E-02  0.1218694E+00
          2   -1    0    0  501    0  0.00000000000E+00  0.00000000000E+00  0.52879527440E+03  0.52879527440E+03  0.00000000000E+00 0. -1.
         -2   -1    0    0    0  501 -0.00000000000E+00 -0.00000000000E+00 -0.37705200122E+02  0.37705200122E+02  0.00000000000E+00 0.  1.
         25    2    1    2    0    0 -0.54085330155E+02  0.67394755157E+02  0.31574737825E+03  0.35044391135E+03  0.12508897701E+03 0.  0.
         23    2    1    2    0    0  0.54085330155E+02 -0.67394755157E+02  0.17534269603E+03  0.21605656317E+03  0.92022287945E+02 0.  0.
          5    1    3    3  502    0 -0.54547982725E+02  0.10068699218E+03  0.20655245836E+03  0.23620910920E+03  0.41800000000E+01 0.  1.
         -5    1    3    3    0  502  0.46265256945E+00 -0.33292237021E+02  0.10919491989E+03  0.11423480215E+03  0.41800000000E+01 0.  1.
        -11    1    4    4    0    0  0.79096191729E+02 -0.50419586469E+02  0.11366886304E+03  0.14737351414E+03  0.00000000000E+00 0.  1.
         11    1    4    4    0    0 -0.25010861573E+02 -0.16975168688E+02  0.61673832991E+02  0.68683049033E+02  0.00000000000E+00 0. -1.
</event>
<event>
 8    1  0.6945825E-009  0.1406960E+03  0.7561462E-02  0.1212395E+00
         -2   -1    0    0    0  501 -0.00000000000E+00  0.00000000000E+00  0.10719720846E+03  0.10719720846E+03  0.00000000000E+00 0.  1.
          2   -1    0    0  501    0  0.00000000000E+00 -0.00000000000E+00 -0.21427473355E+03  0.21427473355E+03  0.00000000000E+00 0. -1.
         25    2    1    2    0    0  0.88437555606E+02  0.25727626074E+02 -0.11085364830E+03  0.19084236519E+03  0.12509662275E+03 0.  0.
         23    2    1    2    0    0 -0.88437555606E+02 -0.25727626074E+02  0.37761232031E+01  0.13062957682E+03  0.92556551629E+02 0.  0.
          5    1    3    3  502    0 -0.27403694848E+02 -0.16106114438E+02 -0.20922494874E+02  0.38283058987E+02  0.41800000000E+01 0.  1.
         -5    1    3    3    0  502  0.11584125045E+03  0.41833740512E+02 -0.89931153423E+02  0.15255930620E+03  0.41800000000E+01 0.  1.
        -11    1    4    4    0    0 -0.65889743994E+02 -0.57286837240E+02 -0.13177107886E+02  0.88299922179E+02  0.00000000000E+00 0. -1.
         11    1    4    4    0    0 -0.22547811612E+02  0.31559211166E+02  0.16953231089E+02  0.42329654644E+02  0.00000000000E+00 0.  1.
</event>
<event>
 8    1  0.6945825E-009  0.1147097E+03  0.7561462E-02  0.1252089E+00
         -4   -1    0    0    0  501 -0.00000000000E+00  0.00000000000E+00  0.41035126997E+02  0.41035126997E+02  0.00000000000E+00 0. -1.
          4   -1    0    0  501    0  0.00000000000E+00 -0.00000000000E+00 -0.47632843740E+03  0.47632843740E+03  0.00000000000E+00 0.  1.
         25    2    1    2    0    0 -0.19461677142E+02 -0.37931999819E+02 -0.37741371250E+03  0.39988290139E+03  0.12509049108E+03 0.  0.
         23    2    1    2    0    0  0.19461677142E+02  0.37931999819E+02 -0.57879597908E+02  0.11748066301E+03  0.92919668742E+02 0.  0.
          5    1    3    3  502    0  0.11935067278E+01  0.43174612621E+02 -0.81494803604E+02  0.92327390561E+02  0.41800000000E+01 0. -1.
         -5    1    3    3    0  502 -0.20655183870E+02 -0.81106612440E+02 -0.29591890889E+03  0.30755551083E+03  0.41800000000E+01 0. -1.
        -11    1    4    4    0    0 -0.19439323804E+02 -0.22888592440E+02 -0.17612305483E+02  0.34813334777E+02  0.00000000000E+00 0. -1.
         11    1    4    4    0    0  0.38901000946E+02  0.60820592259E+02 -0.40267292425E+02  0.82667328230E+02  0.00000000000E+00 0.  1.
</event>
<event>
 8    1  0.6945825E-009  0.1406141E+03  0.7561462E-02  0.1212505E+00
         -2   -1    0    0    0  501 -0.00000000000E+00  0.00000000000E+00  0.13898877267E+03  0.13898877267E+03  0.00000000000E+00 0.  1.
          2   -1    0    0  501    0  0.00000000000E+00 -0.00000000000E+00 -0.21329282424E+03  0.21329282424E+03  0.00000000000E+00 0. -1.
         25    2    1    2    0    0  0.84038345883E+02  0.79616235332E+02 -0.10545924898E+03  0.20042361765E+03  0.12508710889E+03 0.  0.
         23    2    1    2    0    0 -0.84038345883E+02 -0.79616235332E+02  0.31155197410E+02  0.15185797925E+03  0.93214864857E+02 0.  0.
          5    1    3    3  502    0  0.69993497776E+02  0.18387412574E+02 -0.11580473687E+03  0.13662136053E+03  0.41800000000E+01 0.  1.
         -5    1    3    3    0  502  0.14044848107E+02  0.61228822759E+02  0.10345487885E+02  0.63802257126E+02  0.41800000000E+01 0.  1.
        -11    1    4    4    0    0 -0.57985523349E+01 -0.66134813538E+02 -0.49132126868E+00  0.66390346945E+02  0.00000000000E+00 0. -1.
         11    1    4    4    0    0 -0.78239793548E+02 -0.13481421794E+02  0.31646518678E+02  0.85467632309E+02  0.00000000000E+00 0.  1.
</event>
<event>
 8    1  0.6945825E-009  0.1553421E+03  0.7561462E-02  0.1194058E+00
          2   -1    0    0  501    0  0.00000000000E+00  0.00000000000E+00  0.25411197212E+03  0.25411197212E+03  0.00000000000E+00 0. -1.
         -2   -1    0    0    0  501 -0.00000000000E+00 -0.00000000000E+00 -0.12370932300E+03  0.12370932300E+03  0.00000000000E+00 0.  1.
         25    2    1    2    0    0  0.12526658745E+03 -0.29885959326E+01  0.10666298950E+01  0.17705440488E+03  0.12508587031E+03 0.  0.
         23    2    1    2    0    0 -0.12526658745E+03  0.29885959326E+01  0.12933601923E+03  0.20076689024E+03  0.88763104446E+02 0.  0.
          5    1    3    3  502    0  0.10213293725E+03 -0.56681205961E+02 -0.10350904253E+02  0.11733929265E+03  0.41800000000E+01 0.  1.
         -5    1    3    3    0  502  0.23133650203E+02  0.53692610028E+02  0.11417534148E+02  0.59715112236E+02  0.41800000000E+01 0.  1.
        -11    1    4    4    0    0 -0.79709729404E+02 -0.22712325586E+02  0.29350117003E+02  0.87925650769E+02  0.00000000000E+00 0.  1.
         11    1    4    4    0    0 -0.45556858046E+02  0.25700921518E+02  0.99985902226E+02  0.11284123947E+03  0.00000000000E+00 0. -1.
</event>
<event>
 8    1  0.6945825E-009  0.1504360E+03  0.7561462E-02  0.1199938E+00
         -2   -1    0    0    0  501 -0.00000000000E+00  0.00000000000E+00  0.41338081468E+02  0.41338081468E+02  0.00000000000E+00 0.  1.
          2   -1    0    0  501    0  0.00000000000E+00 -0.00000000000E+00 -0.59356641094E+03  0.59356641094E+03  0.00000000000E+00 0. -1.
         25    2    1    2    0    0 -0.70820804090E+02 -0.87105757395E+02 -0.29827845012E+03  0.34237618671E+03  0.12509364555E+03 0.  0.
         23    2    1    2    0    0  0.70820804090E+02  0.87105757395E+02 -0.25394987936E+03  0.29252830570E+03  0.92082947104E+02 0.  0.
          5    1    3    3  502    0  0.19408263848E+02 -0.74227102580E+02 -0.13492414848E+03  0.15526861147E+03  0.41800000000E+01 0. -1.
         -5    1    3    3    0  502 -0.90229067938E+02 -0.12878654815E+02 -0.16335430164E+03  0.18710757524E+03  0.41800000000E+01 0. -1.
        -11    1    4    4    0    0 -0.12574450839E+02  0.27655791050E+02 -0.18006424268E+02  0.35315590147E+02  0.00000000000E+00 0.  1.
         11    1    4    4    0    0  0.83395254929E+02  0.59449966345E+02 -0.23594345509E+03  0.25721271555E+03  0.00000000000E+00 0. -1.
</event>
<event>
 8    1  0.6945825E-009  0.1282254E+03  0.7561462E-02  0.1230113E+00
         -1   -1    0    0    0  501 -0.00000000000E+00  0.00000000000E+00  0.46928382370E+03  0.46928382370E+03  0.00000000000E+00 0.  1.
          1   -1    0    0  501    0  0.00000000000E+00 -0.00000000000E+00 -0.50540207079E+02  0.50540207079E+02  0.00000000000E+00 0. -1.
         25    2    1    2    0    0  0.97429027898E+02 -0.37796777613E+02  0.17640076876E+03  0.24017686422E+03  0.12508670198E+03 0.  0.
         23    2    1    2    0    0 -0.97429027898E+02  0.37796777613E+02  0.24234284786E+03  0.27964716655E+03  0.92474158438E+02 0.  0.
          5    1    3    3  502    0 -0.15343453188E+01  0.23242534604E+02 -0.54559134420E+01  0.24285984063E+02  0.41800000000E+01 0. -1.
         -5    1    3    3    0  502  0.98963373217E+02 -0.61039312217E+02  0.18185668220E+03  0.21589088016E+03  0.41800000000E+01 0. -1.
        -11    1    4    4    0    0 -0.70123809166E+02  0.39047576107E+00  0.62492733182E+02  0.93929988735E+02  0.00000000000E+00 0. -1.
         11    1    4    4    0    0 -0.27305218733E+02  0.37406301852E+02  0.17985011468E+03  0.18571717782E+03  0.00000000000E+00 0.  1.
</event>
<event>
 8    1  0.6945825E-009  0.1149363E+03  0.7561462E-02  0.1251692E+00
          2   -1    0    0  501    0  0.00000000000E+00  0.00000000000E+00  0.11180396182E+04  0.11180396182E+04  0.00000000000E+00 0. -1.
         -2   -1    0    0    0  501 -0.00000000000E+00 -0.00000000000E+00 -0.12513705185E+02  0.12513705185E+02  0.00000000000E+00 0.  1.
         25    2    1    2    0    0 -0.30142790831E+01 -0.44175799429E+02  0.70883312741E+03  0.72114655275E+03  0.12508941160E+03 0.  0.
         23    2    1    2    0    0  0.30142790831E+01  0.44175799429E+02  0.39669278562E+03  0.40940677065E+03  0.91039280303E+02 0.  0.
          5    1    3    3  502    0  0.46582207679E+02 -0.63197405048E+02  0.38311181833E+03  0.39109583457E+03  0.41800000000E+01 0. -1.
         -5    1    3    3    0  502 -0.49596486762E+02  0.19021605619E+02  0.32572130908E+03  0.33005071817E+03  0.41800000000E+01 0. -1.
        -11    1    4    4    0    0  0.18385235497E+02  0.67541947185E+02  0.32497162112E+03  0.33242515856E+03  0.00000000000E+00 0.  1.
         11    1    4    4    0    0 -0.15370956414E+02 -0.23366147756E+02  0.71721164500E+02  0.76981612085E+02  0.00000000000E+00 0. -1.
</event>
<event>
 8    1  0.6945825E-009  0.9261248E+02  0.7561462E-02  0.1296646E+00
         -2   -1    0    0    0  501 -0.00000000000E+00  0.00000000000E+00  0.35216641139E+02  0.35216641139E+02  0.00000000000E+00 0.  1.
          2   -1    0    0  501    0  0.00000000000E+00 -0.00000000000E+00 -0.38312439335E+03  0.38312439335E+03  0.00000000000E+00 0. -1.
         25    2    1    2    0    0 -0.41731905980E+02 -0.57026919634E+01 -0.21563232285E+03  0.25282645026E+03  0.12509933101E+03 0.  0.
         23    2    1    2    0    0  0.41731905980E+02  0.57026919634E+01 -0.13227542936E+03  0.16551458423E+03  0.90134431316E+02 0.  0.
          5    1    3    3  502    0 -0.60492339833E+02  0.35589260376E+02 -0.66064416662E+02  0.96477449083E+02  0.41800000000E+01 0. -1.
         -5    1    3    3    0  502  0.18760433853E+02 -0.41291952340E+02 -0.14956790619E+03  0.15634900118E+03  0.41800000000E+01 0. -1.
        -11    1    4    4    0    0 -0.13384975031E+02  0.48791243594E+01  0.68933272168E+01  0.15826603274E+02  0.00000000000E+00 0.  1.
         11    1    4    4    0    0  0.55116881010E+02  0.82356760406E+00 -0.13916875658E+03  0.14968798096E+03  0.00000000000E+00 0. -1.
</event>
<event>
 8    1  0.6945825E-009  0.1206011E+03  0.7561462E-02  0.1242109E+00
          2   -1    0    0  501    0  0.00000000000E+00  0.00000000000E+00  0.38373150662E+02  0.38373150662E+02  0.00000000000E+00 0. -1.
         -2   -1    0    0    0  501 -0.00000000000E+00 -0.00000000000E+00 -0.46805217932E+03  0.46805217932E+03  0.00000000000E+00 0.  1.
         25    2    1    2    0    0  0.68583605704E+02 -0.35482517497E+02 -0.20314978843E+03  0.25075697961E+03  0.12508599548E+03 0.  0.
         23    2    1    2    0    0 -0.68583605704E+02  0.35482517497E+02 -0.22652924022E+03  0.25566835036E+03  0.89933801671E+02 0.  0.
          5    1    3    3  502    0  0.92757617368E+02  0.53954295956E+00 -0.89200282662E+02  0.12875725033E+03  0.41800000000E+01 0.  1.
         -5    1    3    3    0  502 -0.24174011664E+02 -0.36022060456E+02 -0.11394950577E+03  0.12199972928E+03  0.41800000000E+01 0.  1.
        -11    1    4    4    0    0  0.14423668960E+02 -0.17394795552E+00 -0.32237708752E+01  0.14780567743E+02  0.00000000000E+00 0. -1.
         11    1    4    4    0    0 -0.83007274664E+02  0.35656465452E+02 -0.22330546935E+03  0.24088778262E+03  0.00000000000E+00 0.  1.
</event>
<event>
 8    1  0.6945825E-009  0.8201348E+02  0.7561462E-02  0.1323433E+00
          2   -1    0    0  501    0  0.00000000000E+00  0.00000000000E+00  0.19369756007E+03  0.19369756007E+03  0.00000000000E+00 0. -1.
         -2   -1    0    0    0  501 -0.00000000000E+00 -0.00000000000E+00 -0.65393106758E+02  0.65393106758E+02  0.00000000000E+00 0.  1.
         25    2    1    2    0    0 -0.24693774799E+02 -0.17539839589E+02  0.72780233566E+02  0.14785864604E+03  0.12509112009E+03 0.  0.
         23    2    1    2    0    0  0.24693774799E+02  0.17539839589E+02  0.55524219749E+02  0.11123202079E+03  0.91499699362E+02 0.  0.
          5    1    3    3  502    0  0.18923660510E+02  0.26310264022E+02 -0.18475859014E+02  0.37538842368E+02  0.41800000000E+01 0.  1.
         -5    1    3    3    0  502 -0.43617435309E+02 -0.43850103612E+02  0.91256092580E+02  0.11031980367E+03  0.41800000000E+01 0.  1.
        -11    1    4    4    0    0  0.13636528668E+02  0.41116412816E+02 -0.66485637033E+01  0.43825993615E+02  0.00000000000E+00 0.  1.
         11    1    4    4    0    0  0.11057246131E+02 -0.23576573227E+02  0.62172783452E+02  0.67406027174E+02  0.00000000000E+00 0. -1.
</event>
<event>
 8    1  0.6945825E-009  0.1819407E+03  0.7561462E-02  0.1165938E+00
         -2   -1    0    0    0  501 -0.00000000000E+00  0.00000000000E+00  0.14318817947E+03  0.14318817947E+03  0.00000000000E+00 0.  1.
          2   -1    0    0  501    0  0.00000000000E+00 -0.00000000000E+00 -0.30110245803E+03  0.30110245803E+03  0.00000000000E+00 0. -1.
         25    2    1    2    0    0 -0.39278260953E+02  0.14240485641E+03 -0.18582272157E+03  0.26832649899E+03  0.12508837394E+03 0.  0.
         23    2    1    2    0    0  0.39278260953E+02 -0.14240485641E+03  0.27908443012E+02  0.17596413852E+03  0.91447099133E+02 0.  0.
          5    1    3    3  502    0  0.44849922113E+02  0.63388112158E+02 -0.67346607973E+02  0.10287179537E+03  0.41800000000E+01 0.  1.
         -5    1    3    3    0  502 -0.84128183065E+02  0.79016744252E+02 -0.11847611360E+03  0.16545470362E+03  0.41800000000E+01 0.  1.
        -11    1    4    4    0    0  0.64210144186E+02 -0.12399196304E+03  0.95878127589E+01  0.13996026460E+03  0.00000000000E+00 0. -1.
         11    1    4    4    0    0 -0.24931883234E+02 -0.18412893375E+02  0.18320630253E+02  0.36003873915E+02  0.00000000000E+00 0.  1.
</event>
<event>
 8    1  0.6945825E-009  0.1612896E+03  0.7561462E-02  0.1187248E+00
         -4   -1    0    0    0  501 -0.00000000000E+00  0.00000000000E+00  0.26930131256E+02  0.26930131256E+02  0.00000000000E+00 0. -1.
          4   -1    0    0  501    0  0.00000000000E+00 -0.00000000000E+00 -0.10913706831E+04  0.10913706831E+04  0.00000000000E+00 0.  1.
         25    2    1    2    0    0  0.12246381014E+03  0.50229065688E+02 -0.56198106559E+03  0.59075446994E+03  0.12509109417E+03 0.  0.
         23    2    1    2    0    0 -0.12246381014E+03 -0.50229065688E+02 -0.50245948623E+03  0.52754634439E+03  0.91210012302E+02 0.  0.
          5    1    3    3  502    0  0.13767549287E+03  0.69971569799E+02 -0.51116263494E+03  0.53399931992E+03  0.41800000000E+01 0. -1.
         -5    1    3    3    0  502 -0.15211682733E+02 -0.19742504111E+02 -0.50818430652E+02  0.56755150023E+02  0.41800000000E+01 0. -1.
        -11    1    4    4    0    0 -0.94196282146E+02 -0.61377814054E+02 -0.46925962556E+03  0.48253991733E+03  0.00000000000E+00 0.  1.
         11    1    4    4    0    0 -0.28267527992E+02  0.11148748366E+02 -0.33199860663E+02  0.45006427063E+02  0.00000000000E+00 0. -1.
</event>
<event>
 8    1  0.6945825E-009  0.1120777E+03  0.7561462E-02  0.1256770E+00
         -1   -1    0    0    0  501 -0.00000000000E+00  0.00000000000E+00  0.89872334121E+02  0.89872334121E+02  0.00000000000E+00 0.  1.
          1   -1    0    0  501    0  0.00000000000E+00 -0.00000000000E+00 -0.28285034599E+03  0.28285034599E+03  0.00000000000E+00 0. -1.
         25    2    1    2    0    0  0.52309223362E+02 -0.27022080694E+01 -0.22523868989E+03  0.26291557700E+03  0.12509427017E+03 0.  0.
         23    2    1    2    0    0 -0.52309223362E+02  0.27022080694E+01  0.32260678027E+02  0.10980710311E+03  0.90957637219E+02 0.  0.
          5    1    3    3  502    0 -0.27485684797E+02 -0.24539027221E+02 -0.13682334692E+03  0.14175939964E+03  0.41800000000E+01 0. -1.
         -5    1    3    3    0  502  0.79794908159E+02  0.21836819151E+02 -0.88415342974E+02  0.12115617736E+03  0.41800000000E+01 0. -1.
        -11    1    4    4    0    0 -0.69580330243E+02 -0.22990774155E+02  0.28474662822E+02  0.78618092547E+02  0.00000000000E+00 0.  1.
         11    1    4    4    0    0  0.17271106881E+02  0.25692982225E+02  0.37860152049E+01  0.31189010558E+02  0.00000000000E+00 0. -1.
</event>
<event>
 8    1  0.6945825E-009  0.1864646E+03  0.7561462E-02  0.1161689E+00
         -2   -1    0    0    0  501 -0.00000000000E+00  0.00000000000E+00  0.58021342838E+02  0.58021342838E+02  0.00000000000E+00 0.  1.
          2   -1    0    0  501    0  0.00000000000E+00 -0.00000000000E+00 -0.76786717628E+03  0.76786717628E+03  0.00000000000E+00 0. -1.
         25    2    1    2    0    0  0.12357959478E+03  0.10313002717E+03 -0.52267508973E+03  0.56102287861E+03  0.12509876960E+03 0.  0.
         23    2    1    2    0    0 -0.12357959478E+03 -0.10313002717E+03 -0.18717074371E+03  0.26486564050E+03  0.95985423191E+02 0.  0.
          5    1    3    3  502    0  0.13276670912E+03  0.67385334089E+02 -0.29640475910E+03  0.33172433724E+03  0.41800000000E+01 0. -1.
         -5    1    3    3    0  502 -0.91871143354E+01  0.35744693085E+02 -0.22627033063E+03  0.22929854137E+03  0.41800000000E+01 0. -1.
        -11    1    4    4    0    0 -0.74235320184E+02 -0.11425780308E+03 -0.14538765401E+03  0.19925686504E+03  0.00000000000E+00 0.  1.
         11    1    4    4    0    0 -0.49344274599E+02  0.11127775908E+02 -0.41783089706E+02  0.65608775462E+02  0.00000000000E+00 0. -1.
</event>
<event>
 8    1  0.6945825E-009  0.1000919E+03  0.7561462E-02  0.1280103E+00
          2   -1    0    0  501    0  0.00000000000E+00  0.00000000000E+00  0.17311787089E+03  0.17311787089E+03  0.00000000000E+00 0. -1.
         -2   -1    0    0    0  501 -0.00000000000E+00 -0.00000000000E+00 -0.74810107471E+02  0.74810107471E+02  0.00000000000E+00 0.  1.
         25    2    1    2    0    0 -0.33646897178E+02  0.31170638042E+01  0.58515378239E+02  0.14217295522E+03  0.12508904800E+03 0.  0.
         23    2    1    2    0    0  0.33646897178E+02 -0.31170638042E+01  0.39792385177E+02  0.10575502314E+03  0.91972067631E+02 0.  0.
          5    1    3    3  502    0 -0.40639882861E+02  0.44378870928E+02 -0.10621236938E+02  0.61248406819E+02  0.41800000000E+01 0.  1.
         -5    1    3    3    0  502  0.69929856822E+01 -0.41261807124E+02  0.69136615177E+02  0.80924548402E+02  0.41800000000E+01 0.  1.
        -11    1    4    4    0    0  0.39220859042E+02 -0.42614491271E+02  0.20416395804E+02  0.61409281611E+02  0.00000000000E+00 0.  1.
         11    1    4    4    0    0 -0.55739618639E+01  0.39497427467E+02  0.19375989373E+02  0.44345741527E+02  0.00000000000E+00 0. -1.
</event>
<event>
 8    1  0.6945825E-009  0.1279102E+03  0.7561462E-02  0.1230590E+00
          2   -1    0    0  501    0  0.00000000000E+00  0.00000000000E+00  0.68836829646E+03  0.68836829646E+03  0.00000000000E+00 0. -1.
         -2   -1    0    0    0  501 -0.00000000000E+00 -0.00000000000E+00 -0.37982407462E+02  0.37982407462E+02  0.00000000000E+00 0.  1.
         25    2    1    2    0    0  0.54674708522E+02  0.79124304971E+02  0.18106822747E+03  0.24017563763E+03  0.12509458231E+03 0.  0.
         23    2    1    2    0    0 -0.54674708522E+02 -0.79124304971E+02  0.46931766153E+03  0.48617506629E+03  0.82807899833E+02 0.  0.
          5    1    3    3  502    0 -0.19982746153E+02 -0.12425596684E+02  0.83657539513E+02  0.87004378706E+02  0.41800000000E+01 0.  1.
         -5    1    3    3    0  502  0.74657454675E+02  0.91549901655E+02  0.97410687958E+02  0.15317125892E+03  0.41800000000E+01 0.  1.
        -11    1    4    4    0    0 -0.38840389862E+02 -0.64945851336E+01  0.72981095654E+02  0.82927654275E+02  0.00000000000E+00 0.  1.
         11    1    4    4    0    0 -0.15834318659E+02 -0.72629719838E+02  0.39633656587E+03  0.40324741202E+03  0.00000000000E+00 0. -1.
</event>
<event>
 8    1  0.6945825E-009  0.1649765E+03  0.7561462E-02  0.1183190E+00
          1   -1    0    0  501    0  0.00000000000E+00  0.00000000000E+00  0.14291365703E+03  0.14291365703E+03  0.00000000000E+00 0. -1.
         -1   -1    0    0    0  501 -0.00000000000E+00 -0.00000000000E+00 -0.21999938510E+03  0.21999938510E+03  0.00000000000E+00 0.  1.
         25    2    1    2    0    0 -0.10004339914E+03 -0.80479615480E+02  0.15730955682E+02  0.17994060313E+03  0.12508200297E+03 0.  0.
         23    2    1    2    0    0  0.10004339914E+03  0.80479615480E+02 -0.92816683748E+02  0.18297243900E+03  0.91533198521E+02 0.  0.
          5    1    3    3  502    0 -0.12978417708E+03 -0.65894028564E+02  0.90777800046E+01  0.14589665558E+03  0.41800000000E+01 0. -1.
         -5    1    3    3    0  502  0.29740777937E+02 -0.14585586917E+02  0.66531756773E+01  0.34043947547E+02  0.41800000000E+01 0. -1.
        -11    1    4    4    0    0  0.64426263132E+02  0.93053701870E+02 -0.44429410477E+02  0.12158826970E+03  0.00000000000E+00 0. -1.
         11    1    4    4    0    0  0.35617136009E+02 -0.12574086390E+02 -0.48387273271E+02  0.61384169300E+02  0.00000000000E+00 0.  1.
</event>
<event>
 8    1  0.6945825E-009  0.7509819E+02  0.7561462E-02  0.1343567E+00
          1   -1    0    0  501    0  0.00000000000E+00  0.00000000000E+00  0.21137741093E+03  0.21137741093E+03  0.00000000000E+00 0. -1.
         -1   -1    0    0    0  501 -0.00000000000E+00 -0.00000000000E+00 -0.70983422439E+02  0.70983422439E+02  0.00000000000E+00 0.  1.
         25    2    1    2    0    0  0.58253582182E+02  0.47352690282E+01  0.86499056453E+02  0.16292924104E+03  0.12509175916E+03 0.  0.
         23    2    1    2    0    0 -0.58253582182E+02 -0.47352690282E+01  0.53894932035E+02  0.11943159233E+03  0.89125411284E+02 0.  0.
          5    1    3    3  502    0  0.11412577608E+02 -0.63265858879E+01 -0.32081597906E+02  0.34885153588E+02  0.41800000000E+01 0.  1.
         -5    1    3    3    0  502  0.46841004574E+02  0.11061854916E+02  0.11858065436E+03  0.12804408745E+03  0.41800000000E+01 0.  1.
        -11    1    4    4    0    0 -0.10054089168E+02 -0.31490324460E+02 -0.10480194861E+02  0.34677942960E+02  0.00000000000E+00 0.  1.
         11    1    4    4    0    0 -0.48199493014E+02  0.26755055432E+02  0.64375126896E+02  0.84753649366E+02  0.00000000000E+00 0. -1.
</event>
<event>
 8    1  0.6945825E-009  0.1708876E+03  0.7561462E-02  0.1176925E+00
          2   -1    0    0  501    0  0.00000000000E+00  0.00000000000E+00  0.24712942754E+03  0.24712942754E+03  0.00000000000E+00 0. -1.
         -2   -1    0    0    0  501 -0.00000000000E+00 -0.00000000000E+00 -0.16754512516E+03  0.16754512516E+03  0.00000000000E+00 0.  1.
         25    2    1    2    0    0 -0.15319894344E+03 -0.50332460904E+01  0.12107402846E+03  0.23194871953E+03  0.12508412483E+03 0.  0.
         23    2    1    2    0    0  0.15319894344E+03  0.50332460904E+01 -0.41489726086E+02  0.18272583317E+03  0.90399573560E+02 0.  0.
          5    1    3    3  502    0 -0.50350981839E+02  0.25572419074E+02  0.11034578485E+03  0.12402755591E+03  0.41800000000E+01 0. -1.
         -5    1    3    3    0  502 -0.10284796160E+03 -0.30605665164E+02  0.10728243609E+02  0.10792116362E+03  0.41800000000E+01 0. -1.
        -11    1    4    4    0    0  0.14175044155E+03 -0.26507123497E+02 -0.36951143874E+02  0.14886639080E+03  0.00000000000E+00 0.  1.
         11    1    4    4    0    0  0.11448501890E+02  0.31540369588E+02 -0.45385822125E+01  0.33859442372E+02  0.00000000000E+00 0. -1.
</event>
<event>
 8    1  0.6945825E-009  0.9018351E+02  0.7561462E-02  0.1302408E+00
         -1   -1    0    0    0  501 -0.00000000000E+00  0.00000000000E+00  0.55479023120E+02  0.55479023120E+02  0.00000000000E+00 0.  1.
          1   -1    0    0  501    0  0.00000000000E+00 -0.00000000000E+00 -0.21546658570E+03  0.21546658570E+03  0.00000000000E+00 0. -1.
         25    2    1    2    0    0 -0.17171817819E+02 -0.64201796567E+01 -0.10072891235E+03  0.16164444490E+03  0.12508606136E+03 0.  0.
         23    2    1    2    0    0  0.17171817819E+02  0.64201796567E+01 -0.59258650224E+02  0.10930116392E+03  0.89994815264E+02 0.  0.
          5    1    3    3  502    0  0.46128793560E+02  0.23583573727E+02 -0.22747224273E+02  0.56735871872E+02  0.41800000000E+01 0.  1.
         -5    1    3    3    0  502 -0.63300611379E+02 -0.30003753383E+02 -0.77981688080E+02  0.10490857302E+03  0.41800000000E+01 0.  1.
        -11    1    4    4    0    0  0.36947807759E+02  0.96249939461E+01  0.80963257911E+01  0.39029879554E+02  0.00000000000E+00 0.  1.
         11    1    4    4    0    0 -0.19775989940E+02 -0.32048142895E+01 -0.67354976015E+02  0.70271284368E+02  0.00000000000E+00 0. -1.
</event>
<event>
 8    1  0.6945825E-009  0.8273474E+02  0.7561462E-02  0.1321465E+00
         -1   -1    0    0    0  501 -0.00000000000E+00  0.00000000000E+00  0.24231259220E+02  0.24231259220E+02  0.00000000000E+00 0.  1.
          1   -1    0    0  501    0  0.00000000000E+00 -0.00000000000E+00 -0.13761846806E+04  0.13761846806E+04  0.00000000000E+00 0. -1.
         25    2    1    2    0    0  0.63225357120E+02  0.12956092633E+02 -0.12184906569E+04  0.12265931730E+04  0.12508407101E+03 0.  0.
         23    2    1    2    0    0 -0.63225357120E+02 -0.12956092633E+02 -0.13346276440E+03  0.17382276681E+03  0.90756479986E+02 0.  0.
          5    1    3    3  502    0  0.32400494513E+02 -0.15670513844E+02 -0.86094540502E+02  0.93408240285E+02  0.41800000000E+01 0.  1.
         -5    1    3    3    0  502  0.30824862606E+02  0.28626606477E+02 -0.11323961164E+04  0.11331849327E+04  0.41800000000E+01 0.  1.
        -11    1    4    4    0    0 -0.47507453857E+02  0.19144580427E+02 -0.12773880072E+03  0.13762512249E+03  0.00000000000E+00 0. -1.
         11    1    4    4    0    0 -0.15717903263E+02 -0.32100673061E+02 -0.57239636865E+01  0.36197644319E+02  0.00000000000E+00 0.  1.
</event>
<event>
 8    1  0.6945825E-009  0.1142658E+03  0.7561462E-02  0.1252868E+00
         -2   -1    0    0    0  501 -0.00000000000E+00  0.00000000000E+00  0.15935241426E+03  0.15935241426E+03  0.00000000000E+00 0.  1.
          2   -1    0    0  501    0  0.00000000000E+00 -0.00000000000E+00 -0.96994093503E+02  0.96994093503E+02  0.00000000000E+00 0. -1.
         25    2    1    2    0    0 -0.37824259641E+02  0.46178692064E+02  0.36095373966E+02  0.14322405673E+03  0.12508840148E+03 0.  0.
         23    2    1    2    0    0  0.37824259641E+02 -0.46178692064E+02  0.26262946792E+02  0.11312245104E+03  0.92432680023E+02 0.  0.
          5    1    3    3  502    0  0.16770027908E+02 -0.29454233034E+02  0.36317128527E+02  0.49851699110E+02  0.41800000000E+01 0. -1.
         -5    1    3    3    0  502 -0.54594287549E+02  0.75632925098E+02 -0.22175456116E+00  0.93372357617E+02  0.41800000000E+01 0. -1.
        -11    1    4    4    0    0  0.16240342074E+02 -0.68239663007E+02  0.38387963779E+02  0.79962716819E+02  0.00000000000E+00 0.  1.
         11    1    4    4    0    0  0.21583917567E+02  0.22060970942E+02 -0.12125016987E+02  0.33159734218E+02  0.00000000000E+00 0. -1.
</event>
<event>
 8    1  0.6945825E-009  0.5216945E+02  0.7561462E-02  0.1433979E+00
          1   -1    0    0  501    0  0.00000000000E+00  0.00000000000E+00  0.41760493473E+03  0.41760493473E+03  0.00000000000E+00 0. -1.
         -1   -1    0    0    0  501 -0.00000000000E+00 -0.00000000000E+00 -0.39687045969E+02  0.39687045969E+02  0.00000000000E+00 0.  1.
         25    2    1    2    0    0 -0.19549043460E+02  0.13884794779E+02  0.31954159436E+03  0.34399079149E+03  0.12509149244E+03 0.  0.
         23    2    1    2    0    0  0.19549043460E+02 -0.13884794779E+02  0.58376294406E+02  0.11330118921E+03  0.94097901684E+02 0.  0.
          5    1    3    3  502    0 -0.16613225269E+02  0.55059574722E+01 -0.54885602757E+01  0.18812536124E+02  0.41800000000E+01 0.  1.
         -5    1    3    3    0  502 -0.29358181906E+01  0.83788373066E+01  0.32503015464E+03  0.32517825537E+03  0.41800000000E+01 0.  1.
        -11    1    4    4    0    0  0.47103593117E+02 -0.40608668942E+01 -0.80439168299E+00  0.47285158036E+02  0.00000000000E+00 0.  1.
         11    1    4    4    0    0 -0.27554549657E+02 -0.98239278846E+01  0.59180686089E+02  0.66016031173E+02  0.00000000000E+00 0. -1.
</event>
<event>
 8    1  0.6945825E-009  0.1390299E+03  0.7561462E-02  0.1214640E+00
         -2   -1    0    0    0  501 -0.00000000000E+00  0.00000000000E+00  0.57182627895E+03  0.57182627895E+03  0.00000000000E+00 0.  1.
          2   -1    0    0  501    0  0.00000000000E+00 -0.00000000000E+00 -0.36591216367E+02  0.36591216367E+02  0.00000000000E+00 0. -1.
         25    2    1    2    0    0 -0.93734061880E+02 -0.13264580678E+02  0.30903322606E+03  0.34657085948E+03  0.12509117624E+03 0.  0.
         23    2    1    2    0    0  0.93734061880E+02  0.13264580678E+02  0.22620183652E+03  0.26184663584E+03  0.91838806598E+02 0.  0.
          5    1    3    3  502    0 -0.10094185521E+03  0.35493130103E+02  0.22158075632E+03  0.24609860704E+03  0.41800000000E+01 0.  1.
         -5    1    3    3    0  502  0.72077933305E+01 -0.48757710781E+02  0.87452469740E+02  0.10047225243E+03  0.41800000000E+01 0.  1.
        -11    1    4    4    0    0  0.55723662268E+02 -0.30518150491E+02  0.16835622123E+03  0.17994527300E+03  0.00000000000E+00 0.  1.
         11    1    4    4    0    0  0.38010399612E+02  0.43782731169E+02  0.57845615288E+02  0.81901362841E+02  0.00000000000E+00 0. -1.
</event>
<event>
 8    1  0.6945825E-009  0.7233128E+02  0.7561462E-02  0.1352340E+00
          2   -1    0    0  501    0  0.00000000000E+00  0.00000000000E+00  0.87521102910E+02  0.87521102910E+02  0.00000000000E+00 0. -1.
         -2   -1    0    0    0  501 -0.00000000000E+00 -0.00000000000E+00 -0.15981873838E+03  0.15981873838E+03  0.00000000000E+00 0.  1.
         25    2    1    2    0    0 -0.29182021975E+02  0.63403654742E+01 -0.21125904437E+01  0.12862268232E+03  0.12509013041E+03 0.  0.
         23    2    1    2    0    0  0.29182021975E+02 -0.63403654742E+01 -0.70185045031E+02  0.11871715898E+03  0.90972702766E+02 0.  0.
          5    1    3    3  502    0 -0.96760701766E+01 -0.39484702345E+02  0.44402844677E+02  0.60346939183E+02  0.41800000000E+01 0.  1.
         -5    1    3    3    0  502 -0.19505951799E+02  0.45825067819E+02 -0.46515435120E+02  0.68275743135E+02  0.41800000000E+01 0.  1.
        -11    1    4    4    0    0  0.11424135726E+02  0.19418384629E+02 -0.82178200735E+02  0.85210569854E+02  0.00000000000E+00 0.  1.
         11    1    4    4    0    0  0.17757886249E+02 -0.25758750103E+02  0.11993155704E+02  0.33506589123E+02  0.00000000000E+00 0. -1.
</event>
<event>
 8    1  0.6945825E-009  0.6980635E+02  0.7561462E-02  0.1360753E+00
         -1   -1    0    0    0  501 -0.00000000000E+00  0.00000000000E+00  0.54601800856E+03  0.54601800856E+03  0.00000000000E+00 0.  1.
          1   -1    0    0  501    0  0.00000000000E+00 -0.00000000000E+00 -0.21566795710E+02  0.21566795710E+02  0.00000000000E+00 0. -1.
         25    2    1    2    0    0 -0.52680959532E+01  0.57600167829E+01  0.32362710252E+03  0.34704832330E+03  0.12508839511E+03 0.  0.
         23    2    1    2    0    0  0.52680959532E+01 -0.57600167829E+01  0.20082411033E+03  0.22053648097E+03  0.90802453273E+02 0.  0.
          5    1    3    3  502    0 -0.27116793633E+02  0.16035367758E+02  0.11250302328E+02  0.33711944746E+02  0.41800000000E+01 0.  1.
         -5    1    3    3    0  502  0.21848697680E+02 -0.10275350975E+02  0.31237680019E+03  0.31333637856E+03  0.41800000000E+01 0.  1.
        -11    1    4    4    0    0  0.21204671029E+02 -0.40161865088E+02  0.63466510896E+02  0.78042369814E+02  0.00000000000E+00 0.  1.
         11    1    4    4    0    0 -0.15936575075E+02  0.34401848305E+02  0.13735759944E+03  0.14249411116E+03  0.00000000000E+00 0. -1.
</event>
<event>
 8    1  0.6945825E-009  0.1295054E+03  0.7561462E-02  0.1228192E+00
          2   -1    0    0  501    0  0.00000000000E+00  0.00000000000E+00  0.43214611103E+03  0.43214611103E+03  0.00000000000E+00 0.  1.
         -2   -1    0    0    0  501 -0.00000000000E+00 -0.00000000000E+00 -0.51718426208E+02  0.51718426208E+02  0.00000000000E+00 0. -1.
         25    2    1    2    0    0  0.76089454025E+02  0.64160324502E+02  0.24024954805E+03  0.28857108386E+03  0.12508905967E+03 0.  0.
         23    2    1    2    0    0 -0.76089454025E+02 -0.64160324502E+02  0.14017813677E+03  0.19529345337E+03  0.92647021802E+02 0.  0.
          5    1    3    3  502    0  0.39181895271E+02  0.97691015411E+02  0.19232878890E+03  0.21928654963E+03  0.41800000000E+01 0. -1.
         -5    1    3    3    0  502  0.36907558754E+02 -0.33530690909E+02  0.47920759148E+02  0.69284534229E+02  0.41800000000E+01 0. -1.
        -11    1    4    4    0    0 -0.35251205173E+02 -0.11681987672E+02  0.12028227486E+03  0.12588463746E+03  0.00000000000E+00 0.  1.
         11    1    4    4    0    0 -0.40838248852E+02 -0.52478336829E+02  0.19895861906E+02  0.69408815915E+02  0.00000000000E+00 0. -1.
</event>
<event>
 8    1  0.6945825E-009  0.1463503E+03  0.7561462E-02  0.1205031E+00
          2   -1    0    0  501    0  0.00000000000E+00  0.00000000000E+00  0.59678481099E+03  0.59678481099E+03  0.00000000000E+00 0. -1.
         -2   -1    0    0    0  501 -0.00000000000E+00 -0.00000000000E+00 -0.50852372892E+02  0.50852372892E+02  0.00000000000E+00 0.  1.
         25    2    1    2    0    0  0.13256049075E+03 -0.13903256196E+02  0.23001331884E+03  0.29380148357E+03  0.12509036998E+03 0.  0.
         23    2    1    2    0    0 -0.13256049075E+03  0.13903256196E+02  0.31591911926E+03  0.35383570031E+03  0.87345455887E+02 0.  0.
          5    1    3    3  502    0  0.11063617634E+02  0.26897091089E+02 -0.12025455843E+01  0.29407068199E+02  0.41800000000E+01 0. -1.
         -5    1    3    3    0  502  0.12149687312E+03 -0.40800347285E+02  0.23121586443E+03  0.26439441537E+03  0.41800000000E+01 0. -1.
        -11    1    4    4    0    0 -0.18317974076E+02  0.97873906346E+01  0.33748756305E+01  0.21041173332E+02  0.00000000000E+00 0.  1.
         11    1    4    4    0    0 -0.11424251668E+03  0.41158655614E+01  0.31254424362E+03  0.33279452698E+03  0.00000000000E+00 0. -1.
</event>
<event>
 8    1  0.6945825E-009  0.9587149E+02  0.7561462E-02  0.1289225E+00
          1   -1    0    0  501    0  0.00000000000E+00  0.00000000000E+00  0.43636973018E+02  0.43636973018E+02  0.00000000000E+00 0.  1.
         -1   -1    0    0    0  501 -0.00000000000E+00 -0.00000000000E+00 -0.41818745371E+03  0.41818745371E+03  0.00000000000E+00 0. -1.
         25    2    1    2    0    0  0.79289609321E+02 -0.92715631596E+01 -0.21449373565E+03  0.26082713756E+03  0.12510167476E+03 0.  0.
         23    2    1    2    0    0 -0.79289609321E+02  0.92715631596E+01 -0.16005674504E+03  0.20099728917E+03  0.91700297642E+02 0.  0.
          5    1    3    3  502    0  0.76531644861E+02  0.12388031116E+02 -0.22368104433E+03  0.23677254480E+03  0.41800000000E+01 0.  1.
         -5    1    3    3    0  502  0.27579644602E+01 -0.21659594276E+02  0.91873086802E+01  0.24054592762E+02  0.41800000000E+01 0.  1.
        -11    1    4    4    0    0 -0.52921432519E+02  0.27670529063E+02 -0.15784988163E+03  0.16876883993E+03  0.00000000000E+00 0. -1.
         11    1    4    4    0    0 -0.26368176802E+02 -0.18398965903E+02 -0.22068634112E+01  0.32228449238E+02  0.00000000000E+00 0.  1.
</event>
<event>
 8    1  0.6945825E-009  0.1068241E+03  0.7561462E-02  0.1266567E+00
         -2   -1    0    0    0  501 -0.00000000000E+00  0.00000000000E+00  0.50772016564E+02  0.50772016564E+02  0.00000000000E+00 0.  1.
          2   -1    0    0  501    0  0.00000000000E+00 -0.00000000000E+00 -0.37397358238E+03  0.37397358238E+03  0.00000000000E+00 0. -1.
         25    2    1    2    0    0 -0.45906911278E+02 -0.42524557991E+02 -0.26421233732E+03  0.29895150128E+03  0.12509219955E+03 0.  0.
         23    2    1    2    0    0  0.45906911278E+02  0.42524557991E+02 -0.58989228493E+02  0.12579409767E+03  0.91807643440E+02 0.  0.
          5    1    3    3  502    0 -0.87595989284E+02 -0.31002524961E+02 -0.20842146621E+03  0.22823495321E+03  0.41800000000E+01 0.  1.
         -5    1    3    3    0  502  0.41689078007E+02 -0.11522033030E+02 -0.55790871113E+02  0.70716548061E+02  0.41800000000E+01 0.  1.
        -11    1    4    4    0    0  0.37492951769E+02  0.39520875143E+01 -0.74405240453E+02  0.83411511406E+02  0.00000000000E+00 0. -1.
         11    1    4    4    0    0  0.84139595089E+01  0.38572470477E+02  0.15416011960E+02  0.42382586260E+02  0.00000000000E+00 0.  1.
</event>
<event>
 8    1  0.6945825E-009  0.8853115E+02  0.7561462E-02  0.1306448E+00
          2   -1    0    0  501    0  0.00000000000E+00  0.00000000000E+00  0.17919065503E+03  0.17919065503E+03  0.00000000000E+00 0. -1.
         -2   -1    0    0    0  501 -0.00000000000E+00 -0.00000000000E+00 -0.75484041791E+02  0.75484041791E+02  0.00000000000E+00 0.  1.
         25    2    1    2    0    0  0.32112923036E+02 -0.46439634193E+00  0.70565500730E+02  0.14716817692E+03  0.12509007520E+03 0.  0.
         23    2    1    2    0    0 -0.32112923036E+02  0.46439634193E+00  0.33141112504E+02  0.10750651990E+03  0.97097183239E+02 0.  0.
          5    1    3    3  502    0  0.73141955565E+02 -0.16801324008E+02  0.16001411616E+02  0.76847561614E+02  0.41800000000E+01 0.  1.
         -5    1    3    3    0  502 -0.41029032530E+02  0.16336927666E+02  0.54564089114E+02  0.70320615304E+02  0.41800000000E+01 0.  1.
        -11    1    4    4    0    0  0.11927927121E+02  0.56432458110E+01 -0.28596234711E+02  0.31493909067E+02  0.00000000000E+00 0.  1.
         11    1    4    4    0    0 -0.44040850156E+02 -0.51788494691E+01  0.61737347216E+02  0.76012610832E+02  0.00000000000E+00 0. -1.
</event>
<event>
 8    1  0.6945825E-009  0.1416577E+03  0.7561462E-02  0.1211116E+00
          1   -1    0    0  501    0  0.00000000000E+00  0.00000000000E+00  0.99525167383E+02  0.99525167383E+02  0.00000000000E+00 0. -1.
         -1   -1    0    0    0  501 -0.00000000000E+00 -0.00000000000E+00 -0.33433164245E+03  0.33433164245E+03  0.00000000000E+00 0.  1.
         25    2    1    2    0    0 -0.11348384094E+03  0.84392367432E+01 -0.14386781270E+02  0.16972015099E+03  0.12509255496E+03 0.  0.
         23    2    1    2    0    0  0.11348384094E+03 -0.84392367432E+01 -0.22041969380E+03  0.26413665884E+03  0.90738802399E+02 0.  0.
          5    1    3    3  502    0 -0.10246052633E+02  0.53461962277E+02  0.68755853475E+01  0.55026439817E+02  0.41800000000E+01 0.  1.
         -5    1    3    3    0  502 -0.10323778830E+03 -0.45022725534E+02 -0.21262366617E+02  0.11469371117E+03  0.41800000000E+01 0.  1.
        -11    1    4    4    0    0  0.68302407321E+02 -0.16135286062E+02 -0.46283005964E+02  0.84069512567E+02  0.00000000000E+00 0. -1.
         11    1    4    4    0    0  0.45181433615E+02  0.76960493185E+01 -0.17413668783E+03  0.18006714628E+03  0.00000000000E+00 0.  1.
</event>
<event>
 8    1  0.6945825E-009  0.2014282E+03  0.7561462E-02  0.1148540E+00
         -2   -1    0    0    0  501 -0.00000000000E+00  0.00000000000E+00  0.46538478061E+02  0.46538478061E+02  0.00000000000E+00 0.  1.
          2   -1    0    0  501    0  0.00000000000E+00 -0.00000000000E+00 -0.10230845959E+04  0.10230845959E+04  0.00000000000E+00 0. -1.
         25    2    1    2    0    0  0.12042309408E+03 -0.14114139723E+03 -0.59598913626E+03  0.63661060526E+03  0.12508955424E+03 0.  0.
         23    2    1    2    0    0 -0.12042309408E+03  0.14114139723E+03 -0.38055698160E+03  0.43301246873E+03  0.90849139960E+02 0.  0.
          5    1    3    3  502    0  0.24471944453E+02 -0.11256398319E+03 -0.40296054377E+03  0.41912313061E+03  0.41800000000E+01 0. -1.
         -5    1    3    3    0  502  0.95951149625E+02 -0.28577414038E+02 -0.19302859249E+03  0.21748747464E+03  0.41800000000E+01 0. -1.
        -11    1    4    4    0    0 -0.41430146381E+02  0.30540173428E+02 -0.20291159746E+03  0.20933770708E+03  0.00000000000E+00 0. -1.
         11    1    4    4    0    0 -0.78992947697E+02  0.11060122380E+03 -0.17764538414E+03  0.22367476165E+03  0.00000000000E+00 0.  1.
</event>
<event>
 8    1  0.6945825E-009  0.1154636E+03  0.7561462E-02  0.1250774E+00
          1   -1    0    0  501    0  0.00000000000E+00  0.00000000000E+00  0.92494992430E+02  0.92494992430E+02  0.00000000000E+00 0. -1.
         -1   -1    0    0    0  501 -0.00000000000E+00 -0.00000000000E+00 -0.17419090150E+03  0.17419090150E+03  0.00000000000E+00 0.  1.
         25    2    1    2    0    0 -0.49899528262E+02 -0.46646941901E+02 -0.40395405613E+02  0.14813653885E+03  0.12508695071E+03 0.  0.
         23    2    1    2    0    0  0.49899528262E+02  0.46646941901E+02 -0.41300503458E+02  0.11854935508E+03  0.87648832819E+02 0.  0.
          5    1    3    3  502    0 -0.79700556261E+02 -0.27946310205E+02 -0.63577947895E+02  0.10579604331E+03  0.41800000000E+01 0.  1.
         -5    1    3    3    0  502  0.29801028000E+02 -0.18700631696E+02  0.23182542282E+02  0.42340495537E+02  0.41800000000E+01 0.  1.
        -11    1    4    4    0    0  0.60467461132E+01 -0.25663912520E+02 -0.12779352123E+02  0.29300364931E+02  0.00000000000E+00 0.  1.
         11    1    4    4    0    0  0.43852782148E+02  0.72310854421E+02 -0.28521151335E+02  0.89248990149E+02  0.00000000000E+00 0. -1.
</event>
<event>
 8    1  0.6945825E-009  0.1265546E+03  0.7561462E-02  0.1232660E+00
         -2   -1    0    0    0  501 -0.00000000000E+00  0.00000000000E+00  0.38793778270E+02  0.38793778270E+02  0.00000000000E+00 0.  1.
          2   -1    0    0  501    0  0.00000000000E+00 -0.00000000000E+00 -0.42401078879E+03  0.42401078879E+03  0.00000000000E+00 0. -1.
         25    2    1    2    0    0 -0.64306834989E+02  0.24226863439E+02 -0.23778780328E+03  0.27733151417E+03  0.12508964556E+03 0.  0.
         23    2    1    2    0    0  0.64306834989E+02 -0.24226863439E+02 -0.14742920724E+03  0.18547305289E+03  0.89121110077E+02 0.  0.
          5    1    3    3  502    0 -0.88735870658E+02 -0.20633573764E+02 -0.16032423173E+03  0.18444817914E+03  0.41800000000E+01 0. -1.
         -5    1    3    3    0  502  0.24429035668E+02  0.44860437203E+02 -0.77463571546E+02  0.92883335031E+02  0.41800000000E+01 0. -1.
        -11    1    4    4    0    0  0.57451546255E+02  0.23770008586E+02 -0.65779195385E+02  0.90512960513E+02  0.00000000000E+00 0. -1.
         11    1    4    4    0    0  0.68552887342E+01 -0.47996872025E+02 -0.81650011855E+02  0.94960092374E+02  0.00000000000E+00 0.  1.
</event>
<event>
 8    1  0.6945825E-009  0.1295879E+03  0.7561462E-02  0.1228069E+00
          2   -1    0    0  501    0  0.00000000000E+00  0.00000000000E+00  0.33230555106E+03  0.33230555106E+03  0.00000000000E+00 0. -1.
         -2   -1    0    0    0  501 -0.00000000000E+00 -0.00000000000E+00 -0.71007023222E+02  0.71007023222E+02  0.00000000000E+00 0.  1.
         25    2    1    2    0    0  0.72258376857E+02  0.66536722204E+02  0.19741999586E+03  0.25351814074E+03  0.12509350300E+03 0.  0.
         23    2    1    2    0    0 -0.72258376857E+02 -0.66536722204E+02  0.63878531984E+02  0.14979443354E+03  0.93324686147E+02 0.  0.
          5    1    3    3  502    0 -0.41793506508E+01 -0.30702854616E+02  0.19705376392E+02  0.36958172468E+02  0.41800000000E+01 0. -1.
         -5    1    3    3    0  502  0.76437727508E+02  0.97239576821E+02  0.17771461946E+03  0.21655996827E+03  0.41800000000E+01 0. -1.
        -11    1    4    4    0    0 -0.23110570282E+02 -0.44805318132E+02 -0.16553437960E+02  0.53062522556E+02  0.00000000000E+00 0.  1.
         11    1    4    4    0    0 -0.49147806575E+02 -0.21731404072E+02  0.80431969945E+02  0.96731910988E+02  0.00000000000E+00 0. -1.
</event>
<event>
 8    1  0.6945825E-009  0.1238586E+03  0.7561462E-02  0.1236864E+00
         -2   -1    0    0    0  501 -0.00000000000E+00  0.00000000000E+00  0.61881910291E+02  0.61881910291E+02  0.00000000000E+00 0.  1.
          2   -1    0    0  501    0  0.00000000000E+00 -0.00000000000E+00 -0.43621536023E+03  0.43621536023E+03  0.00000000000E+00 0. -1.
         25    2    1    2    0    0 -0.11448803141E+02  0.70587514579E+02 -0.47981270053E+02  0.15186287056E+03  0.12508579804E+03 0.  0.
         23    2    1    2    0    0  0.11448803141E+02 -0.70587514579E+02 -0.32635217989E+03  0.34623439996E+03  0.90878171695E+02 0.  0.
          5    1    3    3  502    0 -0.63532486219E+02  0.38587151039E+02 -0.67312932213E+00  0.74453143208E+02  0.41800000000E+01 0. -1.
         -5    1    3    3    0  502  0.52083683078E+02  0.32000363540E+02 -0.47308140731E+02  0.77409727354E+02  0.41800000000E+01 0. -1.
        -11    1    4    4    0    0  0.33140672510E+02  0.48568999371E+01 -0.61953335435E+02  0.70428044294E+02  0.00000000000E+00 0.  1.
         11    1    4    4    0    0 -0.21691869369E+02 -0.75444414516E+02 -0.26439884445E+03  0.27580635567E+03  0.00000000000E+00 0. -1.
</event>
<event>
 8    1  0.6945825E-009  0.1383026E+03  0.7561462E-02  0.1215631E+00
          1   -1    0    0  501    0  0.00000000000E+00  0.00000000000E+00  0.19221654040E+03  0.19221654040E+03  0.00000000000E+00 0. -1.
         -1   -1    0    0    0  501 -0.00000000000E+00 -0.00000000000E+00 -0.15143463204E+03  0.15143463204E+03  0.00000000000E+00 0.  1.
         25    2    1    2    0    0 -0.10934675414E+03  0.67990407102E+02  0.48208435217E+02  0.18587951326E+03  0.12509089544E+03 0.  0.
         23    2    1    2    0    0  0.10934675414E+03 -0.67990407102E+02 -0.74265268594E+01  0.15777165918E+03  0.90869879725E+02 0.  0.
          5    1    3    3  502    0 -0.20258010081E+02  0.76285902720E+01  0.72247068764E+02  0.75536042436E+02  0.41800000000E+01 0. -1.
         -5    1    3    3    0  502 -0.89088744062E+02  0.60361816830E+02 -0.24038633547E+02  0.11034347082E+03  0.41800000000E+01 0. -1.
        -11    1    4    4    0    0  0.42603072191E+02 -0.67856116470E+02 -0.32515539415E+02  0.86468113232E+02  0.00000000000E+00 0.  1.
         11    1    4    4    0    0  0.66743681952E+02 -0.13429063261E+00  0.25089012555E+02  0.71303545953E+02  0.00000000000E+00 0. -1.
</event>
<event>
 8    1  0.6945825E-009  0.1326744E+03  0.7561462E-02  0.1223541E+00
         -1   -1    0    0    0  501 -0.00000000000E+00  0.00000000000E+00  0.68274011927E+03  0.68274011927E+03  0.00000000000E+00 0. -1.
          1   -1    0    0  501    0  0.00000000000E+00 -0.00000000000E+00 -0.36226309174E+02  0.36226309174E+02  0.00000000000E+00 0.  1.
         25    2    1    2    0    0 -0.75925493471E+02 -0.84572229214E+02  0.36945852584E+03  0.40628192901E+03  0.12509300943E+03 0.  0.
         23    2    1    2    0    0  0.75925493471E+02  0.84572229214E+02  0.27705528425E+03  0.31268449943E+03  0.89971235073E+02 0.  0.
          5    1    3    3  502    0  0.40858343218E+01  0.52435874638E+01 -0.73269665672E+01  0.10739929733E+02  0.41800000000E+01 0.  1.
         -5    1    3    3    0  502 -0.80011327792E+02 -0.89815816677E+02  0.37678549241E+03  0.39554199928E+03  0.41800000000E+01 0.  1.
        -11    1    4    4    0    0  0.22219035895E+02  0.80237094167E+02  0.11548931420E+03  0.14237084860E+03  0.00000000000E+00 0. -1.
         11    1    4    4    0    0  0.53706457576E+02  0.43351350464E+01  0.16156597005E+03  0.17031365083E+03  0.00000000000E+00 0.  1.
</event>
<event>
 8    1  0.6945825E-009  0.6252939E+02  0.7561462E-02  0.1387513E+00
         -3   -1    0    0    0  501 -0.00000000000E+00  0.00000000000E+00  0.17757097818E+03  0.17757097818E+03  0.00000000000E+00 0.  1.
          3   -1    0    0  501    0  0.00000000000E+00 -0.00000000000E+00 -0.81497908457E+02  0.81497908457E+02  0.00000000000E+00 0. -1.
         25    2    1    2    0    0 -0.36696180243E+02 -0.32718536020E+02  0.37394291347E+02  0.13950099006E+03  0.12508029804E+03 0.  0.
         23    2    1    2    0    0  0.36696180243E+02  0.32718536020E+02  0.58678778378E+02  0.11956789658E+03  0.91848628823E+02 0.  0.
          5    1    3    3  502    0 -0.50618048398E+01  0.15559810524E+02  0.70728312801E+02  0.72716546971E+02  0.41800000000E+01 0. -1.
         -5    1    3    3    0  502 -0.31634375403E+02 -0.48278346545E+02 -0.33334021454E+02  0.66784443088E+02  0.41800000000E+01 0. -1.
        -11    1    4    4    0    0  0.70899345172E+01  0.12751994221E+02 -0.24799084261E+02  0.28772818914E+02  0.00000000000E+00 0. -1.
         11    1    4    4    0    0  0.29606245726E+02  0.19966541799E+02  0.83477862639E+02  0.90795077665E+02  0.00000000000E+00 0.  1.
</event>
<event>
 8    1  0.6945825E-009  0.9339809E+02  0.7561462E-02  0.1294825E+00
         -4   -1    0    0    0  501 -0.00000000000E+00  0.00000000000E+00  0.50182134854E+03  0.50182134854E+03  0.00000000000E+00 0.  1.
          4   -1    0    0  501    0  0.00000000000E+00 -0.00000000000E+00 -0.32987227436E+02  0.32987227436E+02  0.00000000000E+00 0. -1.
         25    2    1    2    0    0 -0.38919276216E+02  0.16332308729E+02  0.37307882527E+03  0.39574859177E+03  0.12509070169E+03 0.  0.
         23    2    1    2    0    0  0.38919276216E+02 -0.16332308729E+02  0.95755295835E+02  0.13905998421E+03  0.91581374520E+02 0.  0.
          5    1    3    3  502    0 -0.70786658963E+02  0.44833113273E+02  0.29423944654E+03  0.30596582070E+03  0.41800000000E+01 0.  1.
         -5    1    3    3    0  502  0.31867382747E+02 -0.28500804544E+02  0.78839378728E+02  0.89782771070E+02  0.41800000000E+01 0.  1.
        -11    1    4    4    0    0 -0.23626608042E+01 -0.18457861305E+02  0.95934897214E+02  0.97722972291E+02  0.00000000000E+00 0.  1.
         11    1    4    4    0    0  0.41281937021E+02  0.21255525757E+01 -0.17960137820E+00  0.41337011921E+02  0.00000000000E+00 0. -1.
</event>
<event>
 8    1  0.6945825E-009  0.1182591E+03  0.7561462E-02  0.1245997E+00
         -3   -1    0    0    0  501 -0.00000000000E+00  0.00000000000E+00  0.95615438087E+02  0.95615438087E+02  0.00000000000E+00 0.  1.
          3   -1    0    0  501    0  0.00000000000E+00 -0.00000000000E+00 -0.36794451113E+03  0.36794451113E+03  0.00000000000E+00 0. -1.
         25    2    1    2    0    0 -0.60078041403E+02  0.36950077284E+02  0.24183721529E+02  0.14562798089E+03  0.12509187488E+03 0.  0.
         23    2    1    2    0    0  0.60078041403E+02 -0.36950077284E+02 -0.29651279457E+03  0.31793196833E+03  0.90477731354E+02 0.  0.
          5    1    3    3  502    0 -0.36594547286E+02  0.72137269728E+02 -0.20914130360E+02  0.83652972593E+02  0.41800000000E+01 0.  1.
         -5    1    3    3    0  502 -0.23483494117E+02 -0.35187192444E+02  0.45097851889E+02  0.61975008294E+02  0.41800000000E+01 0.  1.
        -11    1    4    4    0    0  0.36450686056E+02  0.26657238693E+02 -0.14615922583E+03  0.15297640401E+03  0.00000000000E+00 0. -1.
         11    1    4    4    0    0  0.23627355347E+02 -0.63607315977E+02 -0.15035356874E+03  0.16495556432E+03  0.00000000000E+00 0.  1.
</event>
<event>
 8    1  0.6945825E-009  0.1139180E+03  0.7561462E-02  0.1253482E+00
         -1   -1    0    0    0  501 -0.00000000000E+00  0.00000000000E+00  0.43081488311E+02  0.43081488311E+02  0.00000000000E+00 0.  1.
          1   -1    0    0  501    0  0.00000000000E+00 -0.00000000000E+00 -0.42688321850E+03  0.42688321850E+03  0.00000000000E+00 0. -1.
         25    2    1    2    0    0  0.80768809440E+02  0.12060589716E+02 -0.18658394085E+03  0.23901838840E+03  0.12508862701E+03 0.  0.
         23    2    1    2    0    0 -0.80768809440E+02 -0.12060589716E+02 -0.19721778934E+03  0.23094631841E+03  0.88160575953E+02 0.  0.
          5    1    3    3  502    0  0.26840237693E+02  0.62747741130E+02 -0.54032801123E+02  0.87147537966E+02  0.41800000000E+01 0. -1.
         -5    1    3    3    0  502  0.53928571747E+02 -0.50687151413E+02 -0.13255113973E+03  0.15187085044E+03  0.41800000000E+01 0. -1.
        -11    1    4    4    0    0 -0.52787417328E+02  0.42268698349E+01 -0.30495302163E+02  0.61109257161E+02  0.00000000000E+00 0.  1.
         11    1    4    4    0    0 -0.27981392112E+02 -0.16287459551E+02 -0.16672248718E+03  0.16983706125E+03  0.00000000000E+00 0. -1.
</event>
<event>
 8    1  0.6945825E-009  0.1567815E+03  0.7561462E-02  0.1192379E+00
          2   -1    0    0  501    0  0.00000000000E+00  0.00000000000E+00  0.35775979145E+03  0.35775979145E+03  0.00000000000E+00 0. -1.
         -2   -1    0    0    0  501 -0.00000000000E+00 -0.00000000000E+00 -0.11882913673E+03  0.11882913673E+03  0.00000000000E+00 0.  1.
         25    2    1    2    0    0  0.12804202385E+03  0.18243899587E+02  0.26374669273E+03  0.31927507213E+03  0.12508658608E+03 0.  0.
         23    2    1    2    0    0 -0.12804202385E+03 -0.18243899587E+02 -0.24816038003E+02  0.15731385605E+03  0.86047741522E+02 0.  0.
          5    1    3    3  502    0  0.17420131981E+02 -0.32527860442E+02  0.14312188672E+03  0.14786098053E+03  0.41800000000E+01 0.  1.
         -5    1    3    3    0  502  0.11062189187E+03  0.50771760030E+02  0.12062480600E+03  0.17141409160E+03  0.41800000000E+01 0.  1.
        -11    1    4    4    0    0 -0.14071931599E+03 -0.18686861140E+02 -0.18537069492E+02  0.14315986734E+03  0.00000000000E+00 0. -1.
         11    1    4    4    0    0  0.12677292140E+02  0.44296155306E+00 -0.62789685112E+01  0.14153988714E+02  0.00000000000E+00 0.  1.
</event>
<event>
 8    1  0.6945825E-009  0.3199867E+03  0.7561462E-02  0.1075655E+00
          2   -1    0    0  501    0  0.00000000000E+00  0.00000000000E+00  0.65342668912E+03  0.65342668912E+03  0.00000000000E+00 0. -1.
         -2   -1    0    0    0  501 -0.00000000000E+00 -0.00000000000E+00 -0.17121006060E+03  0.17121006060E+03  0.00000000000E+00 0.  1.
         25    2    1    2    0    0  0.13766908553E+03  0.28278184515E+03  0.20569286038E+03  0.39607444556E+03  0.12508822710E+03 0.  0.
         23    2    1    2    0    0 -0.13766908553E+03 -0.28278184515E+03  0.27652376814E+03  0.42856230417E+03  0.91004973239E+02 0.  0.
          5    1    3    3  502    0  0.45892278100E+02  0.15617832085E+03  0.17044692284E+03  0.23572737431E+03  0.41800000000E+01 0. -1.
         -5    1    3    3    0  502  0.91776807431E+02  0.12660352429E+03  0.35245937544E+02  0.16034707125E+03  0.41800000000E+01 0. -1.
        -11    1    4    4    0    0 -0.12789461902E+02 -0.90752406686E+02  0.42271887166E+02  0.10092810362E+03  0.00000000000E+00 0.  1.
         11    1    4    4    0    0 -0.12487962363E+03 -0.19202943846E+03  0.23425188097E+03  0.32763420055E+03  0.00000000000E+00 0. -1.
</event>
<event>
 8    1  0.6945825E-009  0.5749952E+02  0.7561462E-02  0.1408635E+00
          3   -1    0    0  501    0  0.00000000000E+00  0.00000000000E+00  0.28543238695E+02  0.28543238695E+02  0.00000000000E+00 0. -1.
         -3   -1    0    0    0  501 -0.00000000000E+00 -0.00000000000E+00 -0.44928635545E+03  0.44928635545E+03  0.00000000000E+00 0.  1.
         25    2    1    2    0    0 -0.33928570586E+02 -0.26722096579E+01 -0.22939397707E+03  0.26349113441E+03  0.12509073743E+03 0.  0.
         23    2    1    2    0    0  0.33928570586E+02  0.26722096579E+01 -0.19134913969E+03  0.21433845974E+03  0.90378058494E+02 0.  0.
          5    1    3    3  502    0 -0.44354473514E+02 -0.25957511735E+01 -0.24230347181E+03  0.24637877769E+03  0.41800000000E+01 0. -1.
         -5    1    3    3    0  502  0.10425902928E+02 -0.76458484481E-01  0.12909494745E+02  0.17112356715E+02  0.41800000000E+01 0. -1.
        -11    1    4    4    0    0  0.30753343950E+02  0.23102400252E+02 -0.18974110630E+03  0.19360055910E+03  0.00000000000E+00 0.  1.
         11    1    4    4    0    0  0.31752266363E+01 -0.20430190594E+02 -0.16080333922E+01  0.20737900648E+02  0.00000000000E+00 0. -1.
</event>
<event>
 8    1  0.6945825E-009  0.1226084E+03  0.7561462E-02  0.1238855E+00
          1   -1    0    0  501    0  0.00000000000E+00  0.00000000000E+00  0.30938649753E+03  0.30938649753E+03  0.00000000000E+00 0. -1.
         -1   -1    0    0    0  501 -0.00000000000E+00 -0.00000000000E+00 -0.98574273969E+02  0.98574273969E+02  0.00000000000E+00 0.  1.
         25    2    1    2    0    0  0.26812398263E+02  0.59898262154E+02 -0.30520305756E+02  0.14451869055E+03  0.12508979313E+03 0.  0.
         23    2    1    2    0    0 -0.26812398263E+02 -0.59898262154E+02  0.24133252931E+03  0.26344208095E+03  0.82786676462E+02 0.  0.
          5    1    3    3  502    0 -0.94595226778E+01 -0.36626136871E+02 -0.79058519976E+01  0.38870700626E+02  0.41800000000E+01 0.  1.
         -5    1    3    3    0  502  0.36271920941E+02  0.96524399024E+02 -0.22614453758E+02  0.10564798992E+03  0.41800000000E+01 0.  1.
        -11    1    4    4    0    0 -0.55811196448E+02 -0.36364907649E+02  0.13105979326E+03  0.14701688871E+03  0.00000000000E+00 0.  1.
         11    1    4    4    0    0  0.28998798185E+02 -0.23533354505E+02  0.11027273605E+03  0.11642519223E+03  0.00000000000E+00 0. -1.
</event>
<event>
 8    1  0.6945825E-009  0.7315885E+02  0.7561462E-02  0.1349669E+00
         -1   -1    0    0    0  501 -0.00000000000E+00  0.00000000000E+00  0.45960410716E+02  0.45960410716E+02  0.00000000000E+00 0.  1.
          1   -1    0    0  501    0  0.00000000000E+00 -0.00000000000E+00 -0.57316683610E+03  0.57316683610E+03  0.00000000000E+00 0. -1.
         25    2    1    2    0    0 -0.48940900626E+02  0.92824809570E+01 -0.49271124038E+03  0.51077735282E+03  0.12509101308E+03 0.  0.
         23    2    1    2    0    0  0.48940900626E+02 -0.92824809570E+01 -0.34495185004E+02  0.10834989399E+03  0.89824303687E+02 0.  0.
          5    1    3    3  502    0 -0.36058988218E+02 -0.21006894892E+02 -0.43801340787E+02  0.60642972545E+02  0.41800000000E+01 0.  1.
         -5    1    3    3    0  502 -0.12881912408E+02  0.30289375849E+02 -0.44890989959E+03  0.45013438028E+03  0.41800000000E+01 0.  1.
        -11    1    4    4    0    0  0.23938417893E+01  0.17387595356E+02  0.23510793322E+02  0.29339672005E+02  0.00000000000E+00 0.  1.
         11    1    4    4    0    0  0.46547058837E+02 -0.26670076313E+02 -0.58005978326E+02  0.79010221987E+02  0.00000000000E+00 0. -1.
</event>
<event>
 8    1  0.6945825E-009  0.1042344E+03  0.7561462E-02  0.1271635E+00
         -2   -1    0    0    0  501 -0.00000000000E+00  0.00000000000E+00  0.79058495328E+02  0.79058495328E+02  0.00000000000E+00 0.  1.
          2   -1    0    0  501    0  0.00000000000E+00 -0.00000000000E+00 -0.16781380950E+03  0.16781380950E+03  0.00000000000E+00 0. -1.
         25    2    1    2    0    0  0.97895980330E+01 -0.20029300635E+01 -0.94548694906E+02  0.15712127352E+03  0.12509113049E+03 0.  0.
         23    2    1    2    0    0 -0.97895980330E+01  0.20029300635E+01  0.57933807348E+01  0.89751031304E+02  0.89004698760E+02 0.  0.
          5    1    3    3  502    0 -0.45400781981E+01 -0.61209073562E+02 -0.30619818717E+02  0.68718328665E+02  0.41800000000E+01 0.  1.
         -5    1    3    3    0  502  0.14329676231E+02  0.59206143498E+02 -0.63928876188E+02  0.88402944858E+02  0.41800000000E+01 0.  1.
        -11    1    4    4    0    0  0.30152995186E+02  0.25551473470E+02 -0.99982098566E+01  0.40768187542E+02  0.00000000000E+00 0. -1.
         11    1    4    4    0    0 -0.39942593219E+02 -0.23548543406E+02  0.15791590591E+02  0.48982843762E+02  0.00000000000E+00 0.  1.
</event>
<event>
 8    1  0.6945825E-009  0.1059244E+03  0.7561462E-02  0.1268309E+00
         -1   -1    0    0    0  501 -0.00000000000E+00  0.00000000000E+00  0.59612275847E+02  0.59612275847E+02  0.00000000000E+00 0.  1.
          1   -1    0    0  501    0  0.00000000000E+00 -0.00000000000E+00 -0.29604152598E+03  0.29604152598E+03  0.00000000000E+00 0. -1.
         25    2    1    2    0    0 -0.19845325284E+02 -0.34921340544E+01 -0.31523752761E+02  0.13056637495E+03  0.12509116413E+03 0.  0.
         23    2    1    2    0    0  0.19845325284E+02  0.34921340544E+01 -0.20490549737E+03  0.22508742688E+03  0.90950838095E+02 0.  0.
          5    1    3    3  502    0 -0.17147036132E+01 -0.62946975450E+02 -0.65463851492E+01  0.63447533327E+02  0.41800000000E+01 0. -1.
         -5    1    3    3    0  502 -0.18130621671E+02  0.59454841396E+02 -0.24977367612E+02  0.67118841620E+02  0.41800000000E+01 0. -1.
        -11    1    4    4    0    0  0.40285483962E+02 -0.27884366016E+02 -0.72606735374E+02  0.87591073220E+02  0.00000000000E+00 0.  1.
         11    1    4    4    0    0 -0.20440158678E+02  0.31376500071E+02 -0.13229876200E+03  0.13749635366E+03  0.00000000000E+00 0. -1.
</event>
<event>
 8    1  0.6945825E-009  0.1318363E+03  0.7561462E-02  0.1224756E+00
          2   -1    0    0  501    0  0.00000000000E+00  0.00000000000E+00  0.37150002144E+03  0.37150002144E+03  0.00000000000E+00 0.  1.
         -2   -1    0    0    0  501 -0.00000000000E+00 -0.00000000000E+00 -0.57009806412E+02  0.57009806412E+02  0.00000000000E+00 0. -1.
         25    2    1    2    0    0  0.18461754178E+02  0.83761510493E+02  0.24042426208E+03  0.28426929828E+03  0.12509348961E+03 0.  0.
         23    2    1    2    0    0 -0.18461754178E+02 -0.83761510493E+02  0.74065952952E+02  0.14424052957E+03  0.89234174938E+02 0.  0.
          5    1    3    3  502    0 -0.46114806342E+02  0.49876508788E+02  0.64426969635E+02  0.93715251209E+02  0.41800000000E+01 0. -1.
         -5    1    3    3    0  502  0.64576560519E+02  0.33885001704E+02  0.17599729244E+03  0.19055404707E+03  0.41800000000E+01 0. -1.
        -11    1    4    4    0    0  0.33833553858E+02 -0.49828814203E+02  0.46436723391E+02  0.76052543487E+02  0.00000000000E+00 0.  1.
         11    1    4    4    0    0 -0.52295308036E+02 -0.33932696290E+02  0.27629229561E+02  0.68187986084E+02  0.00000000000E+00 0. -1.
</event>
<event>
 8    1  0.6945825E-009  0.1302087E+03  0.7561462E-02  0.1227146E+00
         -1   -1    0    0    0  501 -0.00000000000E+00  0.00000000000E+00  0.86381990629E+02  0.86381990629E+02  0.00000000000E+00 0.  1.
          1   -1    0    0  501    0  0.00000000000E+00 -0.00000000000E+00 -0.23678736473E+03  0.23678736473E+03  0.00000000000E+00 0. -1.
         25    2    1    2    0    0 -0.78834071791E+02  0.20346429518E+02 -0.13527233859E+03  0.20143100949E+03  0.12508820060E+03 0.  0.
         23    2    1    2    0    0  0.78834071791E+02 -0.20346429518E+02 -0.15133035509E+02  0.12173834586E+03  0.89232438159E+02 0.  0.
          5    1    3    3  502    0 -0.10728504537E+03  0.27998036303E+02 -0.74158328041E+02  0.13345748767E+03  0.41800000000E+01 0. -1.
         -5    1    3    3    0  502  0.28450973581E+02 -0.76516067850E+01 -0.61114010546E+02  0.67973521824E+02  0.41800000000E+01 0. -1.
        -11    1    4    4    0    0  0.88371834594E+01  0.31423239699E+02  0.30973676341E+01  0.32788862300E+02  0.00000000000E+00 0.  1.
         11    1    4    4    0    0  0.69996888331E+02 -0.51769669217E+02 -0.18230403144E+02  0.88949483560E+02  0.00000000000E+00 0. -1.
</event>
<event>
 8    1  0.6945825E-009  0.1484690E+03  0.7561462E-02  0.1202367E+00
          1   -1    0    0  501    0  0.00000000000E+00  0.00000000000E+00  0.39207462362E+03  0.39207462362E+03  0.00000000000E+00 0. -1.
         -1   -1    0    0    0  501 -0.00000000000E+00 -0.00000000000E+00 -0.61663930197E+02  0.61663930197E+02  0.00000000000E+00 0.  1.
         25    2    1    2    0    0 -0.29848139474E+02 -0.11022302070E+03  0.17398817295E+03  0.24281610060E+03  0.12509096155E+03 0.  0.
         23    2    1    2    0    0  0.29848139474E+02  0.11022302070E+03  0.15642252048E+03  0.21092245322E+03  0.83547894271E+02 0.  0.
          5    1    3    3  502    0 -0.61103810825E+02 -0.10767524830E+03  0.90146458386E+02  0.15320408334E+03  0.41800000000E+01 0. -1.
         -5    1    3    3    0  502  0.31255671351E+02 -0.25477724015E+01  0.83841714561E+02  0.89612017254E+02  0.41800000000E+01 0. -1.
        -11    1    4    4    0    0  0.46012111620E+02  0.20697536873E+02  0.52713678103E+02  0.72967350970E+02  0.00000000000E+00 0. -1.
         11    1    4    4    0    0 -0.16163972147E+02  0.89525483828E+02  0.10370884237E+03  0.13795510225E+03  0.00000000000E+00 0.  1.
</event>
<event>
 8    1  0.6945825E-009  0.1250032E+03  0.7561462E-02  0.1235064E+00
         -3   -1    0    0    0  501 -0.00000000000E+00  0.00000000000E+00  0.26387104264E+03  0.26387104264E+03  0.00000000000E+00 0.  1.
          3   -1    0    0  501    0  0.00000000000E+00 -0.00000000000E+00 -0.63394061201E+02  0.63394061201E+02  0.00000000000E+00 0. -1.
         25    2    1    2    0    0 -0.19534726916E+02  0.64983768707E+02  0.98972965809E+02  0.17334220887E+03  0.12508947863E+03 0.  0.
         23    2    1    2    0    0  0.19534726916E+02 -0.64983768707E+02  0.10150401563E+03  0.15392289497E+03  0.93726712612E+02 0.  0.
          5    1    3    3  502    0 -0.12885632372E+02  0.10163790413E+03  0.57981542885E+02  0.11779488441E+03  0.41800000000E+01 0. -1.
         -5    1    3    3    0  502 -0.66490945435E+01 -0.36654135419E+02  0.40991422924E+02  0.55547324462E+02  0.41800000000E+01 0. -1.
        -11    1    4    4    0    0 -0.12221957280E+02 -0.75536943482E+02  0.46504011694E+02  0.89542331743E+02  0.00000000000E+00 0. -1.
         11    1    4    4    0    0  0.31756684196E+02  0.10553174775E+02  0.55000003935E+02  0.64380563230E+02  0.00000000000E+00 0.  1.
</event>
<event>
 8    1  0.6945825E-009  0.7462908E+02  0.7561462E-02  0.1345023E+00
          2   -1    0    0  501    0  0.00000000000E+00  0.00000000000E+00  0.70982456089E+03  0.70982456089E+03  0.00000000000E+00 0. -1.
         -2   -1    0    0    0  501 -0.00000000000E+00 -0.00000000000E+00 -0.20117916912E+02  0.20117916912E+02  0.00000000000E+00 0.  1.
         25    2    1    2    0    0 -0.29435384339E+02  0.26175413017E+02  0.29489506045E+03  0.32274569379E+03  0.12510032807E+03 0.  0.
         23    2    1    2    0    0  0.29435384339E+02 -0.26175413017E+02  0.39481158353E+03  0.40719678401E+03  0.91550206576E+02 0.  0.
          5    1    3    3  502    0 -0.12325109963E+02 -0.10771841719E+02 -0.68552187148E+01  0.18232041390E+02  0.41800000000E+01 0.  1.
         -5    1    3    3    0  502 -0.17110274376E+02  0.36947254735E+02  0.30175027917E+03  0.30451365240E+03  0.41800000000E+01 0.  1.
        -11    1    4    4    0    0 -0.28933899878E+02 -0.12284475598E+02  0.67876608195E+02  0.74801823794E+02  0.00000000000E+00 0.  1.
         11    1    4    4    0    0  0.58369284217E+02 -0.13890937419E+02  0.32693497533E+03  0.33239496022E+03  0.00000000000E+00 0. -1.
</event>
<event>
 8    1  0.6945825E-009  0.3625478E+03  0.7561462E-02  0.1057580E+00
         -2   -1    0    0    0  501 -0.00000000000E+00  0.00000000000E+00  0.30017081867E+03  0.30017081867E+03  0.00000000000E+00 0. -1.
          2   -1    0    0  501    0  0.00000000000E+00 -0.00000000000E+00 -0.61505395600E+03  0.61505395600E+03  0.00000000000E+00 0.  1.
         25    2    1    2    0    0 -0.27194664392E+03  0.22293464121E+03  0.76717501970E+02  0.38103477668E+03  0.12508834693E+03 0.  0.
         23    2    1    2    0    0  0.27194664392E+03 -0.22293464121E+03 -0.39160063930E+03  0.53418999799E+03  0.91395086601E+02 0.  0.
          5    1    3    3  502    0 -0.20731663812E+03  0.22596815663E+03  0.49248336424E+02  0.31061981150E+03  0.41800000000E+01 0.  1.
         -5    1    3    3    0  502 -0.64630005802E+02 -0.30335154240E+01  0.27469165546E+02  0.70414965182E+02  0.41800000000E+01 0.  1.
        -11    1    4    4    0    0  0.15599067040E+03 -0.10411345744E+03 -0.26847015999E+03  0.32748882130E+03  0.00000000000E+00 0.  1.
         11    1    4    4    0    0  0.11595597352E+03 -0.11882118377E+03 -0.12313047931E+03  0.20670117669E+03  0.00000000000E+00 0. -1.
</event>
<event>
 8    1  0.6945825E-009  0.1101454E+03  0.7561462E-02  0.1260301E+00
         -1   -1    0    0    0  501 -0.00000000000E+00  0.00000000000E+00  0.29574581898E+03  0.29574581898E+03  0.00000000000E+00 0.  1.
          1   -1    0    0  501    0  0.00000000000E+00 -0.00000000000E+00 -0.41979873652E+02  0.41979873652E+02  0.00000000000E+00 0. -1.
         25    2    1    2    0    0  0.20628068112E+02  0.16724200498E+02  0.15767474957E+03  0.20301379743E+03  0.12509220287E+03 0.  0.
         23    2    1    2    0    0 -0.20628068112E+02 -0.16724200498E+02  0.96091195756E+02  0.13471189520E+03  0.90601107774E+02 0.  0.
          5    1    3    3  502    0 -0.49211373391E+02  0.25979763451E+02  0.85242764033E+02  0.10188478100E+03  0.41800000000E+01 0.  1.
         -5    1    3    3    0  502  0.69839441503E+02 -0.92555629527E+01  0.72431985539E+02  0.10112901643E+03  0.41800000000E+01 0.  1.
        -11    1    4    4    0    0 -0.52526860623E+02  0.85447038891E+01  0.61252163160E+02  0.81141299862E+02  0.00000000000E+00 0. -1.
         11    1    4    4    0    0  0.31898792511E+02 -0.25268904387E+02  0.34839032596E+02  0.53570595337E+02  0.00000000000E+00 0.  1.
</event>
<event>
 8    1  0.6945825E-009  0.1039586E+03  0.7561462E-02  0.1272185E+00
         -2   -1    0    0    0  501 -0.00000000000E+00  0.00000000000E+00  0.78034222342E+02  0.78034222342E+02  0.00000000000E+00 0.  1.
          2   -1    0    0  501    0  0.00000000000E+00 -0.00000000000E+00 -0.20255576292E+03  0.20255576292E+03  0.00000000000E+00 0. -1.
         25    2    1    2    0    0 -0.14171354069E+02  0.37531720517E+02 -0.15010799909E+02  0.13222081971E+03  0.12509022235E+03 0.  0.
         23    2    1    2    0    0  0.14171354069E+02 -0.37531720517E+02 -0.10951074067E+03  0.14836916555E+03  0.91713410386E+02 0.  0.
          5    1    3    3  502    0 -0.65532463133E+02  0.33589752560E+01 -0.23465696447E+02  0.69813306388E+02  0.41800000000E+01 0.  1.
         -5    1    3    3    0  502  0.51361109065E+02  0.34172745261E+02  0.84548965382E+01  0.62407513318E+02  0.41800000000E+01 0.  1.
        -11    1    4    4    0    0 -0.27599076105E+02 -0.23562637534E+02 -0.72219547174E+01  0.37000858360E+02  0.00000000000E+00 0.  1.
         11    1    4    4    0    0  0.41770430174E+02 -0.13969082984E+02 -0.10228878595E+03  0.11136830720E+03  0.00000000000E+00 0. -1.
</event>
<event>
 8    1  0.6945825E-009  0.1035555E+03  0.7561462E-02  0.1272992E+00
          1   -1    0    0  501    0  0.00000000000E+00  0.00000000000E+00  0.19024373244E+04  0.19024373244E+04  0.00000000000E+00 0. -1.
         -1   -1    0    0    0  501 -0.00000000000E+00 -0.00000000000E+00 -0.15810592326E+02  0.15810592326E+02  0.00000000000E+00 0.  1.
         25    2    1    2    0    0 -0.21080731347E+01  0.56745799580E+01  0.17484898257E+04  0.17529695280E+04  0.12509536652E+03 0.  0.
         23    2    1    2    0    0  0.21080731347E+01 -0.56745799580E+01  0.13813690639E+03  0.16527838873E+03  0.90545546797E+02 0.  0.
          5    1    3    3  502    0 -0.35155942069E+02  0.50073266347E+02  0.12275854302E+04  0.12291162407E+04  0.41800000000E+01 0.  1.
         -5    1    3    3    0  502  0.33047868934E+02 -0.44398686389E+02  0.52090439544E+03  0.52385328727E+03  0.41800000000E+01 0.  1.
        -11    1    4    4    0    0 -0.43903987078E+02  0.12555558171E+00  0.58823917993E+02  0.73401833585E+02  0.00000000000E+00 0. -1.
         11    1    4    4    0    0  0.46012060213E+02 -0.58001355397E+01  0.79312988393E+02  0.91876555144E+02  0.00000000000E+00 0.  1.
</event>
<event>
 8    1  0.6945825E-009  0.1239249E+03  0.7561462E-02  0.1236759E+00
          1   -1    0    0  501    0  0.00000000000E+00  0.00000000000E+00  0.23274006575E+03  0.23274006575E+03  0.00000000000E+00 0. -1.
         -1   -1    0    0    0  501 -0.00000000000E+00 -0.00000000000E+00 -0.11298343475E+03  0.11298343475E+03  0.00000000000E+00 0.  1.
         25    2    1    2    0    0 -0.10164770427E+03  0.13448518268E+00  0.49435576227E+01  0.16125871180E+03  0.12509060516E+03 0.  0.
         23    2    1    2    0    0  0.10164770427E+03 -0.13448518268E+00  0.11481307338E+03  0.18446478870E+03  0.10253264154E+03 0.  0.
          5    1    3    3  502    0 -0.56471392985E+02  0.13783173143E+02 -0.58169402973E+02  0.82341641530E+02  0.41800000000E+01 0.  1.
         -5    1    3    3    0  502 -0.45176311286E+02 -0.13648687960E+02  0.63112960596E+02  0.78917070268E+02  0.41800000000E+01 0.  1.
        -11    1    4    4    0    0 -0.17444054228E+02  0.13862118734E+02  0.73960542496E+01  0.23476690188E+02  0.00000000000E+00 0.  1.
         11    1    4    4    0    0  0.11909175850E+03 -0.13996603917E+02  0.10741701913E+03  0.16098809851E+03  0.00000000000E+00 0. -1.
</event>
<event>
 8    1  0.6945825E-009  0.1019828E+03  0.7561462E-02  0.1276181E+00
          1   -1    0    0  501    0  0.00000000000E+00  0.00000000000E+00  0.41181407135E+03  0.41181407135E+03  0.00000000000E+00 0.  1.
         -1   -1    0    0    0  501 -0.00000000000E+00 -0.00000000000E+00 -0.46456518530E+02  0.46456518530E+02  0.00000000000E+00 0. -1.
         25    2    1    2    0    0  0.80696508940E+02  0.26138235768E+02  0.22237647744E+03  0.26887453065E+03  0.12508829517E+03 0.  0.
         23    2    1    2    0    0 -0.80696508940E+02 -0.26138235768E+02  0.14298107538E+03  0.18939605923E+03  0.90731171114E+02 0.  0.
          5    1    3    3  502    0  0.44110778979E+02  0.76280279808E+01  0.22316878866E+03  0.22765264828E+03  0.41800000000E+01 0.  1.
         -5    1    3    3    0  502  0.36585729961E+02  0.18510207787E+02 -0.79231122631E+00  0.41221882370E+02  0.41800000000E+01 0.  1.
        -11    1    4    4    0    0 -0.24231239669E+02 -0.50717009757E+02  0.38543723973E+02  0.68154139363E+02  0.00000000000E+00 0. -1.
         11    1    4    4    0    0 -0.56465269271E+02  0.24578773989E+02  0.10443735141E+03  0.12124191987E+03  0.00000000000E+00 0.  1.
</event>
<event>
 8    1  0.6945825E-009  0.8185680E+02  0.7561462E-02  0.1323863E+00
         -2   -1    0    0    0  501 -0.00000000000E+00  0.00000000000E+00  0.84573012510E+02  0.84573012510E+02  0.00000000000E+00 0. -1.
          2   -1    0    0  501    0  0.00000000000E+00 -0.00000000000E+00 -0.15873560500E+03  0.15873560500E+03  0.00000000000E+00 0.  1.
         25    2    1    2    0    0 -0.14994736574E+02  0.36420221401E+02 -0.31323078392E+02  0.13483597003E+03  0.12509328089E+03 0.  0.
         23    2    1    2    0    0  0.14994736574E+02 -0.36420221401E+02 -0.42839514103E+02  0.10847264748E+03  0.91541338373E+02 0.  0.
          5    1    3    3  502    0  0.41890251596E+02 -0.17372083234E+02  0.93792913979E+01  0.46497590925E+02  0.41800000000E+01 0. -1.
         -5    1    3    3    0  502 -0.56884988170E+02  0.53792304636E+02 -0.40702369789E+02  0.88338379109E+02  0.41800000000E+01 0. -1.
        -11    1    4    4    0    0  0.88978344372E+01 -0.14460817759E+02  0.28724507170E+02  0.33367409550E+02  0.00000000000E+00 0. -1.
         11    1    4    4    0    0  0.60969021366E+01 -0.21959403642E+02 -0.71564021273E+02  0.75105237931E+02  0.00000000000E+00 0.  1.
</event>
<event>
 8    1  0.6945825E-009  0.1015714E+03  0.7561462E-02  0.1277026E+00
          1   -1    0    0  501    0  0.00000000000E+00  0.00000000000E+00  0.39500037015E+02  0.39500037015E+02  0.00000000000E+00 0. -1.
         -1   -1    0    0    0  501 -0.00000000000E+00 -0.00000000000E+00 -0.32922854669E+03  0.32922854669E+03  0.00000000000E+00 0.  1.
         25    2    1    2    0    0  0.22729365371E+02  0.38787165942E+02 -0.18944949398E+03  0.23143052836E+03  0.12509160803E+03 0.  0.
         23    2    1    2    0    0 -0.22729365371E+02 -0.38787165942E+02 -0.10027901570E+03  0.13729805534E+03  0.82303139182E+02 0.  0.
          5    1    3    3  502    0 -0.44398317646E+02 -0.14731946562E+02 -0.68064273604E+02  0.82694973248E+02  0.41800000000E+01 0. -1.
         -5    1    3    3    0  502  0.67127683017E+02  0.53519112504E+02 -0.12138522037E+03  0.14873555512E+03  0.41800000000E+01 0. -1.
        -11    1    4    4    0    0  0.10742844122E+02  0.75010110113E+01 -0.72690979660E+02  0.73862388195E+02  0.00000000000E+00 0.  1.
         11    1    4    4    0    0 -0.33472209493E+02 -0.46288176954E+02 -0.27588036043E+02  0.63435667150E+02  0.00000000000E+00 0. -1.
</event>
<event>
 8    1  0.6945825E-009  0.1751999E+03  0.7561462E-02  0.1172531E+00
         -1   -1    0    0    0  501 -0.00000000000E+00  0.00000000000E+00  0.30258744934E+03  0.30258744934E+03  0.00000000000E+00 0.  1.
          1   -1    0    0  501    0  0.00000000000E+00 -0.00000000000E+00 -0.10977786776E+03  0.10977786776E+03  0.00000000000E+00 0. -1.
         25    2    1    2    0    0  0.26355197958E+02  0.14085211690E+03  0.11827590726E+03  0.22399096363E+03  0.12509534866E+03 0.  0.
         23    2    1    2    0    0 -0.26355197958E+02 -0.14085211690E+03  0.74533674308E+02  0.18837435347E+03  0.96931486852E+02 0.  0.
          5    1    3    3  502    0 -0.20846187419E+02  0.12924366656E+03  0.11630303948E+03  0.17516380410E+03  0.41800000000E+01 0.  1.
         -5    1    3    3    0  502  0.47201385377E+02  0.11608450344E+02  0.19728677868E+01  0.48827159535E+02  0.41800000000E+01 0.  1.
        -11    1    4    4    0    0 -0.57914721021E+02 -0.11869616078E+03  0.44062656617E+02  0.13922791100E+03  0.00000000000E+00 0. -1.
         11    1    4    4    0    0  0.31559523063E+02 -0.22155956122E+02  0.30471017691E+02  0.49146442463E+02  0.00000000000E+00 0.  1.
</event>
<event>
 8    1  0.6945825E-009  0.1033202E+03  0.7561462E-02  0.1273465E+00
          2   -1    0    0  501    0  0.00000000000E+00  0.00000000000E+00  0.29456661068E+03  0.29456661068E+03  0.00000000000E+00 0. -1.
         -2   -1    0    0    0  501 -0.00000000000E+00 -0.00000000000E+00 -0.63277861365E+02  0.63277861365E+02  0.00000000000E+00 0.  1.
         25    2    1    2    0    0  0.67265913191E+02  0.19069063197E+02  0.18195399627E+03  0.23160966667E+03  0.12508976254E+03 0.  0.
         23    2    1    2    0    0 -0.67265913191E+02 -0.19069063197E+02  0.49334753053E+02  0.12623480537E+03  0.92806120382E+02 0.  0.
          5    1    3    3  502    0  0.82432492346E+02  0.10903348505E+02  0.47218790615E+02  0.95713559072E+02  0.41800000000E+01 0. -1.
         -5    1    3    3    0  502 -0.15166579155E+02  0.81657146917E+01  0.13473520565E+03  0.13589610760E+03  0.41800000000E+01 0. -1.
        -11    1    4    4    0    0  0.22230189410E+01  0.23870903044E+02 -0.92667151622E+01  0.25702798199E+02  0.00000000000E+00 0.  1.
         11    1    4    4    0    0 -0.69488932132E+02 -0.42939966241E+02  0.58601468215E+02  0.10053200718E+03  0.00000000000E+00 0. -1.
</event>
<event>
 8    1  0.6945825E-009  0.9416928E+02  0.7561462E-02  0.1293058E+00
         -1   -1    0    0    0  501 -0.00000000000E+00  0.00000000000E+00  0.90338762656E+02  0.90338762656E+02  0.00000000000E+00 0.  1.
          1   -1    0    0  501    0  0.00000000000E+00 -0.00000000000E+00 -0.20515467573E+03  0.20515467573E+03  0.00000000000E+00 0. -1.
         25    2    1    2    0    0 -0.57626243618E+02  0.32682957607E+02 -0.11296106008E+03  0.18109939610E+03  0.12509128867E+03 0.  0.
         23    2    1    2    0    0  0.57626243618E+02 -0.32682957607E+02 -0.18548529917E+01  0.11439404229E+03  0.93239459244E+02 0.  0.
          5    1    3    3  502    0 -0.31705821858E+02 -0.82566904606E+01 -0.12639793334E+03  0.13064203775E+03  0.41800000000E+01 0.  1.
         -5    1    3    3    0  502 -0.25920421760E+02  0.40939648068E+02  0.13436873252E+02  0.50457358343E+02  0.41800000000E+01 0.  1.
        -11    1    4    4    0    0  0.70745454744E+02 -0.48761946202E+02  0.15539436947E+02  0.87316211925E+02  0.00000000000E+00 0.  1.
         11    1    4    4    0    0 -0.13119211126E+02  0.16078988594E+02 -0.17394289938E+02  0.27077830364E+02  0.00000000000E+00 0. -1.
</event>
<event>
 8    1  0.6945825E-009  0.1384738E+03  0.7561462E-02  0.1215398E+00
         -2   -1    0    0    0  501 -0.00000000000E+00  0.00000000000E+00  0.31925559035E+03  0.31925559035E+03  0.00000000000E+00 0.  1.
          2   -1    0    0  501    0  0.00000000000E+00 -0.00000000000E+00 -0.14177602802E+03  0.14177602802E+03  0.00000000000E+00 0. -1.
         25    2    1    2    0    0 -0.97642858095E+02  0.65242161321E+02  0.24412963725E+03  0.29839320310E+03  0.12509419058E+03 0.  0.
         23    2    1    2    0    0  0.97642858095E+02 -0.65242161321E+02 -0.66650074923E+02  0.16263841527E+03  0.90655139313E+02 0.  0.
          5    1    3    3  502    0 -0.12020152300E+03  0.49952934454E+02  0.14231280985E+03  0.19290959032E+03  0.41800000000E+01 0. -1.
         -5    1    3    3    0  502  0.22558664906E+02  0.15289226866E+02  0.10181682740E+03  0.10548361277E+03  0.41800000000E+01 0. -1.
        -11    1    4    4    0    0  0.44294581937E+02 -0.17755839068E+02  0.18782746981E+02  0.51284221688E+02  0.00000000000E+00 0.  1.
         11    1    4    4    0    0  0.53348276158E+02 -0.47486322253E+02 -0.85432821904E+02  0.11135419358E+03  0.00000000000E+00 0. -1.
</event>
<event>
 8    1  0.6945825E-009  0.1376354E+03  0.7561462E-02  0.1216547E+00
         -1   -1    0    0    0  501 -0.00000000000E+00  0.00000000000E+00  0.66809234999E+02  0.66809234999E+02  0.00000000000E+00 0.  1.
          1   -1    0    0  501    0  0.00000000000E+00 -0.00000000000E+00 -0.35629978555E+03  0.35629978555E+03  0.00000000000E+00 0. -1.
         25    2    1    2    0    0  0.74415630310E+02  0.50019370335E+02 -0.24026931198E+03  0.28533608319E+03  0.12509082559E+03 0.  0.
         23    2    1    2    0    0 -0.74415630310E+02 -0.50019370335E+02 -0.49221238573E+02  0.13777293736E+03  0.92298583412E+02 0.  0.
          5    1    3    3  502    0 -0.34904737128E+02  0.92329077634E+01 -0.45275219934E+02  0.58059497068E+02  0.41800000000E+01 0.  1.
         -5    1    3    3    0  502  0.10932036744E+03  0.40786462571E+02 -0.19499409205E+03  0.22727658612E+03  0.41800000000E+01 0.  1.
        -11    1    4    4    0    0 -0.39891234051E+02 -0.71236725909E+02 -0.52579277606E+02  0.97111081273E+02  0.00000000000E+00 0.  1.
         11    1    4    4    0    0 -0.34524396258E+02  0.21217355574E+02  0.33580390323E+01  0.40661856091E+02  0.00000000000E+00 0. -1.
</event>
<event>
 8    1  0.6945825E-009  0.1180315E+03  0.7561462E-02  0.1246380E+00
         -2   -1    0    0    0  501 -0.00000000000E+00  0.00000000000E+00  0.19478226096E+02  0.19478226096E+02  0.00000000000E+00 0.  1.
          2   -1    0    0  501    0  0.00000000000E+00 -0.00000000000E+00 -0.83789264610E+03  0.83789264610E+03  0.00000000000E+00 0. -1.
         25    2    1    2    0    0 -0.48229433474E+02  0.39684123564E+02 -0.54551332963E+03  0.56314562011E+03  0.12508912311E+03 0.  0.
         23    2    1    2    0    0  0.48229433474E+02 -0.39684123564E+02 -0.27290109037E+03  0.29422525209E+03  0.90512904749E+02 0.  0.
          5    1    3    3  502    0 -0.55914458825E+01 -0.41673746640E+02 -0.25351733916E+03  0.25701455033E+03  0.41800000000E+01 0. -1.
         -5    1    3    3    0  502 -0.42637987591E+02  0.81357870204E+02 -0.29199599048E+03  0.30613106978E+03  0.41800000000E+01 0. -1.
        -11    1    4    4    0    0  0.51679672373E+02  0.95078414460E+01 -0.84742402755E+02  0.99711897034E+02  0.00000000000E+00 0.  1.
         11    1    4    4    0    0 -0.34502388986E+01 -0.49191965010E+02 -0.18815868762E+03  0.19451335506E+03  0.00000000000E+00 0. -1.
</event>
<event>
 8    1  0.6945825E-009  0.1042755E+03  0.7561462E-02  0.1271554E+00
          2   -1    0    0  501    0  0.00000000000E+00  0.00000000000E+00  0.33580649544E+03  0.33580649544E+03  0.00000000000E+00 0. -1.
         -2   -1    0    0    0  501 -0.00000000000E+00 -0.00000000000E+00 -0.48604458716E+02  0.48604458716E+02  0.00000000000E+00 0.  1.
         25    2    1    2    0    0 -0.45921406099E+02 -0.33788774245E+02  0.21705343318E+03  0.25692288205E+03  0.12508684049E+03 0.  0.
         23    2    1    2    0    0  0.45921406099E+02  0.33788774245E+02  0.70148603547E+02  0.12748807211E+03  0.89899528067E+02 0.  0.
          5    1    3    3  502    0  0.23363206982E+02  0.32973417818E+02  0.75072397846E+02  0.85360547335E+02  0.41800000000E+01 0. -1.
         -5    1    3    3    0  502 -0.69284613081E+02 -0.66762192063E+02  0.14198103534E+03  0.17156233472E+03  0.41800000000E+01 0. -1.
        -11    1    4    4    0    0  0.30840322671E+01  0.28256056941E+02  0.78506548137E+02  0.83493677062E+02  0.00000000000E+00 0. -1.
         11    1    4    4    0    0  0.42837373832E+02  0.55327173038E+01 -0.83579445905E+01  0.43994395045E+02  0.00000000000E+00 0.  1.
</event>
<event>
 8    1  0.6945825E-009  0.1420305E+03  0.7561462E-02  0.1210623E+00
          3   -1    0    0  501    0  0.00000000000E+00  0.00000000000E+00  0.60054188810E+03  0.60054188810E+03  0.00000000000E+00 0. -1.
         -3   -1    0    0    0  501 -0.00000000000E+00 -0.00000000000E+00 -0.43950961701E+02  0.43950961701E+02  0.00000000000E+00 0.  1.
         25    2    1    2    0    0  0.80941341112E+02 -0.80437130631E+02  0.21782159744E+03  0.27588177830E+03  0.12507147798E+03 0.  0.
         23    2    1    2    0    0 -0.80941341112E+02  0.80437130631E+02  0.33876932896E+03  0.36861107150E+03  0.89932369607E+02 0.  0.
          5    1    3    3  502    0  0.35024848027E+02 -0.10868652959E+03  0.13365571882E+03  0.17584318373E+03  0.41800000000E+01 0. -1.
         -5    1    3    3    0  502  0.45916493086E+02  0.28249398958E+02  0.84165878625E+02  0.10003859457E+03  0.41800000000E+01 0. -1.
        -11    1    4    4    0    0 -0.42317198981E+02  0.28593866554E+02  0.45822043234E+02  0.68614970526E+02  0.00000000000E+00 0.  1.
         11    1    4    4    0    0 -0.38624142131E+02  0.51843264077E+02  0.29294728573E+03  0.29999610098E+03  0.00000000000E+00 0. -1.
</event>
<event>
 8    1  0.6945825E-009  0.1300408E+03  0.7561462E-02  0.1227395E+00
          2   -1    0    0  501    0  0.00000000000E+00  0.00000000000E+00  0.18830571704E+03  0.18830571704E+03  0.00000000000E+00 0. -1.
         -2   -1    0    0    0  501 -0.00000000000E+00 -0.00000000000E+00 -0.11403770747E+03  0.11403770747E+03  0.00000000000E+00 0.  1.
         25    2    1    2    0    0  0.31792502952E+02 -0.82922904708E+02 -0.72642610865E+01  0.15357654212E+03  0.12508402549E+03 0.  0.
         23    2    1    2    0    0 -0.31792502952E+02  0.82922904708E+02  0.81532270659E+02  0.14876688238E+03  0.87161360511E+02 0.  0.
          5    1    3    3  502    0 -0.34339693820E+02 -0.61678522815E+02  0.27392941765E+02  0.75837328585E+02  0.41800000000E+01 0.  1.
         -5    1    3    3    0  502  0.66132196772E+02 -0.21244381894E+02 -0.34657202852E+02  0.77739213538E+02  0.41800000000E+01 0.  1.
        -11    1    4    4    0    0 -0.32111868608E+02 -0.44374787415E+01  0.53520525973E+01  0.32855863862E+02  0.00000000000E+00 0.  1.
         11    1    4    4    0    0  0.31936565626E+00  0.87360383450E+02  0.76180218061E+02  0.11591101852E+03  0.00000000000E+00 0. -1.
</event>
<event>
 8    1  0.6945825E-009  0.9848713E+02  0.7561462E-02  0.1283510E+00
          2   -1    0    0  501    0  0.00000000000E+00  0.00000000000E+00  0.61778467121E+02  0.61778467121E+02  0.00000000000E+00 0. -1.
         -2   -1    0    0    0  501 -0.00000000000E+00 -0.00000000000E+00 -0.24634451283E+03  0.24634451283E+03  0.00000000000E+00 0.  1.
         25    2    1    2    0    0 -0.25964517346E+02  0.61328606877E+01 -0.39349033766E+02  0.13380658815E+03  0.12507633042E+03 0.  0.
         23    2    1    2    0    0  0.25964517346E+02 -0.61328606877E+01 -0.14521701195E+03  0.17431639181E+03  0.92663130494E+02 0.  0.
          5    1    3    3  502    0 -0.45897103007E+02 -0.36697647116E+02  0.15873550901E+02  0.61013960587E+02  0.41800000000E+01 0.  1.
         -5    1    3    3    0  502  0.19932585661E+02  0.42830507803E+02 -0.55222584667E+02  0.72792627560E+02  0.41800000000E+01 0.  1.
        -11    1    4    4    0    0  0.18478328733E+02 -0.46260914271E+02 -0.10859681731E+03  0.11947715075E+03  0.00000000000E+00 0.  1.
         11    1    4    4    0    0  0.74861886132E+01  0.40128053583E+02 -0.36620194636E+02  0.54839241055E+02  0.00000000000E+00 0. -1.
</event>
<event>
 8    1  0.6945825E-009  0.6173459E+02  0.7561462E-02  0.1390693E+00
         -1   -1    0    0    0  501 -0.00000000000E+00  0.00000000000E+00  0.37805131666E+02  0.37805131666E+02  0.00000000000E+00 0.  1.
          1   -1    0    0  501    0  0.00000000000E+00 -0.00000000000E+00 -0.46095939009E+03  0.46095939009E+03  0.00000000000E+00 0. -1.
         25    2    1    2    0    0 -0.32818236317E+02 -0.42329545505E+02 -0.13665410361E+03  0.19284856911E+03  0.12508956598E+03 0.  0.
         23    2    1    2    0    0  0.32818236317E+02  0.42329545505E+02 -0.28650015481E+03  0.30591595264E+03  0.92916114411E+02 0.  0.
          5    1    3    3  502    0 -0.30891187647E+02 -0.31022814667E+02 -0.16030749414E+03  0.16623069988E+03  0.41800000000E+01 0. -1.
         -5    1    3    3    0  502 -0.19270486706E+01 -0.11306730838E+02  0.23653390532E+02  0.26617869232E+02  0.41800000000E+01 0. -1.
        -11    1    4    4    0    0 -0.95341098164E+01  0.11269992739E+02 -0.12277852752E+00  0.14762352823E+02  0.00000000000E+00 0.  1.
         11    1    4    4    0    0  0.42352346134E+02  0.31059552766E+02 -0.28637737628E+03  0.29115359982E+03  0.00000000000E+00 0. -1.
</event>
<event>
 8    1  0.6945825E-009  0.8500584E+02  0.7561462E-02  0.1315417E+00
          1   -1    0    0  501    0  0.00000000000E+00  0.00000000000E+00  0.13355879845E+03  0.13355879845E+03  0.00000000000E+00 0. -1.
         -1   -1    0    0    0  501 -0.00000000000E+00 -0.00000000000E+00 -0.10318381006E+03  0.10318381006E+03  0.00000000000E+00 0.  1.
         25    2    1    2    0    0  0.17082087061E+02 -0.26682449764E+02  0.51766141000E+02  0.13903458494E+03  0.12508849520E+03 0.  0.
         23    2    1    2    0    0 -0.17082087061E+02  0.26682449764E+02 -0.21391152612E+02  0.97708023563E+02  0.89919550904E+02 0.  0.
          5    1    3    3  502    0  0.32462306757E+01 -0.60769277930E+02 -0.14886031847E+02  0.62789405937E+02  0.41800000000E+01 0. -1.
         -5    1    3    3    0  502  0.13835856385E+02  0.34086828166E+02  0.66652172847E+02  0.76245179005E+02  0.41800000000E+01 0. -1.
        -11    1    4    4    0    0 -0.15490502669E+02  0.48088929604E+02  0.17349295067E+02  0.53418151060E+02  0.00000000000E+00 0. -1.
         11    1    4    4    0    0 -0.15915843919E+01 -0.21406479839E+02 -0.38740447679E+02  0.44289872503E+02  0.00000000000E+00 0.  1.
</event>
<event>
 8    1  0.6945825E-009  0.2154867E+03  0.7561462E-02  0.1137293E+00
          2   -1    0    0  501    0  0.00000000000E+00  0.00000000000E+00  0.13789440190E+04  0.13789440190E+04  0.00000000000E+00 0. -1.
         -2   -1    0    0    0  501 -0.00000000000E+00 -0.00000000000E+00 -0.35823111153E+02  0.35823111153E+02  0.00000000000E+00 0.  1.
         25    2    1    2    0    0  0.10083958881E+03  0.15698999196E+03  0.52657932826E+03  0.57249270239E+03  0.12509046763E+03 0.  0.
         23    2    1    2    0    0 -0.10083958881E+03 -0.15698999196E+03  0.81654157956E+03  0.84227442773E+03  0.88721926378E+02 0.  0.
          5    1    3    3  502    0  0.11494701949E+03  0.66851377661E+02  0.32582587782E+03  0.35194019243E+03  0.41800000000E+01 0.  1.
         -5    1    3    3    0  502 -0.14107430687E+02  0.90138614303E+02  0.20075345044E+03  0.22055250997E+03  0.41800000000E+01 0.  1.
        -11    1    4    4    0    0 -0.29620263620E+02  0.46364136684E+01  0.11683871943E+03  0.12062397236E+03  0.00000000000E+00 0. -1.
         11    1    4    4    0    0 -0.71219325185E+02 -0.16162640563E+03  0.69970286013E+03  0.72165045538E+03  0.00000000000E+00 0.  1.
</event>
<event>
 8    1  0.6945825E-009  0.7418360E+02  0.7561462E-02  0.1346418E+00
          2   -1    0    0  501    0  0.00000000000E+00  0.00000000000E+00  0.32021393819E+03  0.32021393819E+03  0.00000000000E+00 0.  1.
         -2   -1    0    0    0  501 -0.00000000000E+00 -0.00000000000E+00 -0.48343098121E+02  0.48343098121E+02  0.00000000000E+00 0. -1.
         25    2    1    2    0    0 -0.38456355059E+02 -0.17947346336E+02  0.22081591671E+03  0.25731211238E+03  0.12509538608E+03 0.  0.
         23    2    1    2    0    0  0.38456355059E+02  0.17947346336E+02  0.51054923353E+02  0.11124492393E+03  0.89262698910E+02 0.  0.
          5    1    3    3  502    0  0.72345775083E+01 -0.46788524028E+02  0.18809386099E+03  0.19400587114E+03  0.41800000000E+01 0. -1.
         -5    1    3    3    0  502 -0.45690932567E+02  0.28841177692E+02  0.32722055720E+02  0.63306241241E+02  0.41800000000E+01 0. -1.
        -11    1    4    4    0    0  0.22173564669E+02 -0.31750737971E+00  0.74273339139E+02  0.77513203314E+02  0.00000000000E+00 0.  1.
         11    1    4    4    0    0  0.16282790390E+02  0.18264853716E+02 -0.23218415786E+02  0.33731720616E+02  0.00000000000E+00 0. -1.
</event>
<event>
 8    1  0.6945825E-009  0.1157614E+03  0.7561462E-02  0.1250258E+00
         -1   -1    0    0    0  501 -0.00000000000E+00  0.00000000000E+00  0.25866966074E+03  0.25866966074E+03  0.00000000000E+00 0.  1.
          1   -1    0    0  501    0  0.00000000000E+00 -0.00000000000E+00 -0.54908981391E+02  0.54908981391E+02  0.00000000000E+00 0. -1.
         25    2    1    2    0    0  0.16408826057E+02  0.42732178378E+02  0.96096639864E+02  0.16424644812E+03  0.12508814047E+03 0.  0.
         23    2    1    2    0    0 -0.16408826057E+02 -0.42732178378E+02  0.10766403948E+03  0.14933219401E+03  0.92807705109E+02 0.  0.
          5    1    3    3  502    0 -0.51101365169E+02  0.72607130967E+00  0.52852532301E+02  0.73639250894E+02  0.41800000000E+01 0.  1.
         -5    1    3    3    0  502  0.67510191226E+02  0.42006107068E+02  0.43244107564E+02  0.90607197227E+02  0.41800000000E+01 0.  1.
        -11    1    4    4    0    0  0.84872424274E+01  0.26090746689E+02  0.46321061433E+02  0.53836800417E+02  0.00000000000E+00 0. -1.
         11    1    4    4    0    0 -0.24896068485E+02 -0.68822925068E+02  0.61342978049E+02  0.95495393589E+02  0.00000000000E+00 0.  1.
</event>
<event>
 8    1  0.6945825E-009  0.1383140E+03  0.7561462E-02  0.1215616E+00
         -2   -1    0    0    0  501 -0.00000000000E+00  0.00000000000E+00  0.25346930371E+02  0.25346930371E+02  0.00000000000E+00 0.  1.
          2   -1    0    0  501    0  0.00000000000E+00 -0.00000000000E+00 -0.92170831829E+03  0.92170831829E+03  0.00000000000E+00 0. -1.
         25    2    1    2    0    0  0.57451960432E+02  0.85958471573E+02 -0.39382319977E+03  0.42594948924E+03  0.12508664242E+03 0.  0.
         23    2    1    2    0    0 -0.57451960432E+02 -0.85958471573E+02 -0.50253818816E+03  0.52110575943E+03  0.91197562269E+02 0.  0.
          5    1    3    3  502    0  0.77695878237E+02  0.36425956012E+02 -0.12409010819E+03  0.15092821842E+03  0.41800000000E+01 0.  1.
         -5    1    3    3    0  502 -0.20243917805E+02  0.49532515561E+02 -0.26973309158E+03  0.27502127081E+03  0.41800000000E+01 0.  1.
        -11    1    4    4    0    0 -0.51245160760E+02 -0.38721970301E+00 -0.21617337226E+03  0.22216467612E+03  0.00000000000E+00 0.  1.
         11    1    4    4    0    0 -0.62067996723E+01 -0.85571251870E+02 -0.28636481589E+03  0.29894108331E+03  0.00000000000E+00 0. -1.
</event>
<event>
 8    1  0.6945825E-009  0.9495462E+02  0.7561462E-02  0.1291278E+00
          1   -1    0    0  501    0  0.00000000000E+00  0.00000000000E+00  0.18707587248E+03  0.18707587248E+03  0.00000000000E+00 0. -1.
         -1   -1    0    0    0  501 -0.00000000000E+00 -0.00000000000E+00 -0.93350871739E+02  0.93350871739E+02  0.00000000000E+00 0.  1.
         25    2    1    2    0    0  0.50611733421E+02 -0.59371893030E+02  0.34513977113E+02  0.15141337437E+03  0.12509286983E+03 0.  0.
         23    2    1    2    0    0 -0.50611733421E+02  0.59371893030E+02  0.59211023624E+02  0.12901336984E+03  0.83975800306E+02 0.  0.
          5    1    3    3  502    0  0.69075788994E+02 -0.27502037380E+02  0.68457212482E+02  0.10115181178E+03  0.41800000000E+01 0. -1.
         -5    1    3    3    0  502 -0.18464055573E+02 -0.31869855650E+02 -0.33943235369E+02  0.50261562596E+02  0.41800000000E+01 0. -1.
        -11    1    4    4    0    0 -0.22732804378E+02  0.21034563359E+02 -0.19881589281E+02  0.36803679747E+02  0.00000000000E+00 0.  1.
         11    1    4    4    0    0 -0.27878929042E+02  0.38337329671E+02  0.79092612905E+02  0.92209690093E+02  0.00000000000E+00 0. -1.
</event>
<event>
 8    1  0.6945825E-009  0.1317117E+03  0.7561462E-02  0.1224938E+00
         -2   -1    0    0    0  501 -0.00000000000E+00  0.00000000000E+00  0.46280147914E+02  0.46280147914E+02  0.00000000000E+00 0.  1.
          2   -1    0    0  501    0  0.00000000000E+00 -0.00000000000E+00 -0.54240842202E+03  0.54240842202E+03  0.00000000000E+00 0. -1.
         25    2    1    2    0    0  0.74315014039E+02 -0.29614748475E+02 -0.42037480083E+03  0.44582616209E+03  0.12508492713E+03 0.  0.
         23    2    1    2    0    0 -0.74315014039E+02  0.29614748475E+02 -0.75753473273E+02  0.14286240784E+03  0.90946820844E+02 0.  0.
          5    1    3    3  502    0  0.74664669640E+02  0.31439203928E+02 -0.30018563787E+03  0.31095357535E+03  0.41800000000E+01 0.  1.
         -5    1    3    3    0  502 -0.34965560118E+00 -0.61053952403E+02 -0.12018916296E+03  0.13487258674E+03  0.41800000000E+01 0.  1.
        -11    1    4    4    0    0  0.85058721707E+01  0.36990047307E+02 -0.22536803247E+02  0.44142054344E+02  0.00000000000E+00 0.  1.
         11    1    4    4    0    0 -0.82820886209E+02 -0.73752988315E+01 -0.53216670026E+02  0.98720353494E+02  0.00000000000E+00 0. -1.
</event>
<event>
 8    1  0.6945825E-009  0.8400062E+02  0.7561462E-02  0.1318067E+00
         -2   -1    0    0    0  501 -0.00000000000E+00  0.00000000000E+00  0.15463529365E+02  0.15463529365E+02  0.00000000000E+00 0.  1.
          2   -1    0    0  501    0  0.00000000000E+00 -0.00000000000E+00 -0.10241033442E+04  0.10241033442E+04  0.00000000000E+00 0. -1.
         25    2    1    2    0    0  0.55149857226E+02 -0.17020201322E+02 -0.68587787666E+03  0.69957995617E+03  0.12510978932E+03 0.  0.
         23    2    1    2    0    0 -0.55149857226E+02  0.17020201322E+02 -0.32276193817E+03  0.33998691739E+03  0.89914633164E+02 0.  0.
          5    1    3    3  502    0  0.30066192195E+02 -0.22384276382E+02 -0.66546433563E+03  0.66653228440E+03  0.41800000000E+01 0. -1.
         -5    1    3    3    0  502  0.25083665032E+02  0.53640750605E+01 -0.20413541025E+02  0.33047671776E+02  0.41800000000E+01 0. -1.
        -11    1    4    4    0    0 -0.11431910863E+02  0.48881039603E+02 -0.11875158151E+03  0.12892626858E+03  0.00000000000E+00 0.  1.
         11    1    4    4    0    0 -0.43717946363E+02 -0.31860838281E+02 -0.20401035666E+03  0.21106064880E+03  0.00000000000E+00 0. -1.
</event>
<event>
 8    1  0.6945825E-009  0.9988059E+02  0.7561462E-02  0.1280547E+00
         -1   -1    0    0    0  501 -0.00000000000E+00  0.00000000000E+00  0.21091322138E+03  0.21091322138E+03  0.00000000000E+00 0.  1.
          1   -1    0    0  501    0  0.00000000000E+00 -0.00000000000E+00 -0.84631748702E+02  0.84631748702E+02  0.00000000000E+00 0. -1.
         25    2    1    2    0    0  0.41268221126E+02  0.74175960440E+01  0.14346798490E+03  0.19490651520E+03  0.12508956858E+03 0.  0.
         23    2    1    2    0    0 -0.41268221126E+02 -0.74175960440E+01 -0.17186512223E+02  0.10063845488E+03  0.89858976141E+02 0.  0.
          5    1    3    3  502    0  0.74410128192E+02 -0.19971589299E+02  0.50006085225E+02  0.91944616570E+02  0.41800000000E+01 0. -1.
         -5    1    3    3    0  502 -0.33141907066E+02  0.27389185343E+02  0.93461899675E+02  0.10296189863E+03  0.41800000000E+01 0. -1.
        -11    1    4    4    0    0 -0.19273791825E+02  0.30202783664E+02  0.21990653372E+02  0.42038982244E+02  0.00000000000E+00 0.  1.
         11    1    4    4    0    0 -0.21994429301E+02 -0.37620379708E+02 -0.39177165595E+02  0.58599472641E+02  0.00000000000E+00 0. -1.
</event>
<event>
 8    1  0.6945825E-009  0.9620974E+02  0.7561462E-02  0.1288474E+00
         -2   -1    0    0    0  501 -0.00000000000E+00  0.00000000000E+00  0.30206427257E+03  0.30206427257E+03  0.00000000000E+00 0.  1.
          2   -1    0    0  501    0  0.00000000000E+00 -0.00000000000E+00 -0.65007700022E+02  0.65007700022E+02  0.00000000000E+00 0. -1.
         25    2    1    2    0    0 -0.80283417167E+02  0.23279970743E+02  0.12405717817E+03  0.19499927520E+03  0.12508856767E+03 0.  0.
         23    2    1    2    0    0  0.80283417167E+02 -0.23279970743E+02  0.11299939438E+03  0.17207269739E+03  0.99261099873E+02 0.  0.
          5    1    3    3  502    0 -0.14049619035E+02 -0.93407920754E+01  0.11966380055E+03  0.12091955902E+03  0.41800000000E+01 0. -1.
         -5    1    3    3    0  502 -0.66233798132E+02  0.32620762818E+02  0.43933776158E+01  0.74079716176E+02  0.41800000000E+01 0. -1.
        -11    1    4    4    0    0  0.81883061783E+02 -0.35151938355E+02  0.12604417211E+03  0.15436200277E+03  0.00000000000E+00 0.  1.
         11    1    4    4    0    0 -0.15996446161E+01  0.11871967612E+02 -0.13044777731E+02  0.17710694620E+02  0.00000000000E+00 0. -1.
</event>
<event>
 8    1  0.6945825E-009  0.1061219E+03  0.7561462E-02  0.1267925E+00
          3   -1    0    0  501    0  0.00000000000E+00  0.00000000000E+00  0.21576586212E+03  0.21576586212E+03  0.00000000000E+00 0. -1.
         -3   -1    0    0    0  501 -0.00000000000E+00 -0.00000000000E+00 -0.55345349187E+02  0.55345349187E+02  0.00000000000E+00 0.  1.
         25    2    1    2    0    0  0.16442869326E+02  0.91658978134E+00  0.10085316079E+03  0.16152412323E+03  0.12508986471E+03 0.  0.
         23    2    1    2    0    0 -0.16442869326E+02 -0.91658978134E+00  0.59567352137E+02  0.10958708808E+03  0.90497802978E+02 0.  0.
          5    1    3    3  502    0 -0.51944440047E+02  0.69890305640E+01  0.66093868851E+02  0.84456754021E+02  0.41800000000E+01 0.  1.
         -5    1    3    3    0  502  0.68387309373E+02 -0.60724407826E+01  0.34759291943E+02  0.77067369209E+02  0.41800000000E+01 0.  1.
        -11    1    4    4    0    0 -0.45979273703E+02 -0.25389588606E+02  0.25957941296E+02  0.58587878748E+02  0.00000000000E+00 0. -1.
         11    1    4    4    0    0  0.29536404377E+02  0.24472998825E+02  0.33609410841E+02  0.50999209328E+02  0.00000000000E+00 0.  1.
</event>
<event>
 8    1  0.6945825E-009  0.1658212E+03  0.7561462E-02  0.1182277E+00
         -2   -1    0    0    0  501 -0.00000000000E+00  0.00000000000E+00  0.31967782091E+02  0.31967782091E+02  0.00000000000E+00 0.  1.
          2   -1    0    0  501    0  0.00000000000E+00 -0.00000000000E+00 -0.13115415925E+04  0.13115415925E+04  0.00000000000E+00 0. -1.
         25    2    1    2    0    0 -0.72452373190E+02 -0.12419646158E+03 -0.98486903391E+03  0.10031400143E+04  0.12509503176E+03 0.  0.
         23    2    1    2    0    0  0.72452373190E+02  0.12419646158E+03 -0.29470477646E+03  0.34036936021E+03  0.91248499444E+02 0.  0.
          5    1    3    3  502    0 -0.95431249337E+02 -0.55355576641E+02 -0.44958119506E+03  0.46293853433E+03  0.41800000000E+01 0.  1.
         -5    1    3    3    0  502  0.22978876148E+02 -0.68840884938E+02 -0.53528783885E+03  0.54020148001E+03  0.41800000000E+01 0.  1.
        -11    1    4    4    0    0  0.47378788329E+02  0.10990850096E+03 -0.28630238644E+03  0.31031223735E+03  0.00000000000E+00 0. -1.
         11    1    4    4    0    0  0.25073584861E+02  0.14287960615E+02 -0.84023900148E+01  0.30057122854E+02  0.00000000000E+00 0.  1.
</event>
<event>
 8    1  0.6945825E-009  0.1269561E+03  0.7561462E-02  0.1232044E+00
          1   -1    0    0  501    0  0.00000000000E+00  0.00000000000E+00  0.39395196975E+02  0.39395196975E+02  0.00000000000E+00 0. -1.
         -1   -1    0    0    0  501 -0.00000000000E+00 -0.00000000000E+00 -0.56348538936E+03  0.56348538936E+03  0.00000000000E+00 0.  1.
         25    2    1    2    0    0  0.23952006645E+02  0.73279290457E+02 -0.40920292522E+03  0.43478554517E+03  0.12509149952E+03 0.  0.
         23    2    1    2    0    0 -0.23952006645E+02 -0.73279290457E+02 -0.11488726717E+03  0.16809504116E+03  0.95463635351E+02 0.  0.
          5    1    3    3  502    0  0.61994472357E+02  0.74912044739E+02 -0.35704246472E+03  0.37007015965E+03  0.41800000000E+01 0.  1.
         -5    1    3    3    0  502 -0.38042465712E+02 -0.16327542821E+01 -0.52160460501E+02  0.64715385525E+02  0.41800000000E+01 0.  1.
        -11    1    4    4    0    0 -0.24340012125E+02  0.15916381644E+02 -0.10811968916E+02  0.31026860407E+02  0.00000000000E+00 0. -1.
         11    1    4    4    0    0  0.38800547944E+00 -0.89195672101E+02 -0.10407529825E+03  0.13706818076E+03  0.00000000000E+00 0.  1.
</event>
<event>
 8    1  0.6945825E-009  0.7728258E+02  0.7561462E-02  0.1336945E+00
          2   -1    0    0  501    0  0.00000000000E+00  0.00000000000E+00  0.80319512983E+03  0.80319512983E+03  0.00000000000E+00 0. -1.
         -2   -1    0    0    0  501 -0.00000000000E+00 -0.00000000000E+00 -0.18016603244E+02  0.18016603244E+02  0.00000000000E+00 0.  1.
         25    2    1    2    0    0 -0.39857150715E+01  0.49669696232E+02  0.49903890018E+03  0.51688500973E+03  0.12508926710E+03 0.  0.
         23    2    1    2    0    0  0.39857150715E+01 -0.49669696232E+02  0.28613962640E+03  0.30432672334E+03  0.90862005765E+02 0.  0.
          5    1    3    3  502    0  0.44067930587E+01  0.19391305248E+02  0.47890135967E+03  0.47933227226E+03  0.41800000000E+01 0.  1.
         -5    1    3    3    0  502 -0.83925081302E+01  0.30278390984E+02  0.20137540514E+02  0.37552737467E+02  0.41800000000E+01 0.  1.
        -11    1    4    4    0    0  0.58731898016E+01  0.26101105010E+02  0.56763713317E+02  0.62752539317E+02  0.00000000000E+00 0.  1.
         11    1    4    4    0    0 -0.18874747301E+01 -0.75770801242E+02  0.22937591309E+03  0.24157418402E+03  0.00000000000E+00 0. -1.
</event>
<event>
 8    1  0.6945825E-009  0.9823895E+02  0.7561462E-02  0.1284043E+00
         -2   -1    0    0    0  501 -0.00000000000E+00  0.00000000000E+00  0.16191645902E+02  0.16191645902E+02  0.00000000000E+00 0.  1.
          2   -1    0    0  501    0  0.00000000000E+00 -0.00000000000E+00 -0.10757682001E+04  0.10757682001E+04  0.00000000000E+00 0. -1.
         25    2    1    2    0    0  0.14337422342E+02  0.56149040349E+02 -0.77295986822E+03  0.78515758163E+03  0.12508874334E+03 0.  0.
         23    2    1    2    0    0 -0.14337422342E+02 -0.56149040349E+02 -0.28661668596E+03  0.30680226435E+03  0.92845184730E+02 0.  0.
          5    1    3    3  502    0  0.74768585949E+01  0.81347199087E+02 -0.28565489255E+03  0.29713542409E+03  0.41800000000E+01 0. -1.
         -5    1    3    3    0  502  0.68605637475E+01 -0.25198158738E+02 -0.48730497567E+03  0.48802215754E+03  0.41800000000E+01 0. -1.
        -11    1    4    4    0    0  0.21584516466E+02 -0.94678333037E-02 -0.13025865933E+02  0.25210407058E+02  0.00000000000E+00 0.  1.
         11    1    4    4    0    0 -0.35921938808E+02 -0.56139572516E+02 -0.27359082003E+03  0.28159185729E+03  0.00000000000E+00 0. -1.
</event>
<event>
 8    1  0.6945825E-009  0.1056598E+03  0.7561462E-02  0.1268825E+00
          1   -1    0    0  501    0  0.00000000000E+00  0.00000000000E+00  0.19629977411E+03  0.19629977411E+03  0.00000000000E+00 0. -1.
         -1   -1    0    0    0  501 -0.00000000000E+00 -0.00000000000E+00 -0.60457451272E+02  0.60457451272E+02  0.00000000000E+00 0.  1.
         25    2    1    2    0    0  0.82729033594E+01 -0.22580107101E+00  0.79047937975E+02  0.14819695578E+03  0.12508105088E+03 0.  0.
         23    2    1    2    0    0 -0.82729033594E+01  0.22580107101E+00  0.56794384866E+02  0.10856026960E+03  0.92147914071E+02 0.  0.
          5    1    3    3  502    0 -0.47623612256E+02 -0.34359673166E+02  0.28789870491E+02  0.65535674463E+02  0.41800000000E+01 0. -1.
         -5    1    3    3    0  502  0.55896515616E+02  0.34133872095E+02  0.50258067484E+02  0.82661281320E+02  0.41800000000E+01 0. -1.
        -11    1    4    4    0    0 -0.37313649205E+02  0.27987129541E+02  0.48972554873E+02  0.67630606738E+02  0.00000000000E+00 0.  1.
         11    1    4    4    0    0  0.29040745846E+02 -0.27761328470E+02  0.78218299929E+01  0.40929662864E+02  0.00000000000E+00 0. -1.
</event>
<event>
 8    1  0.6945825E-009  0.1070138E+03  0.7561462E-02  0.1266202E+00
         -1   -1    0    0    0  501 -0.00000000000E+00  0.00000000000E+00  0.11405784261E+03  0.11405784261E+03  0.00000000000E+00 0.  1.
          1   -1    0    0  501    0  0.00000000000E+00 -0.00000000000E+00 -0.12580514939E+03  0.12580514939E+03  0.00000000000E+00 0. -1.
         25    2    1    2    0    0 -0.47848298660E+02  0.19550954884E+02  0.85870369936E+01  0.13561840027E+03  0.12508762435E+03 0.  0.
         23    2    1    2    0    0  0.47848298660E+02 -0.19550954884E+02 -0.20334343775E+02  0.10424459173E+03  0.88214227005E+02 0.  0.
          5    1    3    3  502    0 -0.67746495415E+02  0.43605615589E+02  0.40937537606E+02  0.90467628117E+02  0.41800000000E+01 0. -1.
         -5    1    3    3    0  502  0.19898196756E+02 -0.24054660705E+02 -0.32350500613E+02  0.45150772149E+02  0.41800000000E+01 0. -1.
        -11    1    4    4    0    0 -0.16656060747E+01 -0.45789008988E+02 -0.13660507921E+02  0.47812310804E+02  0.00000000000E+00 0. -1.
         11    1    4    4    0    0  0.49513904734E+02  0.26238054104E+02 -0.66738358534E+01  0.56432280923E+02  0.00000000000E+00 0.  1.
</event>
<event>
 8    1  0.6945825E-009  0.8579633E+02  0.7561462E-02  0.1313363E+00
          2   -1    0    0  501    0  0.00000000000E+00  0.00000000000E+00  0.68058960645E+02  0.68058960645E+02  0.00000000000E+00 0. -1.
         -2   -1    0    0    0  501 -0.00000000000E+00 -0.00000000000E+00 -0.20982411066E+03  0.20982411066E+03  0.00000000000E+00 0.  1.
         25    2    1    2    0    0  0.37109056516E+01 -0.90014770997E+01 -0.13562429460E+03  0.18476016590E+03  0.12509025625E+03 0.  0.
         23    2    1    2    0    0 -0.37109056516E+01  0.90014770997E+01 -0.61408554208E+01  0.93122905404E+02  0.92408700861E+02 0.  0.
          5    1    3    3  502    0  0.34687012739E+01 -0.45948579923E+02 -0.13988021468E+03  0.14733380720E+03  0.41800000000E+01 0.  1.
         -5    1    3    3    0  502  0.24220437769E+00  0.36947102823E+02  0.42559200816E+01  0.37426358703E+02  0.41800000000E+01 0.  1.
        -11    1    4    4    0    0 -0.15454482014E+02 -0.37299009779E+02  0.11855559907E+02  0.42078634074E+02  0.00000000000E+00 0.  1.
         11    1    4    4    0    0  0.11743576363E+02  0.46300486879E+02 -0.17996415328E+02  0.51044271330E+02  0.00000000000E+00 0. -1.
</event>
<event>
 8    1  0.6945825E-009  0.1236371E+03  0.7561462E-02  0.1237215E+00
          1   -1    0    0  501    0  0.00000000000E+00  0.00000000000E+00  0.60153358187E+03  0.60153358187E+03  0.00000000000E+00 0. -1.
         -1   -1    0    0    0  501 -0.00000000000E+00 -0.00000000000E+00 -0.39017192475E+02  0.39017192475E+02  0.00000000000E+00 0.  1.
         25    2    1    2    0    0 -0.87410150007E+02  0.37840246904E+02  0.40902043364E+03  0.43819769050E+03  0.12508829768E+03 0.  0.
         23    2    1    2    0    0  0.87410150007E+02 -0.37840246904E+02  0.15349595575E+03  0.20235308384E+03  0.91177538339E+02 0.  0.
          5    1    3    3  502    0  0.19132433326E+01 -0.29796669664E+02  0.18761311660E+03  0.19002014615E+03  0.41800000000E+01 0. -1.
         -5    1    3    3    0  502 -0.89323393340E+02  0.67636916569E+02  0.22140731704E+03  0.24817754435E+03  0.41800000000E+01 0. -1.
        -11    1    4    4    0    0  0.23667432574E+02 -0.33630162934E+02  0.59241512221E+01  0.41547933659E+02  0.00000000000E+00 0.  1.
         11    1    4    4    0    0  0.63742717433E+02 -0.42100839698E+01  0.14757180453E+03  0.16080515018E+03  0.00000000000E+00 0. -1.
</event>
<event>
 8    1  0.6945825E-009  0.1152531E+03  0.7561462E-02  0.1251140E+00
          3   -1    0    0  501    0  0.00000000000E+00  0.00000000000E+00  0.18896245552E+03  0.18896245552E+03  0.00000000000E+00 0. -1.
         -3   -1    0    0    0  501 -0.00000000000E+00 -0.00000000000E+00 -0.10720066440E+03  0.10720066440E+03  0.00000000000E+00 0.  1.
         25    2    1    2    0    0 -0.35595321478E+02 -0.80823502931E+02  0.72622663900E+02  0.16947481837E+03  0.12509275444E+03 0.  0.
         23    2    1    2    0    0  0.35595321478E+02  0.80823502931E+02  0.91391272176E+01  0.12668830155E+03  0.90371104715E+02 0.  0.
          5    1    3    3  502    0 -0.11908958384E+01 -0.96430392370E+02  0.11108956091E+02  0.97165426521E+02  0.41800000000E+01 0.  1.
         -5    1    3    3    0  502 -0.34404425639E+02  0.15606889439E+02  0.61513707810E+02  0.72309391852E+02  0.41800000000E+01 0.  1.
        -11    1    4    4    0    0  0.13734594964E+02  0.70440936267E+02 -0.32299070893E+02  0.78700664429E+02  0.00000000000E+00 0.  1.
         11    1    4    4    0    0  0.21860726513E+02  0.10382566664E+02  0.41438198111E+02  0.47987637125E+02  0.00000000000E+00 0. -1.
</event>
<event>
 8    1  0.6945825E-009  0.9924529E+02  0.7561462E-02  0.1281891E+00
         -2   -1    0    0    0  501 -0.00000000000E+00  0.00000000000E+00  0.57555622223E+02  0.57555622223E+02  0.00000000000E+00 0.  1.
          2   -1    0    0  501    0  0.00000000000E+00 -0.00000000000E+00 -0.31570596204E+03  0.31570596204E+03  0.00000000000E+00 0. -1.
         25    2    1    2    0    0 -0.18814923217E+02 -0.74947021809E+02 -0.16549873658E+03  0.22137866314E+03  0.12509046035E+03 0.  0.
         23    2    1    2    0    0  0.18814923217E+02  0.74947021809E+02 -0.92651603242E+02  0.15188292113E+03  0.92266162447E+02 0.  0.
          5    1    3    3  502    0 -0.34676884358E+02 -0.88598444298E+02 -0.17403960317E+03  0.19839210295E+03  0.41800000000E+01 0.  1.
         -5    1    3    3    0  502  0.15861961142E+02  0.13651422489E+02  0.85408665932E+01  0.22986560191E+02  0.41800000000E+01 0.  1.
        -11    1    4    4    0    0  0.38412486136E+01  0.62003583868E+02 -0.53349298361E+01  0.62351111295E+02  0.00000000000E+00 0.  1.
         11    1    4    4    0    0  0.14973674603E+02  0.12943437941E+02 -0.87316673406E+02  0.89531809831E+02  0.00000000000E+00 0. -1.
</event>
<event>
 8    1  0.6945825E-009  0.1559950E+03  0.7561462E-02  0.1193294E+00
         -2   -1    0    0    0  501 -0.00000000000E+00  0.00000000000E+00  0.54880203487E+02  0.54880203487E+02  0.00000000000E+00 0.  1.
          2   -1    0    0  501    0  0.00000000000E+00 -0.00000000000E+00 -0.52575004577E+03  0.52575004577E+03  0.00000000000E+00 0. -1.
         25    2    1    2    0    0  0.10035764109E+03  0.81808026190E+02 -0.21291027178E+03  0.27882448755E+03  0.12509237288E+03 0.  0.
         23    2    1    2    0    0 -0.10035764109E+03 -0.81808026190E+02 -0.25795957050E+03  0.30180576170E+03  0.88200728513E+02 0.  0.
          5    1    3    3  502    0 -0.22411373559E+02  0.25093075209E+02 -0.89457821792E+02  0.95666641877E+02  0.41800000000E+01 0. -1.
         -5    1    3    3    0  502  0.12276901465E+03  0.56714950981E+02 -0.12345244999E+03  0.18315784567E+03  0.41800000000E+01 0. -1.
        -11    1    4    4    0    0 -0.90149419673E+02 -0.91685848383E+02 -0.25723618730E+03  0.28758245551E+03  0.00000000000E+00 0. -1.
         11    1    4    4    0    0 -0.10208221421E+02  0.98778221934E+01 -0.72338320263E+00  0.14223306195E+02  0.00000000000E+00 0.  1.
</event>
<event>
 8    1  0.6945825E-009  0.8763821E+02  0.7561462E-02  0.1308674E+00
          2   -1    0    0  501    0  0.00000000000E+00  0.00000000000E+00  0.77953857299E+02  0.77953857299E+02  0.00000000000E+00 0. -1.
         -2   -1    0    0    0  501 -0.00000000000E+00 -0.00000000000E+00 -0.16412984301E+03  0.16412984301E+03  0.00000000000E+00 0.  1.
         25    2    1    2    0    0 -0.73920747504E+01  0.36903740397E+01 -0.82794206692E+02  0.15023251035E+03  0.12508662948E+03 0.  0.
         23    2    1    2    0    0  0.73920747504E+01 -0.36903740397E+01 -0.33817790185E+01  0.91851189957E+02  0.91416317129E+02 0.  0.
          5    1    3    3  502    0  0.53408229284E+02 -0.15261441927E+02 -0.61440914364E+02  0.82932556471E+02  0.41800000000E+01 0.  1.
         -5    1    3    3    0  502 -0.60800304034E+02  0.18951815966E+02 -0.21353292328E+02  0.67299953880E+02  0.41800000000E+01 0.  1.
        -11    1    4    4    0    0 -0.13643485314E+02 -0.23294847171E+02 -0.38148298430E+02  0.46734219469E+02  0.00000000000E+00 0.  1.
         11    1    4    4    0    0  0.21035560065E+02  0.19604473131E+02  0.34766519412E+02  0.45116970488E+02  0.00000000000E+00 0. -1.
</event>
<event>
 8    1  0.6945825E-009  0.1137752E+03  0.7561462E-02  0.1253734E+00
          2   -1    0    0  501    0  0.00000000000E+00  0.00000000000E+00  0.51565363631E+03  0.51565363631E+03  0.00000000000E+00 0. -1.
         -2   -1    0    0    0  501 -0.00000000000E+00 -0.00000000000E+00 -0.66760980991E+02  0.66760980991E+02  0.00000000000E+00 0.  1.
         25    2    1    2    0    0  0.44101915998E+02 -0.25076772300E+01  0.46311123120E+03  0.48173655885E+03  0.12508729845E+03 0.  0.
         23    2    1    2    0    0 -0.44101915998E+02  0.25076772300E+01 -0.14218575879E+02  0.10067805845E+03  0.89345599293E+02 0.  0.
          5    1    3    3  502    0  0.46364384644E+01 -0.58746968107E+02  0.15144629416E+03  0.16256123535E+03  0.41800000000E+01 0.  1.
         -5    1    3    3    0  502  0.39465477533E+02  0.56239290877E+02  0.31166493704E+03  0.31917532351E+03  0.41800000000E+01 0.  1.
        -11    1    4    4    0    0 -0.71476834699E+02  0.73028294293E+01 -0.91746694961E+01  0.72432339301E+02  0.00000000000E+00 0. -1.
         11    1    4    4    0    0  0.27374918701E+02 -0.47951521993E+01 -0.50439063826E+01  0.28245719147E+02  0.00000000000E+00 0.  1.
</event>
<event>
 8    1  0.6945825E-009  0.7120907E+02  0.7561462E-02  0.1356029E+00
         -1   -1    0    0    0  501 -0.00000000000E+00  0.00000000000E+00  0.20605061342E+03  0.20605061342E+03  0.00000000000E+00 0.  1.
          1   -1    0    0  501    0  0.00000000000E+00 -0.00000000000E+00 -0.61965562705E+02  0.61965562705E+02  0.00000000000E+00 0. -1.
         25    2    1    2    0    0 -0.22543589483E+02  0.26216391718E+02  0.73563491084E+02  0.14918274316E+03  0.12509352907E+03 0.  0.
         23    2    1    2    0    0  0.22543589483E+02 -0.26216391718E+02  0.70521559633E+02  0.11883343297E+03  0.89177249319E+02 0.  0.
          5    1    3    3  502    0 -0.18616697022E+02 -0.20189325816E+02  0.94098738469E+02  0.98113379650E+02  0.41800000000E+01 0. -1.
         -5    1    3    3    0  502 -0.39268924613E+01  0.46405717534E+02 -0.20535247384E+02  0.51069363511E+02  0.41800000000E+01 0. -1.
        -11    1    4    4    0    0  0.21323327373E+02  0.15364244627E+02  0.72571939684E+02  0.77184394360E+02  0.00000000000E+00 0.  1.
         11    1    4    4    0    0  0.12202621103E+01 -0.41580636346E+02 -0.20503800509E+01  0.41649038607E+02  0.00000000000E+00 0. -1.
</event>
<event>
 8    1  0.6945825E-009  0.1672401E+03  0.7561462E-02  0.1180757E+00
          1   -1    0    0  501    0  0.00000000000E+00  0.00000000000E+00  0.22711789122E+04  0.22711789122E+04  0.00000000000E+00 0. -1.
         -1   -1    0    0    0  501 -0.00000000000E+00 -0.00000000000E+00 -0.14599090834E+02  0.14599090834E+02  0.00000000000E+00 0.  1.
         25    2    1    2    0    0  0.12389535961E+02  0.12589812919E+03  0.15824370434E+04  0.15924063778E+04  0.12508891248E+03 0.  0.
         23    2    1    2    0    0 -0.12389535961E+02 -0.12589812919E+03  0.67414277794E+03  0.69337162527E+03  0.10144893364E+03 0.  0.
          5    1    3    3  502    0  0.48365075060E+02  0.12736854560E+03  0.10625338868E+04  0.10712411772E+04  0.41800000000E+01 0.  1.
         -5    1    3    3    0  502 -0.35975539098E+02 -0.14704164075E+01  0.51990315667E+03  0.52116520054E+03  0.41800000000E+01 0.  1.
        -11    1    4    4    0    0  0.27249094353E+02 -0.11851371626E+03  0.48971644156E+03  0.50458914695E+03  0.00000000000E+00 0.  1.
         11    1    4    4    0    0 -0.39638630315E+02 -0.73844129255E+01  0.18442633639E+03  0.18878247832E+03  0.00000000000E+00 0. -1.
</event>
<event>
 8    1  0.6945825E-009  0.1553922E+03  0.7561462E-02  0.1193999E+00
         -1   -1    0    0    0  501 -0.00000000000E+00  0.00000000000E+00  0.70028515863E+02  0.70028515863E+02  0.00000000000E+00 0.  1.
          1   -1    0    0  501    0  0.00000000000E+00 -0.00000000000E+00 -0.38553186131E+03  0.38553186131E+03  0.00000000000E+00 0. -1.
         25    2    1    2    0    0 -0.53885967943E+02  0.10323957926E+03 -0.13974513439E+03  0.22076764606E+03  0.12509013828E+03 0.  0.
         23    2    1    2    0    0  0.53885967943E+02 -0.10323957926E+03 -0.17575821106E+03  0.23479273112E+03  0.10331780854E+03 0.  0.
          5    1    3    3  502    0 -0.32396599068E+02  0.12216208419E+03 -0.68377833167E+02  0.14375713865E+03  0.41800000000E+01 0. -1.
         -5    1    3    3    0  502 -0.21489368876E+02 -0.18922504928E+02 -0.71367301220E+02  0.77010507406E+02  0.41800000000E+01 0. -1.
        -11    1    4    4    0    0  0.14802427465E+02  0.20694341838E+02 -0.23711113174E+02  0.34779081801E+02  0.00000000000E+00 0.  1.
         11    1    4    4    0    0  0.39083540478E+02 -0.12393392110E+03 -0.15204709789E+03  0.20001364932E+03  0.00000000000E+00 0. -1.
</event>
<event>
 8    1  0.6945825E-009  0.7771795E+02  0.7561462E-02  0.1335655E+00
          1   -1    0    0  501    0  0.00000000000E+00  0.00000000000E+00  0.11247499975E+03  0.11247499975E+03  0.00000000000E+00 0. -1.
         -1   -1    0    0    0  501 -0.00000000000E+00 -0.00000000000E+00 -0.27609804962E+03  0.27609804962E+03  0.00000000000E+00 0.  1.
         25    2    1    2    0    0 -0.27552980331E+02 -0.44923031793E+02  0.54006231797E+02  0.14608816922E+03  0.12509130506E+03 0.  0.
         23    2    1    2    0    0  0.27552980331E+02  0.44923031793E+02 -0.21762928167E+03  0.24248488015E+03  0.93054647121E+02 0.  0.
          5    1    3    3  502    0 -0.21819521659E+02 -0.49256553103E+02 -0.29910277477E+02  0.61760801871E+02  0.41800000000E+01 0.  1.
         -5    1    3    3    0  502 -0.57334586719E+01  0.43335213104E+01  0.83916509274E+02  0.84327367349E+02  0.41800000000E+01 0.  1.
        -11    1    4    4    0    0  0.18198896129E+02 -0.20261456180E+02 -0.18955775395E+02  0.33182041042E+02  0.00000000000E+00 0. -1.
         11    1    4    4    0    0  0.93540842018E+01  0.65184487973E+02 -0.19867350628E+03  0.20930283911E+03  0.00000000000E+00 0.  1.
</event>
<event>
 8    1  0.6945825E-009  0.1138039E+03  0.7561462E-02  0.1253684E+00
         -1   -1    0    0    0  501 -0.00000000000E+00  0.00000000000E+00  0.46836295506E+02  0.46836295506E+02  0.00000000000E+00 0.  1.
          1   -1    0    0  501    0  0.00000000000E+00 -0.00000000000E+00 -0.31064503076E+03  0.31064503076E+03  0.00000000000E+00 0. -1.
         25    2    1    2    0    0 -0.50982211863E+02 -0.39288153068E+00 -0.17511617744E+03  0.22116161056E+03  0.12508973620E+03 0.  0.
         23    2    1    2    0    0  0.50982211863E+02  0.39288153068E+00 -0.88692557818E+02  0.13631971571E+03  0.90096363946E+02 0.  0.
          5    1    3    3  502    0 -0.67636055836E+02  0.41375696395E+02 -0.14941356103E+03  0.16919949444E+03  0.41800000000E+01 0.  1.
         -5    1    3    3    0  502  0.16653843973E+02 -0.41768577925E+02 -0.25702616413E+02  0.51962116118E+02  0.41800000000E+01 0.  1.
        -11    1    4    4    0    0  0.29896710792E+02 -0.44408424512E+02 -0.39563900694E+02  0.66567437399E+02  0.00000000000E+00 0.  1.
         11    1    4    4    0    0  0.21085501071E+02  0.44801306043E+02 -0.49128657124E+02  0.69752278309E+02  0.00000000000E+00 0. -1.
</event>
<event>
 8    1  0.6945825E-009  0.2542141E+03  0.7561462E-02  0.1110670E+00
          2   -1    0    0  501    0  0.00000000000E+00  0.00000000000E+00  0.68855736846E+03  0.68855736846E+03  0.00000000000E+00 0.  1.
         -2   -1    0    0    0  501 -0.00000000000E+00 -0.00000000000E+00 -0.10714888479E+03  0.10714888479E+03  0.00000000000E+00 0. -1.
         25    2    1    2    0    0  0.20979750485E+03 -0.12328886329E+03  0.36945336260E+03  0.45973771283E+03  0.12509132904E+03 0.  0.
         23    2    1    2    0    0 -0.20979750485E+03  0.12328886329E+03  0.21195512107E+03  0.33596854042E+03  0.93459884203E+02 0.  0.
          5    1    3    3  502    0 -0.37163883820E+01 -0.25543569623E+01 -0.76782707789E+01  0.98368960679E+01  0.41800000000E+01 0. -1.
         -5    1    3    3    0  502  0.21351389324E+03 -0.12073450632E+03  0.37713163338E+03  0.44990081676E+03  0.41800000000E+01 0. -1.
        -11    1    4    4    0    0 -0.13735444005E+03  0.33116392965E+02  0.14436405345E+03  0.20199979607E+03  0.00000000000E+00 0.  1.
         11    1    4    4    0    0 -0.72443064808E+02  0.90172470321E+02  0.67591067615E+02  0.13396874435E+03  0.00000000000E+00 0. -1.
</event>
<event>
 8    1  0.6945825E-009  0.2033312E+03  0.7561462E-02  0.1146959E+00
          2   -1    0    0  501    0  0.00000000000E+00  0.00000000000E+00  0.97494684503E+03  0.97494684503E+03  0.00000000000E+00 0. -1.
         -2   -1    0    0    0  501 -0.00000000000E+00 -0.00000000000E+00 -0.60291237763E+02  0.60291237763E+02  0.00000000000E+00 0.  1.
         25    2    1    2    0    0  0.17507181814E+03 -0.70505233803E+02  0.69257987173E+03  0.72865291531E+03  0.12508821992E+03 0.  0.
         23    2    1    2    0    0 -0.17507181814E+03  0.70505233803E+02  0.22207573553E+03  0.30658516748E+03  0.95161458094E+02 0.  0.
          5    1    3    3  502    0  0.62119967203E+02 -0.81120294892E+02  0.44009772909E+03  0.45182173046E+03  0.41800000000E+01 0.  1.
         -5    1    3    3    0  502  0.11295185093E+03  0.10615061089E+02  0.25248214265E+03  0.27683118485E+03  0.41800000000E+01 0.  1.
        -11    1    4    4    0    0 -0.79117425782E+02  0.16678524320E+02  0.16241670314E+03  0.18143022266E+03  0.00000000000E+00 0. -1.
         11    1    4    4    0    0 -0.95954392355E+02  0.53826709482E+02  0.59659032387E+02  0.12515494481E+03  0.00000000000E+00 0.  1.
</event>
<event>
 8    1  0.6945825E-009  0.1876720E+03  0.7561462E-02  0.1160578E+00
         -2   -1    0    0    0  501 -0.00000000000E+00  0.00000000000E+00  0.68737937848E+02  0.68737937848E+02  0.00000000000E+00 0.  1.
          2   -1    0    0  501    0  0.00000000000E+00 -0.00000000000E+00 -0.65126968143E+03  0.65126968143E+03  0.00000000000E+00 0. -1.
         25    2    1    2    0    0  0.61257925959E+02 -0.16082018271E+03 -0.40185147567E+03  0.45469476231E+03  0.12508818375E+03 0.  0.
         23    2    1    2    0    0 -0.61257925959E+02  0.16082018271E+03 -0.18068026791E+03  0.26531285697E+03  0.90165892681E+02 0.  0.
          5    1    3    3  502    0  0.33011727350E+02 -0.21532268486E+00 -0.15695723371E+03  0.16044583547E+03  0.41800000000E+01 0. -1.
         -5    1    3    3    0  502  0.28246198609E+02 -0.16060486002E+03 -0.24489424196E+03  0.29424892684E+03  0.41800000000E+01 0. -1.
        -11    1    4    4    0    0 -0.45396126426E+02  0.52225490687E+02 -0.12349628852E+03  0.14156144761E+03  0.00000000000E+00 0.  1.
         11    1    4    4    0    0 -0.15861799533E+02  0.10859469202E+03 -0.57183979393E+02  0.12375140936E+03  0.00000000000E+00 0. -1.
</event>
<event>
 8    1  0.6945825E-009  0.8602440E+02  0.7561462E-02  0.1312775E+00
          4   -1    0    0  501    0  0.00000000000E+00  0.00000000000E+00  0.78040584264E+02  0.78040584264E+02  0.00000000000E+00 0. -1.
         -4   -1    0    0    0  501 -0.00000000000E+00 -0.00000000000E+00 -0.20432203912E+03  0.20432203912E+03  0.00000000000E+00 0.  1.
         25    2    1    2    0    0  0.48583146410E+02 -0.36045102204E+02 -0.46806191890E+02  0.14661327216E+03  0.12508021612E+03 0.  0.
         23    2    1    2    0    0 -0.48583146410E+02  0.36045102204E+02 -0.79475262966E+02  0.13574935122E+03  0.91934745480E+02 0.  0.
          5    1    3    3  502    0  0.62244597112E+02 -0.11511041705E+02  0.25929970949E+02  0.68532691062E+02  0.41800000000E+01 0. -1.
         -5    1    3    3    0  502 -0.13661450701E+02 -0.24534060499E+02 -0.72736162840E+02  0.78080581097E+02  0.41800000000E+01 0. -1.
        -11    1    4    4    0    0  0.10321027169E+02  0.13851321332E+02 -0.69992525109E+02  0.72092553538E+02  0.00000000000E+00 0.  1.
         11    1    4    4    0    0 -0.58904173579E+02  0.22193780872E+02 -0.94827378563E+01  0.63656797686E+02  0.00000000000E+00 0. -1.
</event>
<event>
 8    1  0.6945825E-009  0.7825206E+02  0.7561462E-02  0.1334086E+00
         -3   -1    0    0    0  501 -0.00000000000E+00  0.00000000000E+00  0.20500063879E+03  0.20500063879E+03  0.00000000000E+00 0.  1.
          3   -1    0    0  501    0  0.00000000000E+00 -0.00000000000E+00 -0.90084250625E+02  0.90084250625E+02  0.00000000000E+00 0. -1.
         25    2    1    2    0    0  0.18201811893E+02 -0.44676863932E+02 -0.66440306454E+01  0.13423732941E+03  0.12509272295E+03 0.  0.
         23    2    1    2    0    0 -0.18201811893E+02  0.44676863932E+02  0.12156041881E+03  0.16084756001E+03  0.93635858584E+02 0.  0.
          5    1    3    3  502    0 -0.18425045582E+02 -0.65821265677E+00  0.50078173496E+02  0.53527669567E+02  0.41800000000E+01 0.  1.
         -5    1    3    3    0  502  0.36626857476E+02 -0.44018651275E+02 -0.56722204141E+02  0.80709659839E+02  0.41800000000E+01 0.  1.
        -11    1    4    4    0    0 -0.89418523147E+01 -0.16254687165E+02  0.89449101075E+02  0.91352686117E+02  0.00000000000E+00 0.  1.
         11    1    4    4    0    0 -0.92599595788E+01  0.60931551097E+02  0.32111317732E+02  0.69494873890E+02  0.00000000000E+00 0. -1.
</event>
<event>
 8    1  0.6945825E-009  0.1344997E+03  0.7561462E-02  0.1220928E+00
          2   -1    0    0  501    0  0.00000000000E+00  0.00000000000E+00  0.19377678292E+03  0.19377678292E+03  0.00000000000E+00 0. -1.
         -2   -1    0    0    0  501 -0.00000000000E+00 -0.00000000000E+00 -0.13115341315E+03  0.13115341315E+03  0.00000000000E+00 0.  1.
         25    2    1    2    0    0 -0.55611493436E+02  0.95380314748E+02 -0.38649025423E+01  0.16688968584E+03  0.12508871701E+03 0.  0.
         23    2    1    2    0    0  0.55611493436E+02 -0.95380314748E+02  0.66488272315E+02  0.15804051024E+03  0.91466222603E+02 0.  0.
          5    1    3    3  502    0 -0.84370667104E+02  0.39188952235E+02 -0.30870110973E+02  0.98105145616E+02  0.41800000000E+01 0.  1.
         -5    1    3    3    0  502  0.28759173669E+02  0.56191362513E+02  0.27005208431E+02  0.68784540222E+02  0.41800000000E+01 0.  1.
        -11    1    4    4    0    0  0.28575704257E+02 -0.27969483291E+02 -0.20322348854E+02  0.44853770547E+02  0.00000000000E+00 0.  1.
         11    1    4    4    0    0  0.27035789178E+02 -0.67410831457E+02  0.86810621168E+02  0.11318673969E+03  0.00000000000E+00 0. -1.
</event>
<event>
 8    1  0.6945825E-009  0.1126073E+03  0.7561462E-02  0.1255816E+00
         -1   -1    0    0    0  501 -0.00000000000E+00  0.00000000000E+00  0.17677771630E+02  0.17677771630E+02  0.00000000000E+00 0.  1.
          1   -1    0    0  501    0  0.00000000000E+00 -0.00000000000E+00 -0.86085615766E+03  0.86085615766E+03  0.00000000000E+00 0. -1.
         25    2    1    2    0    0 -0.25385064664E+02  0.52680315952E+02 -0.39756703451E+03  0.42086483348E+03  0.12509214176E+03 0.  0.
         23    2    1    2    0    0  0.25385064664E+02 -0.52680315952E+02 -0.44561135152E+03  0.45766909581E+03  0.86440195875E+02 0.  0.
          5    1    3    3  502    0 -0.46332831763E+02 -0.17430186073E+02 -0.74196488820E+02  0.89292407510E+02  0.41800000000E+01 0. -1.
         -5    1    3    3    0  502  0.20947767099E+02  0.70110502025E+02 -0.32337054569E+03  0.33157242597E+03  0.41800000000E+01 0. -1.
        -11    1    4    4    0    0  0.54313607380E+02 -0.48872635961E+02 -0.27296963735E+03  0.28257906045E+03  0.00000000000E+00 0.  1.
         11    1    4    4    0    0 -0.28928542716E+02 -0.38076799913E+01 -0.17264171417E+03  0.17509003536E+03  0.00000000000E+00 0. -1.
</event>
<event>
 8    1  0.6945825E-009  0.1234052E+03  0.7561462E-02  0.1237583E+00
          2   -1    0    0  501    0  0.00000000000E+00  0.00000000000E+00  0.41645783255E+03  0.41645783255E+03  0.00000000000E+00 0. -1.
         -2   -1    0    0    0  501 -0.00000000000E+00 -0.00000000000E+00 -0.45222894917E+02  0.45222894917E+02  0.00000000000E+00 0.  1.
         25    2    1    2    0    0 -0.41794583020E+02  0.63404633897E+02  0.26004448451E+03  0.29839198838E+03  0.12509080715E+03 0.  0.
         23    2    1    2    0    0  0.41794583020E+02 -0.63404633897E+02  0.11119045312E+03  0.16328873908E+03  0.92374025989E+02 0.  0.
          5    1    3    3  502    0 -0.52868870230E+02 -0.93617314787E+01  0.42222413491E+02  0.68432185824E+02  0.41800000000E+01 0.  1.
         -5    1    3    3    0  502  0.11074287210E+02  0.72766365376E+02  0.21782207102E+03  0.22995980256E+03  0.41800000000E+01 0.  1.
        -11    1    4    4    0    0 -0.67818775848E+01 -0.69897105437E+02  0.71559517931E+02  0.10026147724E+03  0.00000000000E+00 0.  1.
         11    1    4    4    0    0  0.48576460605E+02  0.64924715394E+01  0.39630935186E+02  0.63027261842E+02  0.00000000000E+00 0. -1.
</event>
<event>
 8    1  0.6945825E-009  0.9900692E+02  0.7561462E-02  0.1282398E+00
          3   -1    0    0  501    0  0.00000000000E+00  0.00000000000E+00  0.56095519150E+03  0.56095519150E+03  0.00000000000E+00 0. -1.
         -3   -1    0    0    0  501 -0.00000000000E+00 -0.00000000000E+00 -0.37530859638E+02  0.37530859638E+02  0.00000000000E+00 0.  1.
         25    2    1    2    0    0 -0.91433315747E+02 -0.19926622812E+02  0.24217082286E+03  0.28818675271E+03  0.12509106868E+03 0.  0.
         23    2    1    2    0    0  0.91433315747E+02  0.19926622812E+02  0.28125350900E+03  0.31029929843E+03  0.91787781098E+02 0.  0.
          5    1    3    3  502    0 -0.73688391204E+02 -0.21690788004E+02  0.42910894677E+02  0.88086812659E+02  0.41800000000E+01 0.  1.
         -5    1    3    3    0  502 -0.17744924544E+02  0.17641651924E+01  0.19925992819E+03  0.20009994005E+03  0.41800000000E+01 0.  1.
        -11    1    4    4    0    0  0.23044532403E+02 -0.13438002597E+02  0.98604575816E+01  0.28440446748E+02  0.00000000000E+00 0.  1.
         11    1    4    4    0    0  0.68388783344E+02  0.33364625409E+02  0.27139305142E+03  0.28185885169E+03  0.00000000000E+00 0. -1.
</event>
<event>
 8    1  0.6945825E-009  0.1227555E+03  0.7561462E-02  0.1238619E+00
          2   -1    0    0  501    0  0.00000000000E+00  0.00000000000E+00  0.11449807613E+03  0.11449807613E+03  0.00000000000E+00 0. -1.
         -2   -1    0    0    0  501 -0.00000000000E+00 -0.00000000000E+00 -0.16457433526E+03  0.16457433526E+03  0.00000000000E+00 0.  1.
         25    2    1    2    0    0 -0.63197105038E+02  0.18495975670E+02  0.28240818679E+02  0.14416027874E+03  0.12509463188E+03 0.  0.
         23    2    1    2    0    0  0.63197105038E+02 -0.18495975670E+02 -0.78317077805E+02  0.13491213265E+03  0.87930334130E+02 0.  0.
          5    1    3    3  502    0 -0.36510806765E+02  0.70240232042E+02 -0.10097516374E+00  0.79273020656E+02  0.41800000000E+01 0. -1.
         -5    1    3    3    0  502 -0.26686298274E+02 -0.51744256372E+02  0.28341793842E+02  0.64887258081E+02  0.41800000000E+01 0. -1.
        -11    1    4    4    0    0  0.71573120592E+02  0.15180362786E+02 -0.40662152630E+02  0.83705230793E+02  0.00000000000E+00 0. -1.
         11    1    4    4    0    0 -0.83760155537E+01 -0.33676338456E+02 -0.37654925175E+02  0.51206901861E+02  0.00000000000E+00 0.  1.
</event>
<event>
 8    1  0.6945825E-009  0.1091682E+03  0.7561462E-02  0.1262118E+00
         -2   -1    0    0    0  501 -0.00000000000E+00  0.00000000000E+00  0.10673985004E+03  0.10673985004E+03  0.00000000000E+00 0.  1.
          2   -1    0    0  501    0  0.00000000000E+00 -0.00000000000E+00 -0.46120486781E+03  0.46120486781E+03  0.00000000000E+00 0. -1.
         25    2    1    2    0    0 -0.12717315863E+01 -0.55396156511E+02  0.53111712886E+02  0.14675832566E+03  0.12508717219E+03 0.  0.
         23    2    1    2    0    0  0.12717315863E+01  0.55396156511E+02 -0.40757673065E+03  0.42118639220E+03  0.90602616670E+02 0.  0.
          5    1    3    3  502    0 -0.86952281508E+01  0.27677624696E+02 -0.20230508039E+02  0.35614656490E+02  0.41800000000E+01 0.  1.
         -5    1    3    3    0  502  0.74234965645E+01 -0.83073781208E+02  0.73342220925E+02  0.11114366917E+03  0.41800000000E+01 0.  1.
        -11    1    4    4    0    0  0.43823755573E+02  0.13637161350E+02 -0.15390498269E+03  0.16060273167E+03  0.00000000000E+00 0.  1.
         11    1    4    4    0    0 -0.42552023986E+02  0.41758995162E+02 -0.25367174796E+03  0.26058366053E+03  0.00000000000E+00 0. -1.
</event>
<event>
 8    1  0.6945825E-009  0.1065896E+03  0.7561462E-02  0.1267019E+00
          1   -1    0    0  501    0  0.00000000000E+00  0.00000000000E+00  0.27456940363E+03  0.27456940363E+03  0.00000000000E+00 0. -1.
         -1   -1    0    0    0  501 -0.00000000000E+00 -0.00000000000E+00 -0.59658845975E+02  0.59658845975E+02  0.00000000000E+00 0.  1.
         25    2    1    2    0    0 -0.95842369902E+01  0.56853480651E+02  0.16951934944E+03  0.21842243771E+03  0.12508947038E+03 0.  0.
         23    2    1    2    0    0  0.95842369902E+01 -0.56853480651E+02  0.45391208209E+02  0.11580581189E+03  0.89590448282E+02 0.  0.
          5    1    3    3  502    0  0.11843127044E+02  0.76577584825E+02  0.43391181306E+02  0.88908116451E+02  0.41800000000E+01 0. -1.
         -5    1    3    3    0  502 -0.21427364034E+02 -0.19724104174E+02  0.12612816814E+03  0.12951432126E+03  0.41800000000E+01 0. -1.
        -11    1    4    4    0    0  0.45642217352E+02 -0.94710074345E+01  0.15085140333E+02  0.48994626700E+02  0.00000000000E+00 0.  1.
         11    1    4    4    0    0 -0.36057980362E+02 -0.47382473217E+02  0.30306067877E+02  0.66811185187E+02  0.00000000000E+00 0. -1.
</event>
<event>
 8    1  0.6945825E-009  0.1227709E+03  0.7561462E-02  0.1238595E+00
         -1   -1    0    0    0  501 -0.00000000000E+00  0.00000000000E+00  0.66602425102E+02  0.66602425102E+02  0.00000000000E+00 0.  1.
          1   -1    0    0  501    0  0.00000000000E+00 -0.00000000000E+00 -0.34578542015E+03  0.34578542015E+03  0.00000000000E+00 0. -1.
         25    2    1    2    0    0  0.10752965545E+02  0.57706454438E+02 -0.26807760618E+03  0.30159345592E+03  0.12508936232E+03 0.  0.
         23    2    1    2    0    0 -0.10752965545E+02 -0.57706454438E+02 -0.11105388865E+02  0.11079438933E+03  0.93308123410E+02 0.  0.
          5    1    3    3  502    0 -0.42535997197E+02 -0.15733390539E+02 -0.11359972914E+03  0.12238962986E+03  0.41800000000E+01 0.  1.
         -5    1    3    3    0  502  0.53288962741E+02  0.73439844976E+02 -0.15447787704E+03  0.17920382606E+03  0.41800000000E+01 0.  1.
        -11    1    4    4    0    0 -0.49376513698E+02 -0.15048334269E+02  0.24390901721E+01  0.51676315950E+02  0.00000000000E+00 0.  1.
         11    1    4    4    0    0  0.38623548154E+02 -0.42658120169E+02 -0.13544479038E+02  0.59118073385E+02  0.00000000000E+00 0. -1.
</event>
<event>
 8    1  0.6945825E-009  0.2499722E+03  0.7561462E-02  0.1113322E+00
         -2   -1    0    0    0  501 -0.00000000000E+00  0.00000000000E+00  0.49548418989E+03  0.49548418989E+03  0.00000000000E+00 0.  1.
          2   -1    0    0  501    0  0.00000000000E+00 -0.00000000000E+00 -0.17397974605E+03  0.17397974605E+03  0.00000000000E+00 0. -1.
         25    2    1    2    0    0  0.97344233956E+02  0.21488619718E+03  0.31941235548E+03  0.41632219630E+03  0.12509172904E+03 0.  0.
         23    2    1    2    0    0 -0.97344233956E+02 -0.21488619718E+03  0.20920883562E+01  0.25314173964E+03  0.91784453429E+02 0.  0.
          5    1    3    3  502    0  0.53897805128E+02  0.35775847507E+02  0.26091682485E+02  0.69879417265E+02  0.41800000000E+01 0. -1.
         -5    1    3    3    0  502  0.43446428828E+02  0.17911034968E+03  0.29332067300E+03  0.34644277904E+03  0.41800000000E+01 0. -1.
        -11    1    4    4    0    0 -0.40319369958E+02 -0.17878579753E+03  0.16873078480E+02  0.18405084561E+03  0.00000000000E+00 0.  1.
         11    1    4    4    0    0 -0.57024863999E+02 -0.36100399652E+02 -0.14780990123E+02  0.69090894032E+02  0.00000000000E+00 0. -1.
</event>
<event>
 8    1  0.6945825E-009  0.1060196E+03  0.7561462E-02  0.1268124E+00
         -1   -1    0    0    0  501 -0.00000000000E+00  0.00000000000E+00  0.45269505226E+03  0.45269505226E+03  0.00000000000E+00 0.  1.
          1   -1    0    0  501    0  0.00000000000E+00 -0.00000000000E+00 -0.31815821504E+02  0.31815821504E+02  0.00000000000E+00 0. -1.
         25    2    1    2    0    0 -0.34576480881E+02 -0.35493412111E+02  0.20470919191E+03  0.24496565602E+03  0.12508798520E+03 0.  0.
         23    2    1    2    0    0  0.34576480881E+02  0.35493412111E+02  0.21617003885E+03  0.23954521775E+03  0.90537894379E+02 0.  0.
          5    1    3    3  502    0 -0.45028103032E+02  0.24284133774E+02  0.28845556650E+02  0.58879434052E+02  0.41800000000E+01 0.  1.
         -5    1    3    3    0  502  0.10451622151E+02 -0.59777545885E+02  0.17586363526E+03  0.18608622197E+03  0.41800000000E+01 0.  1.
        -11    1    4    4    0    0  0.38363105879E+02  0.62106875124E+02  0.12782877151E+03  0.14720457417E+03  0.00000000000E+00 0. -1.
         11    1    4    4    0    0 -0.37866249978E+01 -0.26613463013E+02  0.88341267333E+02  0.92340643578E+02  0.00000000000E+00 0.  1.
</event>
<event>
 8    1  0.6945825E-009  0.1669742E+03  0.7561462E-02  0.1181041E+00
          1   -1    0    0  501    0  0.00000000000E+00  0.00000000000E+00  0.51075019598E+03  0.51075019598E+03  0.00000000000E+00 0. -1.
         -1   -1    0    0    0  501 -0.00000000000E+00 -0.00000000000E+00 -0.74731697308E+02  0.74731697308E+02  0.00000000000E+00 0.  1.
         25    2    1    2    0    0 -0.13551876531E+03  0.22891872350E+02  0.99661349091E+02  0.21088150317E+03  0.12509696360E+03 0.  0.
         23    2    1    2    0    0  0.13551876531E+03 -0.22891872350E+02  0.33635714958E+03  0.37460039012E+03  0.91104042903E+02 0.  0.
          5    1    3    3  502    0 -0.84683462344E+02  0.71518557759E+02  0.38025572886E+02  0.11725872885E+03  0.41800000000E+01 0. -1.
         -5    1    3    3    0  502 -0.50835302970E+02 -0.48626685409E+02  0.61635776206E+02  0.93622774314E+02  0.41800000000E+01 0. -1.
        -11    1    4    4    0    0  0.10916497565E+03  0.10892782913E+02  0.29624818187E+03  0.31590921147E+03  0.00000000000E+00 0. -1.
         11    1    4    4    0    0  0.26353789664E+02 -0.33784655263E+02  0.40108967704E+02  0.58691178649E+02  0.00000000000E+00 0.  1.
</event>
<event>
 8    1  0.6945825E-009  0.1881323E+03  0.7561462E-02  0.1160157E+00
          1   -1    0    0  501    0  0.00000000000E+00  0.00000000000E+00  0.44532456381E+03  0.44532456381E+03  0.00000000000E+00 0. -1.
         -1   -1    0    0    0  501 -0.00000000000E+00 -0.00000000000E+00 -0.10664183441E+03  0.10664183441E+03  0.00000000000E+00 0.  1.
         25    2    1    2    0    0 -0.16474133526E+03  0.41477936832E+02  0.27464320301E+03  0.34632219028E+03  0.12510013483E+03 0.  0.
         23    2    1    2    0    0  0.16474133526E+03 -0.41477936832E+02  0.64039526384E+02  0.20564420793E+03  0.96583396750E+02 0.  0.
          5    1    3    3  502    0 -0.18319592734E+03  0.37255971266E+02  0.26586749772E+03  0.32504115729E+03  0.41800000000E+01 0.  1.
         -5    1    3    3    0  502  0.18454592077E+02  0.42219655661E+01  0.87757052975E+01  0.21281032997E+02  0.41800000000E+01 0.  1.
        -11    1    4    4    0    0  0.12154906387E+03 -0.30224476509E+02  0.89794120513E+02  0.15411254974E+03  0.00000000000E+00 0. -1.
         11    1    4    4    0    0  0.43192271391E+02 -0.11253460323E+02 -0.25754594129E+02  0.51531658191E+02  0.00000000000E+00 0.  1.
</event>
<event>
 8    1  0.6945825E-009  0.8316432E+02  0.7561462E-02  0.1320304E+00
          1   -1    0    0  501    0  0.00000000000E+00  0.00000000000E+00  0.42145254122E+02  0.42145254122E+02  0.00000000000E+00 0. -1.
         -1   -1    0    0    0  501 -0.00000000000E+00 -0.00000000000E+00 -0.36024358061E+03  0.36024358061E+03  0.00000000000E+00 0.  1.
         25    2    1    2    0    0 -0.24274946322E+02 -0.51960161587E+02 -0.19838903638E+03  0.24144234577E+03  0.12508822952E+03 0.  0.
         23    2    1    2    0    0  0.24274946322E+02  0.51960161587E+02 -0.11970929010E+03  0.16094648896E+03  0.91018277067E+02 0.  0.
          5    1    3    3  502    0 -0.15702839348E+01  0.18094526726E+02 -0.15448288068E+03  0.15560305432E+03  0.41800000000E+01 0.  1.
         -5    1    3    3    0  502 -0.22704662387E+02 -0.70054688313E+02 -0.43906155700E+02  0.85839291453E+02  0.41800000000E+01 0.  1.
        -11    1    4    4    0    0  0.31289118479E+02  0.12243338630E+02  0.10648916209E+01  0.33616101353E+02  0.00000000000E+00 0. -1.
         11    1    4    4    0    0 -0.70141721574E+01  0.39716822957E+02 -0.12077418172E+03  0.12733038761E+03  0.00000000000E+00 0.  1.
</event>
<event>
 8    1  0.6945825E-009  0.1774045E+03  0.7561462E-02  0.1170339E+00
         -1   -1    0    0    0  501 -0.00000000000E+00  0.00000000000E+00  0.10211528476E+03  0.10211528476E+03  0.00000000000E+00 0.  1.
          1   -1    0    0  501    0  0.00000000000E+00 -0.00000000000E+00 -0.48541153897E+03  0.48541153897E+03  0.00000000000E+00 0. -1.
         25    2    1    2    0    0 -0.14011494600E+03 -0.55885686631E+02 -0.35910487972E+03  0.40909039294E+03  0.12507288631E+03 0.  0.
         23    2    1    2    0    0  0.14011494600E+03  0.55885686631E+02 -0.24191374483E+02  0.17843643079E+03  0.92189637007E+02 0.  0.
          5    1    3    3  502    0 -0.71353294940E+02 -0.92950220200E+02 -0.20127846703E+03  0.23294104367E+03  0.41800000000E+01 0.  1.
         -5    1    3    3    0  502 -0.68761651064E+02  0.37064533569E+02 -0.15782641269E+03  0.17614934927E+03  0.41800000000E+01 0.  1.
        -11    1    4    4    0    0  0.12126603265E+03  0.26042255913E+02  0.15871468097E+02  0.12504220595E+03  0.00000000000E+00 0.  1.
         11    1    4    4    0    0  0.18848913350E+02  0.29843430718E+02 -0.40062842579E+02  0.53394224848E+02  0.00000000000E+00 0. -1.
</event>
<event>
 8    1  0.6945825E-009  0.9362428E+02  0.7561462E-02  0.1294305E+00
         -3   -1    0    0    0  501 -0.00000000000E+00  0.00000000000E+00  0.93067587661E+02  0.93067587661E+02  0.00000000000E+00 0.  1.
          3   -1    0    0  501    0  0.00000000000E+00 -0.00000000000E+00 -0.13738345431E+03  0.13738345431E+03  0.00000000000E+00 0. -1.
         25    2    1    2    0    0 -0.28622576759E+02  0.67004387078E+01 -0.17826427630E+02  0.12972906486E+03  0.12509077092E+03 0.  0.
         23    2    1    2    0    0  0.28622576759E+02 -0.67004387078E+01 -0.26489439020E+02  0.10072197711E+03  0.92623315173E+02 0.  0.
          5    1    3    3  502    0 -0.53612547845E+02  0.34273638680E+02 -0.49466119559E+02  0.80705371439E+02  0.41800000000E+01 0. -1.
         -5    1    3    3    0  502  0.24989971087E+02 -0.27573199972E+02  0.31639691930E+02  0.49023693425E+02  0.41800000000E+01 0. -1.
        -11    1    4    4    0    0  0.45278075687E+02 -0.32211116368E+02 -0.38894861190E+02  0.67826767449E+02  0.00000000000E+00 0. -1.
         11    1    4    4    0    0 -0.16655498929E+02  0.25510677660E+02  0.12405422170E+02  0.32895209658E+02  0.00000000000E+00 0.  1.
</event>
<event>
 8    1  0.6945825E-009  0.1950941E+03  0.7561462E-02  0.1153945E+00
          2   -1    0    0  501    0  0.00000000000E+00  0.00000000000E+00  0.80330353333E+02  0.80330353333E+02  0.00000000000E+00 0.  1.
         -2   -1    0    0    0  501 -0.00000000000E+00 -0.00000000000E+00 -0.62235995512E+03  0.62235995512E+03  0.00000000000E+00 0. -1.
         25    2    1    2    0    0 -0.12416441750E+03  0.11943346661E+03 -0.42549147105E+03  0.47578577891E+03  0.12509180613E+03 0.  0.
         23    2    1    2    0    0  0.12416441750E+03 -0.11943346661E+03 -0.11653813074E+03  0.22690452954E+03  0.90682821357E+02 0.  0.
          5    1    3    3  502    0 -0.70805227550E+02  0.11468825258E+01 -0.23333248396E+03  0.24387746116E+03  0.41800000000E+01 0.  1.
         -5    1    3    3    0  502 -0.53359189955E+02  0.11828658409E+03 -0.19215898708E+03  0.23190831776E+03  0.41800000000E+01 0.  1.
        -11    1    4    4    0    0  0.11398011981E+03 -0.59404486345E+02 -0.10255676711E+03  0.16443312072E+03  0.00000000000E+00 0. -1.
         11    1    4    4    0    0  0.10184297694E+02 -0.60028980267E+02 -0.13981363635E+02  0.62471408824E+02  0.00000000000E+00 0.  1.
</event>
<event>
 8    1  0.6945825E-009  0.9503743E+02  0.7561462E-02  0.1291092E+00
          1   -1    0    0  501    0  0.00000000000E+00  0.00000000000E+00  0.20774394429E+03  0.20774394429E+03  0.00000000000E+00 0. -1.
         -1   -1    0    0    0  501 -0.00000000000E+00 -0.00000000000E+00 -0.66298451872E+02  0.66298451872E+02  0.00000000000E+00 0.  1.
         25    2    1    2    0    0 -0.30812561230E+02 -0.20356064484E+02  0.10128256771E+03  0.16514193313E+03  0.12509962536E+03 0.  0.
         23    2    1    2    0    0  0.30812561230E+02  0.20356064484E+02  0.40162924712E+02  0.10890046304E+03  0.94246840993E+02 0.  0.
          5    1    3    3  502    0 -0.49965465614E+02 -0.63414047399E+02  0.48562945357E+02  0.94306527999E+02  0.41800000000E+01 0.  1.
         -5    1    3    3    0  502  0.19152904384E+02  0.43057982915E+02  0.52719622350E+02  0.70835405128E+02  0.41800000000E+01 0.  1.
        -11    1    4    4    0    0 -0.13766508828E+02  0.66186877795E+01 -0.24678278643E+02  0.29023115443E+02  0.00000000000E+00 0.  1.
         11    1    4    4    0    0  0.44579070058E+02  0.13737376705E+02  0.64841203355E+02  0.79877347593E+02  0.00000000000E+00 0. -1.
</event>
<event>
 8    1  0.6945825E-009  0.1254479E+03  0.7561462E-02  0.1234371E+00
         -1   -1    0    0    0  501 -0.00000000000E+00  0.00000000000E+00  0.20457605215E+03  0.20457605215E+03  0.00000000000E+00 0.  1.
          1   -1    0    0  501    0  0.00000000000E+00 -0.00000000000E+00 -0.13772340631E+03  0.13772340631E+03  0.00000000000E+00 0. -1.
         25    2    1    2    0    0 -0.42046170779E+01  0.65689636303E+02 -0.75706972650E+02  0.16035101233E+03  0.12509234319E+03 0.  0.
         23    2    1    2    0    0  0.42046170779E+01 -0.65689636303E+02  0.14255961849E+03  0.18194844613E+03  0.91919448988E+02 0.  0.
          5    1    3    3  502    0 -0.62325581219E+02  0.27452848979E+02 -0.55013531248E+02  0.87647578471E+02  0.41800000000E+01 0. -1.
         -5    1    3    3    0  502  0.58120964141E+02  0.38236787325E+02 -0.20693441402E+02  0.72703433858E+02  0.41800000000E+01 0. -1.
        -11    1    4    4    0    0 -0.27876464888E+02 -0.74627993573E+02  0.10379555752E+03  0.13084323628E+03  0.00000000000E+00 0.  1.
         11    1    4    4    0    0  0.32081081966E+02  0.89383572699E+01  0.38764060976E+02  0.51105209853E+02  0.00000000000E+00 0. -1.
</event>
<event>
 8    1  0.6945825E-009  0.1076110E+03  0.7561462E-02  0.1265059E+00
         -1   -1    0    0    0  501 -0.00000000000E+00  0.00000000000E+00  0.47478949409E+02  0.47478949409E+02  0.00000000000E+00 0.  1.
          1   -1    0    0  501    0  0.00000000000E+00 -0.00000000000E+00 -0.31813175617E+03  0.31813175617E+03  0.00000000000E+00 0. -1.
         25    2    1    2    0    0 -0.20984025500E+02  0.44405228344E+02 -0.19206205247E+03  0.23440908029E+03  0.12509049242E+03 0.  0.
         23    2    1    2    0    0  0.20984025500E+02 -0.44405228344E+02 -0.78590754291E+02  0.13120162529E+03  0.92871988177E+02 0.  0.
          5    1    3    3  502    0  0.32648117368E+02  0.67931699615E+02 -0.11412624360E+03  0.13683160183E+03  0.41800000000E+01 0. -1.
         -5    1    3    3    0  502 -0.53632142867E+02 -0.23526471271E+02 -0.77935808870E+02  0.97577478463E+02  0.41800000000E+01 0. -1.
        -11    1    4    4    0    0 -0.12799551610E+02 -0.45454372804E+02 -0.17487675246E+01  0.47254488848E+02  0.00000000000E+00 0.  1.
         11    1    4    4    0    0  0.33783577109E+02  0.10491444598E+01 -0.76841986767E+02  0.83947136441E+02  0.00000000000E+00 0. -1.
</event>
<event>
 8    1  0.6945825E-009  0.2244747E+03  0.7561462E-02  0.1130590E+00
          2   -1    0    0  501    0  0.00000000000E+00  0.00000000000E+00  0.82426240272E+03  0.82426240272E+03  0.00000000000E+00 0. -1.
         -2   -1    0    0    0  501 -0.00000000000E+00 -0.00000000000E+00 -0.73128229800E+02  0.73128229800E+02  0.00000000000E+00 0.  1.
         25    2    1    2    0    0 -0.14115259385E+03 -0.15117711849E+03  0.24926147246E+03  0.34721444465E+03  0.12509201818E+03 0.  0.
         23    2    1    2    0    0  0.14115259385E+03  0.15117711849E+03  0.50187270046E+03  0.55017618787E+03  0.89660773618E+02 0.  0.
          5    1    3    3  502    0 -0.22206397995E+02  0.22028892412E+02  0.32952454430E+02  0.45626010846E+02  0.41800000000E+01 0. -1.
         -5    1    3    3    0  502 -0.11894619586E+03 -0.17320601090E+03  0.21630901803E+03  0.30158843380E+03  0.41800000000E+01 0. -1.
        -11    1    4    4    0    0  0.77062820147E+02  0.91906143319E+02  0.17721733584E+03  0.21398925569E+03  0.00000000000E+00 0.  1.
         11    1    4    4    0    0  0.64089773704E+02  0.59270975174E+02  0.32465536463E+03  0.33618693218E+03  0.00000000000E+00 0. -1.
</event>
<event>
 8    1  0.6945825E-009  0.7892617E+02  0.7561462E-02  0.1332127E+00
          3   -1    0    0  501    0  0.00000000000E+00  0.00000000000E+00  0.93777644461E+02  0.93777644461E+02  0.00000000000E+00 0. -1.
         -3   -1    0    0    0  501 -0.00000000000E+00 -0.00000000000E+00 -0.18154127165E+03  0.18154127165E+03  0.00000000000E+00 0.  1.
         25    2    1    2    0    0  0.44971947581E+02 -0.27913528853E+02  0.14280310948E+01  0.13583356461E+03  0.12508827619E+03 0.  0.
         23    2    1    2    0    0 -0.44971947581E+02  0.27913528853E+02 -0.89191658280E+02  0.13948535150E+03  0.93270414463E+02 0.  0.
          5    1    3    3  502    0 -0.23254152229E+01  0.11288824022E+02  0.53689111342E+02  0.55071210087E+02  0.41800000000E+01 0.  1.
         -5    1    3    3    0  502  0.47297362804E+02 -0.39202352875E+02 -0.52261080247E+02  0.80762354521E+02  0.41800000000E+01 0.  1.
        -11    1    4    4    0    0 -0.44986713037E+02 -0.10016288332E+02 -0.40364018458E+01  0.46264704924E+02  0.00000000000E+00 0. -1.
         11    1    4    4    0    0  0.14765455900E-01  0.37929817185E+02 -0.85155256434E+02  0.93220646576E+02  0.00000000000E+00 0.  1.
</event>
<event>
 8    1  0.6945825E-009  0.9214661E+02  0.7561462E-02  0.1297735E+00
         -2   -1    0    0    0  501 -0.00000000000E+00  0.00000000000E+00  0.42222862594E+02  0.42222862594E+02  0.00000000000E+00 0.  1.
          2   -1    0    0  501    0  0.00000000000E+00 -0.00000000000E+00 -0.34755330283E+03  0.34755330283E+03  0.00000000000E+00 0. -1.
         25    2    1    2    0    0 -0.18282865662E+01  0.12257187942E+02 -0.88385006866E+02  0.15366456642E+03  0.12508920116E+03 0.  0.
         23    2    1    2    0    0  0.18282865662E+01 -0.12257187942E+02 -0.21694543337E+03  0.23611159901E+03  0.92356834267E+02 0.  0.
          5    1    3    3  502    0  0.51137030334E+02 -0.19848274674E+02 -0.69783723248E+02  0.88860510404E+02  0.41800000000E+01 0.  1.
         -5    1    3    3    0  502 -0.52965316900E+02  0.32105462615E+02 -0.18601283618E+02  0.64804056017E+02  0.41800000000E+01 0.  1.
        -11    1    4    4    0    0  0.28869433791E+02  0.11628579435E+02 -0.22645213702E+02  0.38489917780E+02  0.00000000000E+00 0.  1.
         11    1    4    4    0    0 -0.27041147225E+02 -0.23885767377E+02 -0.19430021967E+03  0.19762168122E+03  0.00000000000E+00 0. -1.
</event>
<event>
 8    1  0.6945825E-009  0.8806873E+02  0.7561462E-02  0.1307597E+00
         -1   -1    0    0    0  501 -0.00000000000E+00  0.00000000000E+00  0.15851294351E+03  0.15851294351E+03  0.00000000000E+00 0.  1.
          1   -1    0    0  501    0  0.00000000000E+00 -0.00000000000E+00 -0.12570059730E+03  0.12570059730E+03  0.00000000000E+00 0. -1.
         25    2    1    2    0    0 -0.11116551306E+02 -0.45150378097E+02  0.94540771527E+02  0.16355021555E+03  0.12509428912E+03 0.  0.
         23    2    1    2    0    0  0.11116551306E+02  0.45150378097E+02 -0.61728425316E+02  0.12066332526E+03  0.92666634861E+02 0.  0.
          5    1    3    3  502    0 -0.26658426730E+01  0.31880383037E+02 -0.96111461075E+01  0.33664700641E+02  0.41800000000E+01 0.  1.
         -5    1    3    3    0  502 -0.84507086331E+01 -0.77030761134E+02  0.10415191763E+03  0.12988551491E+03  0.41800000000E+01 0.  1.
        -11    1    4    4    0    0 -0.18680004139E+02  0.18548050354E+02 -0.74269606997E+02  0.78796873352E+02  0.00000000000E+00 0. -1.
         11    1    4    4    0    0  0.29796555445E+02  0.26602327743E+02  0.12541181681E+02  0.41866451912E+02  0.00000000000E+00 0.  1.
</event>
<event>
 8    1  0.6945825E-009  0.1309837E+03  0.7561462E-02  0.1226003E+00
         -1   -1    0    0    0  501 -0.00000000000E+00  0.00000000000E+00  0.13304687931E+03  0.13304687931E+03  0.00000000000E+00 0.  1.
          1   -1    0    0  501    0  0.00000000000E+00 -0.00000000000E+00 -0.13569198101E+03  0.13569198101E+03  0.00000000000E+00 0. -1.
         25    2    1    2    0    0 -0.64886817375E+02 -0.34049624577E+02  0.19247753499E+02  0.14624457921E+03  0.12508926785E+03 0.  0.
         23    2    1    2    0    0  0.64886817375E+02  0.34049624577E+02 -0.21892855192E+02  0.12249428111E+03  0.95686340680E+02 0.  0.
          5    1    3    3  502    0 -0.54102015490E+02 -0.78797996023E+02 -0.12533165826E+01  0.95682785598E+02  0.41800000000E+01 0. -1.
         -5    1    3    3    0  502 -0.10784801885E+02  0.44748371446E+02  0.20501070082E+02  0.50561793612E+02  0.41800000000E+01 0. -1.
        -11    1    4    4    0    0 -0.17603312068E+02 -0.15831323871E+02 -0.85737836322E+01  0.25179697715E+02  0.00000000000E+00 0.  1.
         11    1    4    4    0    0  0.82490129443E+02  0.49880948448E+02 -0.13319071560E+02  0.97314583392E+02  0.00000000000E+00 0. -1.
</event>
<event>
 8    1  0.6945825E-009  0.2554140E+03  0.7561462E-02  0.1109930E+00
          2   -1    0    0  501    0  0.00000000000E+00  0.00000000000E+00  0.10447482385E+04  0.10447482385E+04  0.00000000000E+00 0.  1.
         -2   -1    0    0    0  501 -0.00000000000E+00 -0.00000000000E+00 -0.11779700497E+03  0.11779700497E+03  0.00000000000E+00 0. -1.
         25    2    1    2    0    0  0.11446856660E+03  0.22243673392E+03  0.83532254021E+03  0.88090667553E+03  0.12510664039E+03 0.  0.
         23    2    1    2    0    0 -0.11446856660E+03 -0.22243673392E+03  0.91628693312E+02  0.28163856792E+03  0.91341732877E+02 0.  0.
          5    1    3    3  502    0  0.65742449376E+02  0.11131286697E+03  0.23322930789E+03  0.26669459399E+03  0.41800000000E+01 0. -1.
         -5    1    3    3    0  502  0.48726117226E+02  0.11112386695E+03  0.60209323232E+03  0.61421208154E+03  0.41800000000E+01 0. -1.
        -11    1    4    4    0    0 -0.11812095274E+03 -0.16719404418E+03  0.96000630979E+02  0.22610291691E+03  0.00000000000E+00 0.  1.
         11    1    4    4    0    0  0.36523861403E+01 -0.55242689743E+02 -0.43719376674E+01  0.55535651014E+02  0.00000000000E+00 0. -1.
</event>
<event>
 8    1  0.6945825E-009  0.1153461E+03  0.7561462E-02  0.1250978E+00
          1   -1    0    0  501    0  0.00000000000E+00  0.00000000000E+00  0.58561627889E+03  0.58561627889E+03  0.00000000000E+00 0. -1.
         -1   -1    0    0    0  501 -0.00000000000E+00 -0.00000000000E+00 -0.23531180835E+02  0.23531180835E+02  0.00000000000E+00 0.  1.
         25    2    1    2    0    0  0.24527313098E+02 -0.34631334227E+02  0.35502559631E+03  0.37880233808E+03  0.12508844433E+03 0.  0.
         23    2    1    2    0    0 -0.24527313098E+02  0.34631334227E+02  0.20705950175E+03  0.23034512164E+03  0.91565929264E+02 0.  0.
          5    1    3    3  502    0  0.56812348481E+02 -0.64497041664E+02  0.26303278027E+03  0.27675120094E+03  0.41800000000E+01 0. -1.
         -5    1    3    3    0  502 -0.32285035383E+02  0.29865707437E+02  0.91992816032E+02  0.10205113714E+03  0.41800000000E+01 0. -1.
        -11    1    4    4    0    0  0.31055681036E+02 -0.59754550935E+01  0.75749831877E+02  0.82086530061E+02  0.00000000000E+00 0. -1.
         11    1    4    4    0    0 -0.55582994133E+02  0.40606789321E+02  0.13130966987E+03  0.14825859158E+03  0.00000000000E+00 0.  1.
</event>
<event>
 8    1  0.6945825E-009  0.5888811E+02  0.7561462E-02  0.1402558E+00
         -2   -1    0    0    0  501 -0.00000000000E+00  0.00000000000E+00  0.13904866646E+02  0.13904866646E+02  0.00000000000E+00 0.  1.
          2   -1    0    0  501    0  0.00000000000E+00 -0.00000000000E+00 -0.10154648438E+04  0.10154648438E+04  0.00000000000E+00 0. -1.
         25    2    1    2    0    0  0.25521987335E+02  0.18320566937E+02 -0.72581723319E+03  0.73718770034E+03  0.12509210418E+03 0.  0.
         23    2    1    2    0    0 -0.25521987335E+02 -0.18320566937E+02 -0.27574274399E+03  0.29218201013E+03  0.91374236908E+02 0.  0.
          5    1    3    3  502    0  0.23334123311E+02  0.19473063517E+02 -0.73008080873E+03  0.73072507907E+03  0.41800000000E+01 0.  1.
         -5    1    3    3    0  502  0.21878640245E+01 -0.11524965797E+01  0.42635755346E+01  0.64626212712E+01  0.41800000000E+01 0.  1.
        -11    1    4    4    0    0 -0.13059159584E+00 -0.45237683087E+02 -0.22428068325E+03  0.22879748666E+03  0.00000000000E+00 0. -1.
         11    1    4    4    0    0 -0.25391395739E+02  0.26917116150E+02 -0.51462060746E+02  0.63384523471E+02  0.00000000000E+00 0.  1.
</event>
<event>
 8    1  0.6945825E-009  0.2749224E+03  0.7561462E-02  0.1098495E+00
          2   -1    0    0  501    0  0.00000000000E+00  0.00000000000E+00  0.54953477458E+03  0.54953477458E+03  0.00000000000E+00 0. -1.
         -2   -1    0    0    0  501 -0.00000000000E+00 -0.00000000000E+00 -0.15387117818E+03  0.15387117818E+03  0.00000000000E+00 0.  1.
         25    2    1    2    0    0 -0.13878611751E+03 -0.21604957905E+03  0.30101857502E+03  0.41496659684E+03  0.12508431940E+03 0.  0.
         23    2    1    2    0    0  0.13878611751E+03  0.21604957905E+03  0.94645021379E+02  0.28843935592E+03  0.91107491185E+02 0.  0.
          5    1    3    3  502    0  0.16879421442E+02 -0.12416754969E+02  0.57691171419E+02  0.61521007240E+02  0.41800000000E+01 0. -1.
         -5    1    3    3    0  502 -0.15566553896E+03 -0.20363282408E+03  0.24332740360E+03  0.35344558960E+03  0.41800000000E+01 0. -1.
        -11    1    4    4    0    0  0.10127624108E+03  0.74592820841E+02  0.36547175676E+02  0.13098344162E+03  0.00000000000E+00 0.  1.
         11    1    4    4    0    0  0.37509876432E+02  0.14145675821E+03  0.58097845703E+02  0.15745591430E+03  0.00000000000E+00 0. -1.
</event>
<event>
 8    1  0.6945825E-009  0.1017206E+03  0.7561462E-02  0.1276719E+00
         -1   -1    0    0    0  501 -0.00000000000E+00  0.00000000000E+00  0.28305865287E+03  0.28305865287E+03  0.00000000000E+00 0.  1.
          1   -1    0    0  501    0  0.00000000000E+00 -0.00000000000E+00 -0.51819406312E+02  0.51819406312E+02  0.00000000000E+00 0. -1.
         25    2    1    2    0    0 -0.49756009645E+02 -0.24597463077E+02  0.10144929234E+03  0.17035346563E+03  0.12509056179E+03 0.  0.
         23    2    1    2    0    0  0.49756009645E+02  0.24597463077E+02  0.12978995422E+03  0.16452459356E+03  0.84511620405E+02 0.  0.
          5    1    3    3  502    0 -0.57636126216E+02 -0.62554947752E+02  0.32518938412E+02  0.91159192016E+02  0.41800000000E+01 0.  1.
         -5    1    3    3    0  502  0.78801165713E+01  0.37957484675E+02  0.68930353931E+02  0.79194273613E+02  0.41800000000E+01 0.  1.
        -11    1    4    4    0    0  0.22710118420E+02  0.41561945846E+02  0.22216712780E+02  0.52313737659E+02  0.00000000000E+00 0.  1.
         11    1    4    4    0    0  0.27045891225E+02 -0.16964482769E+02  0.10757324144E+03  0.11221085590E+03  0.00000000000E+00 0. -1.
</event>
<event>
 8    1  0.6945825E-009  0.1710740E+03  0.7561462E-02  0.1176732E+00
          2   -1    0    0  501    0  0.00000000000E+00  0.00000000000E+00  0.20518611008E+04  0.20518611008E+04  0.00000000000E+00 0. -1.
         -2   -1    0    0    0  501 -0.00000000000E+00 -0.00000000000E+00 -0.17152482838E+02  0.17152482838E+02  0.00000000000E+00 0.  1.
         25    2    1    2    0    0 -0.66604903667E+02 -0.13250159785E+03  0.12648353588E+04  0.12796284386E+04  0.12509024497E+03 0.  0.
         23    2    1    2    0    0  0.66604903667E+02  0.13250159785E+03  0.76987325909E+03  0.78938514496E+03  0.91821486593E+02 0.  0.
          5    1    3    3  502    0 -0.10076393825E+03 -0.77308183091E+02  0.91718019148E+03  0.92594109017E+03  0.41800000000E+01 0.  1.
         -5    1    3    3    0  502  0.34159034585E+02 -0.55193414762E+02  0.34765516735E+03  0.35368734846E+03  0.41800000000E+01 0.  1.
        -11    1    4    4    0    0  0.67018896409E+02  0.11938960042E+03  0.76174743085E+03  0.77395384718E+03  0.00000000000E+00 0. -1.
         11    1    4    4    0    0 -0.41399274162E+00  0.13111997428E+02  0.81258282414E+01  0.15431297780E+02  0.00000000000E+00 0.  1.
</event>
<event>
 8    1  0.6945825E-009  0.1116964E+03  0.7561462E-02  0.1257460E+00
          2   -1    0    0  501    0  0.00000000000E+00  0.00000000000E+00  0.14914819312E+03  0.14914819312E+03  0.00000000000E+00 0. -1.
         -2   -1    0    0    0  501 -0.00000000000E+00 -0.00000000000E+00 -0.10470762357E+03  0.10470762357E+03  0.00000000000E+00 0.  1.
         25    2    1    2    0    0 -0.34225879081E+02  0.47833949169E+02  0.21644458219E+02  0.13991110102E+03  0.12508851316E+03 0.  0.
         23    2    1    2    0    0  0.34225879081E+02 -0.47833949169E+02  0.22796111336E+02  0.11394471567E+03  0.94890663634E+02 0.  0.
          5    1    3    3  502    0  0.34452703585E+02 -0.76848999539E+00 -0.25779471861E+02  0.43239252198E+02  0.41800000000E+01 0. -1.
         -5    1    3    3    0  502 -0.68678582666E+02  0.48602439164E+02  0.47423930080E+02  0.96671848818E+02  0.41800000000E+01 0. -1.
        -11    1    4    4    0    0  0.40495210996E+02 -0.70291828887E+02 -0.30415838892E+00  0.81122720826E+02  0.00000000000E+00 0.  1.
         11    1    4    4    0    0 -0.62693319158E+01  0.22457879718E+02  0.23100269725E+02  0.32821994843E+02  0.00000000000E+00 0. -1.
</event>
<event>
 8    1  0.6945825E-009  0.8720991E+02  0.7561462E-02  0.1309752E+00
         -1   -1    0    0    0  501 -0.00000000000E+00  0.00000000000E+00  0.22997572926E+03  0.22997572926E+03  0.00000000000E+00 0.  1.
          1   -1    0    0  501    0  0.00000000000E+00 -0.00000000000E+00 -0.99346171954E+02  0.99346171954E+02  0.00000000000E+00 0. -1.
         25    2    1    2    0    0  0.22153414210E+02 -0.64433476852E+02 -0.17513549150E+02  0.14351549220E+03  0.12509006913E+03 0.  0.
         23    2    1    2    0    0 -0.22153414210E+02  0.64433476852E+02  0.14814310646E+03  0.18580640902E+03  0.89079711165E+02 0.  0.
          5    1    3    3  502    0 -0.21582249289E+02 -0.40339808469E+01  0.42291110997E+02  0.47833847380E+02  0.41800000000E+01 0. -1.
         -5    1    3    3    0  502  0.43735663499E+02 -0.60399496005E+02 -0.59804660147E+02  0.95681644816E+02  0.41800000000E+01 0. -1.
        -11    1    4    4    0    0  0.20035678442E+01  0.48278108665E+02  0.16600346099E+02  0.51091697476E+02  0.00000000000E+00 0. -1.
         11    1    4    4    0    0 -0.24156982054E+02  0.16155368187E+02  0.13154276036E+03  0.13471471154E+03  0.00000000000E+00 0.  1.
</event>
<event>
 8    1  0.6945825E-009  0.1043083E+03  0.7561462E-02  0.1271489E+00
          2   -1    0    0  501    0  0.00000000000E+00  0.00000000000E+00  0.91103880831E+03  0.91103880831E+03  0.00000000000E+00 0.  1.
         -2   -1    0    0    0  501 -0.00000000000E+00 -0.00000000000E+00 -0.16839853944E+02  0.16839853944E+02  0.00000000000E+00 0. -1.
         25    2    1    2    0    0  0.60351012387E+02  0.18048655090E+01  0.48174414515E+03  0.50136354496E+03  0.12506990283E+03 0.  0.
         23    2    1    2    0    0 -0.60351012387E+02 -0.18048655090E+01  0.41245480922E+03  0.42651511730E+03  0.90281079962E+02 0.  0.
          5    1    3    3  502    0 -0.10618994144E+02 -0.22223207430E+02  0.34055454692E+03  0.34146962649E+03  0.41800000000E+01 0. -1.
         -5    1    3    3    0  502  0.70970006531E+02  0.24028072939E+02  0.14118959822E+03  0.15989391847E+03  0.41800000000E+01 0. -1.
        -11    1    4    4    0    0 -0.83927031808E+02 -0.77276393851E+01  0.31670960692E+03  0.32773226603E+03  0.00000000000E+00 0. -1.
         11    1    4    4    0    0  0.23576019420E+02  0.59227738761E+01  0.95745202297E+02  0.98782851270E+02  0.00000000000E+00 0.  1.
</event>
<event>
 8    1  0.6945825E-009  0.9025728E+02  0.7561462E-02  0.1302230E+00
         -1   -1    0    0    0  501 -0.00000000000E+00  0.00000000000E+00  0.12241843082E+02  0.12241843082E+02  0.00000000000E+00 0.  1.
          1   -1    0    0  501    0  0.00000000000E+00 -0.00000000000E+00 -0.11892130225E+04  0.11892130225E+04  0.00000000000E+00 0. -1.
         25    2    1    2    0    0 -0.18292533915E+02 -0.11791568782E+01 -0.91061681125E+03  0.91935132045E+03  0.12509143165E+03 0.  0.
         23    2    1    2    0    0  0.18292533915E+02  0.11791568782E+01 -0.26635436815E+03  0.28210354512E+03  0.91113959009E+02 0.  0.
          5    1    3    3  502    0 -0.19513844898E+02 -0.48978148129E+02 -0.74620356416E+03  0.74807545121E+03  0.41800000000E+01 0. -1.
         -5    1    3    3    0  502  0.12213109829E+01  0.47798991251E+02 -0.16441324708E+03  0.17127586923E+03  0.41800000000E+01 0. -1.
        -11    1    4    4    0    0  0.48456451531E+02 -0.54009206278E+01 -0.83756987180E+02  0.96914552778E+02  0.00000000000E+00 0.  1.
         11    1    4    4    0    0 -0.30163917616E+02  0.65800775060E+01 -0.18259738097E+03  0.18518899234E+03  0.00000000000E+00 0. -1.
</event>
<event>
 8    1  0.6945825E-009  0.1023575E+03  0.7561462E-02  0.1275415E+00
          2   -1    0    0  501    0  0.00000000000E+00  0.00000000000E+00  0.52203292217E+03  0.52203292217E+03  0.00000000000E+00 0. -1.
         -2   -1    0    0    0  501 -0.00000000000E+00 -0.00000000000E+00 -0.33625129963E+02  0.33625129963E+02  0.00000000000E+00 0.  1.
         25    2    1    2    0    0  0.99820462214E+01 -0.44750839744E+02  0.39352961375E+03  0.41546961165E+03  0.12508861819E+03 0.  0.
         23    2    1    2    0    0 -0.99820462214E+01  0.44750839744E+02  0.94878178460E+02  0.14018844049E+03  0.92458916248E+02 0.  0.
          5    1    3    3  502    0  0.65563077971E+02 -0.12173701425E+02  0.23456460319E+03  0.24389493982E+03  0.41800000000E+01 0.  1.
         -5    1    3    3    0  502 -0.55581031750E+02 -0.32577138320E+02  0.15896501056E+03  0.17157467183E+03  0.41800000000E+01 0.  1.
        -11    1    4    4    0    0  0.22718106259E+02  0.29566893905E+02 -0.14697072651E+01  0.37315862668E+02  0.00000000000E+00 0.  1.
         11    1    4    4    0    0 -0.32700152481E+02  0.15183945839E+02  0.96347885725E+02  0.10287257782E+03  0.00000000000E+00 0. -1.
</event>
<event>
 8    1  0.6945825E-009  0.8827584E+02  0.7561462E-02  0.1307082E+00
          1   -1    0    0  501    0  0.00000000000E+00  0.00000000000E+00  0.57183476102E+02  0.57183476102E+02  0.00000000000E+00 0. -1.
         -1   -1    0    0    0  501 -0.00000000000E+00 -0.00000000000E+00 -0.32390761696E+03  0.32390761696E+03  0.00000000000E+00 0.  1.
         25    2    1    2    0    0 -0.31336034441E+02  0.11006472291E+02 -0.41349321323E+02  0.13586966394E+03  0.12509080589E+03 0.  0.
         23    2    1    2    0    0  0.31336034441E+02 -0.11006472291E+02 -0.22537481954E+03  0.24522142912E+03  0.90755994471E+02 0.  0.
          5    1    3    3  502    0 -0.40632338048E+01  0.42536093517E+02  0.30522390292E+02  0.52677488833E+02  0.41800000000E+01 0.  1.
         -5    1    3    3    0  502 -0.27272800636E+02 -0.31529621226E+02 -0.71871711614E+02  0.83192175110E+02  0.41800000000E+01 0.  1.
        -11    1    4    4    0    0  0.16819528362E+02  0.37494257994E+02 -0.63697106673E+02  0.75802620769E+02  0.00000000000E+00 0. -1.
         11    1    4    4    0    0  0.14516506078E+02 -0.48500730285E+02 -0.16167771287E+03  0.16941880836E+03  0.00000000000E+00 0.  1.
</event>
<event>
 8    1  0.6945825E-009  0.1427424E+03  0.7561462E-02  0.1209686E+00
         -1   -1    0    0    0  501 -0.00000000000E+00  0.00000000000E+00  0.52035921219E+02  0.52035921219E+02  0.00000000000E+00 0.  1.
          1   -1    0    0  501    0  0.00000000000E+00 -0.00000000000E+00 -0.47377602207E+03  0.47377602207E+03  0.00000000000E+00 0. -1.
         25    2    1    2    0    0  0.84451180434E+02  0.61563390496E+02 -0.30226443040E+03  0.34341696713E+03  0.12509746000E+03 0.  0.
         23    2    1    2    0    0 -0.84451180434E+02 -0.61563390496E+02 -0.11947567045E+03  0.18239497616E+03  0.89841185287E+02 0.  0.
          5    1    3    3  502    0 -0.69451060511E+01  0.59221781582E+02 -0.61125950069E+02  0.85494491540E+02  0.41800000000E+01 0. -1.
         -5    1    3    3    0  502  0.91396286485E+02  0.23416089137E+01 -0.24113848033E+03  0.25792247559E+03  0.41800000000E+01 0. -1.
        -11    1    4    4    0    0 -0.45134239661E+02 -0.79152904771E+02 -0.60531945605E+02  0.10939103420E+03  0.00000000000E+00 0. -1.
         11    1    4    4    0    0 -0.39316940773E+02  0.17589514276E+02 -0.58943724844E+02  0.73003941966E+02  0.00000000000E+00 0.  1.
</event>
<event>
 8    1  0.6945825E-009  0.9455218E+02  0.7561462E-02  0.1292188E+00
         -3   -1    0    0    0  501 -0.00000000000E+00  0.00000000000E+00  0.89242244259E+02  0.89242244259E+02  0.00000000000E+00 0.  1.
          3   -1    0    0  501    0  0.00000000000E+00 -0.00000000000E+00 -0.18988401799E+03  0.18988401799E+03  0.00000000000E+00 0. -1.
         25    2    1    2    0    0 -0.58465923193E+02 -0.37778319861E+02 -0.51090306847E+02  0.15199719937E+03  0.12508982188E+03 0.  0.
         23    2    1    2    0    0  0.58465923193E+02  0.37778319861E+02 -0.49551466883E+02  0.12712906287E+03  0.94132805815E+02 0.  0.
          5    1    3    3  502    0 -0.31844983603E+01 -0.11855342506E+02 -0.82288078516E+02  0.83303604013E+02  0.41800000000E+01 0.  1.
         -5    1    3    3    0  502 -0.55281424833E+02 -0.25922977355E+02  0.31197771669E+02  0.68693595360E+02  0.41800000000E+01 0.  1.
        -11    1    4    4    0    0  0.71385584651E+02 -0.37107001443E+01 -0.42340864283E+02  0.83080802715E+02  0.00000000000E+00 0. -1.
         11    1    4    4    0    0 -0.12919661458E+02  0.41489020005E+02 -0.72106026004E+01  0.44048260159E+02  0.00000000000E+00 0.  1.
</event>
<event>
 8    1  0.6945825E-009  0.1259182E+03  0.7561462E-02  0.1233641E+00
         -1   -1    0    0    0  501 -0.00000000000E+00  0.00000000000E+00  0.14478957985E+03  0.14478957985E+03  0.00000000000E+00 0. -1.
          1   -1    0    0  501    0  0.00000000000E+00 -0.00000000000E+00 -0.18714839486E+03  0.18714839486E+03  0.00000000000E+00 0.  1.
         25    2    1    2    0    0  0.13805766180E+02 -0.12197298335E+03 -0.33453328813E+02  0.17842380235E+03  0.12509164716E+03 0.  0.
         23    2    1    2    0    0 -0.13805766180E+02  0.12197298335E+03 -0.89054862009E+01  0.15351417236E+03  0.91756665065E+02 0.  0.
          5    1    3    3  502    0 -0.83604452772E+01 -0.18631879137E+02 -0.64826025082E+02  0.68095006376E+02  0.41800000000E+01 0. -1.
         -5    1    3    3    0  502  0.22166211458E+02 -0.10334110421E+03  0.31372696270E+02  0.11032879597E+03  0.41800000000E+01 0. -1.
        -11    1    4    4    0    0 -0.19270732437E+02  0.60348136788E+02  0.39765942975E+02  0.74796984987E+02  0.00000000000E+00 0. -1.
         11    1    4    4    0    0  0.54649662570E+01  0.61624846560E+02 -0.48671429176E+02  0.78717187372E+02  0.00000000000E+00 0.  1.
</event>
<event>
 8    1  0.6945825E-009  0.1100139E+03  0.7561462E-02  0.1260544E+00
         -1   -1    0    0    0  501 -0.00000000000E+00  0.00000000000E+00  0.24222216244E+02  0.24222216244E+02  0.00000000000E+00 0.  1.
          1   -1    0    0  501    0  0.00000000000E+00 -0.00000000000E+00 -0.56432109349E+03  0.56432109349E+03  0.00000000000E+00 0. -1.
         25    2    1    2    0    0 -0.16185022097E+02  0.40038659737E+02 -0.28776437878E+03  0.31673664708E+03  0.12509483082E+03 0.  0.
         23    2    1    2    0    0  0.16185022097E+02 -0.40038659737E+02 -0.25233449847E+03  0.27180666265E+03  0.91329696874E+02 0.  0.
          5    1    3    3  502    0 -0.68246323588E+02  0.41190368664E+02 -0.18379136999E+03  0.20037701274E+03  0.41800000000E+01 0.  1.
         -5    1    3    3    0  502  0.52061301491E+02 -0.11517089271E+01 -0.10397300879E+03  0.11635963434E+03  0.41800000000E+01 0.  1.
        -11    1    4    4    0    0 -0.24872371437E+02 -0.39767557051E+02 -0.65799060075E+02  0.80806000776E+02  0.00000000000E+00 0.  1.
         11    1    4    4    0    0  0.41057393534E+02 -0.27110268546E+00 -0.18653543839E+03  0.19100066188E+03  0.00000000000E+00 0. -1.
</event>
<event>
 8    1  0.6945825E-009  0.9441608E+02  0.7561462E-02  0.1292497E+00
         -1   -1    0    0    0  501 -0.00000000000E+00  0.00000000000E+00  0.43753104030E+03  0.43753104030E+03  0.00000000000E+00 0.  1.
          1   -1    0    0  501    0  0.00000000000E+00 -0.00000000000E+00 -0.31604014524E+02  0.31604014524E+02  0.00000000000E+00 0. -1.
         25    2    1    2    0    0 -0.66432706167E+01  0.44474232495E+02  0.22613442902E+03  0.26231061213E+03  0.12509191358E+03 0.  0.
         23    2    1    2    0    0  0.66432706167E+01 -0.44474232495E+02  0.17979259676E+03  0.20682444270E+03  0.91808942102E+02 0.  0.
          5    1    3    3  502    0 -0.37790345586E+02 -0.21310854112E+02  0.15283043923E+03  0.15892412743E+03  0.41800000000E+01 0.  1.
         -5    1    3    3    0  502  0.31147074969E+02  0.65785086607E+02  0.73303989790E+02  0.10338648470E+03  0.41800000000E+01 0.  1.
        -11    1    4    4    0    0 -0.12596303153E+02 -0.50603641463E+02  0.17918922956E+03  0.18662308371E+03  0.00000000000E+00 0.  1.
         11    1    4    4    0    0  0.19239573770E+02  0.61294089683E+01  0.60336719506E+00  0.20201358992E+02  0.00000000000E+00 0. -1.
</event>
<event>
 8    1  0.6945825E-009  0.1465768E+03  0.7561462E-02  0.1204744E+00
         -1   -1    0    0    0  501 -0.00000000000E+00  0.00000000000E+00  0.30988589614E+03  0.30988589614E+03  0.00000000000E+00 0.  1.
          1   -1    0    0  501    0  0.00000000000E+00 -0.00000000000E+00 -0.76473892016E+02  0.76473892016E+02  0.00000000000E+00 0. -1.
         25    2    1    2    0    0  0.74788420471E+02 -0.72772329155E+02  0.16579604973E+03  0.23243233786E+03  0.12508933548E+03 0.  0.
         23    2    1    2    0    0 -0.74788420471E+02  0.72772329155E+02  0.67615954387E+02  0.15392745029E+03  0.90733802618E+02 0.  0.
          5    1    3    3  502    0  0.10385531740E+03 -0.70338543603E+02  0.10045666978E+03  0.16075587881E+03  0.41800000000E+01 0. -1.
         -5    1    3    3    0  502 -0.29066896933E+02 -0.24337855517E+01  0.65339379954E+02  0.71676459052E+02  0.41800000000E+01 0. -1.
        -11    1    4    4    0    0 -0.82612325051E+02  0.20217459351E+02  0.44411474340E+02  0.95947490671E+02  0.00000000000E+00 0.  1.
         11    1    4    4    0    0  0.78239045804E+01  0.52554869804E+02  0.23204480047E+02  0.57979959617E+02  0.00000000000E+00 0. -1.
</event>
<event>
 8    1  0.6945825E-009  0.1347376E+03  0.7561462E-02  0.1220591E+00
         -2   -1    0    0    0  501 -0.00000000000E+00  0.00000000000E+00  0.23834026451E+02  0.23834026451E+02  0.00000000000E+00 0.  1.
          2   -1    0    0  501    0  0.00000000000E+00 -0.00000000000E+00 -0.10550147629E+04  0.10550147629E+04  0.00000000000E+00 0. -1.
         25    2    1    2    0    0 -0.28736556660E+02  0.10545656655E+03 -0.67946296998E+03  0.69947416961E+03  0.12508920524E+03 0.  0.
         23    2    1    2    0    0  0.28736556660E+02 -0.10545656655E+03 -0.35171776645E+03  0.37937461972E+03  0.90955141325E+02 0.  0.
          5    1    3    3  502    0  0.28211114676E+02 -0.89692993198E+01 -0.61048820147E+02  0.67976070517E+02  0.41800000000E+01 0.  1.
         -5    1    3    3    0  502 -0.56947671336E+02  0.11442586586E+03 -0.61841414983E+03  0.63149809909E+03  0.41800000000E+01 0.  1.
        -11    1    4    4    0    0  0.10370675260E+02 -0.77860389594E+02 -0.33120603322E+03  0.34039275493E+03  0.00000000000E+00 0. -1.
         11    1    4    4    0    0  0.18365881400E+02 -0.27596176951E+02 -0.20511733239E+02  0.38981864789E+02  0.00000000000E+00 0.  1.
</event>
<event>
 8    1  0.6945825E-009  0.1530490E+03  0.7561462E-02  0.1196776E+00
         -1   -1    0    0    0  501 -0.00000000000E+00  0.00000000000E+00  0.63567822551E+02  0.63567822551E+02  0.00000000000E+00 0.  1.
          1   -1    0    0  501    0  0.00000000000E+00 -0.00000000000E+00 -0.47132627363E+03  0.47132627363E+03  0.00000000000E+00 0. -1.
         25    2    1    2    0    0 -0.52058458079E+02  0.10412591895E+03 -0.11075065125E+03  0.20362980317E+03  0.12508836849E+03 0.  0.
         23    2    1    2    0    0  0.52058458079E+02 -0.10412591895E+03 -0.29700779983E+03  0.33126429301E+03  0.89275464771E+02 0.  0.
          5    1    3    3  502    0  0.30304626825E+02 -0.67767910825E+01 -0.11082933906E+02  0.33235510051E+02  0.41800000000E+01 0.  1.
         -5    1    3    3    0  502 -0.82363084904E+02  0.11090271003E+03 -0.99667717344E+02  0.17039429312E+03  0.41800000000E+01 0.  1.
        -11    1    4    4    0    0  0.46039066035E+02 -0.16771998236E+02 -0.53773015474E+02  0.72749108031E+02  0.00000000000E+00 0.  1.
         11    1    4    4    0    0  0.60193920434E+01 -0.87353920713E+02 -0.24323478436E+03  0.25851518498E+03  0.00000000000E+00 0. -1.
</event>
<event>
 8    1  0.6945825E-009  0.1816196E+03  0.7561462E-02  0.1166245E+00
         -2   -1    0    0    0  501 -0.00000000000E+00  0.00000000000E+00  0.42717521893E+02  0.42717521893E+02  0.00000000000E+00 0.  1.
          2   -1    0    0  501    0  0.00000000000E+00 -0.00000000000E+00 -0.85045581305E+03  0.85045581305E+03  0.00000000000E+00 0. -1.
         25    2    1    2    0    0 -0.11905639827E+03  0.10082723532E+03 -0.44971438058E+03  0.49217151274E+03  0.12509682852E+03 0.  0.
         23    2    1    2    0    0  0.11905639827E+03 -0.10082723532E+03 -0.35802391058E+03  0.40100182220E+03  0.90998810503E+02 0.  0.
          5    1    3    3  502    0 -0.10982609944E+03  0.30108013320E+02 -0.17904826661E+03  0.21223576221E+03  0.41800000000E+01 0.  1.
         -5    1    3    3    0  502 -0.92302988289E+01  0.70719221995E+02 -0.27066611397E+03  0.27993575053E+03  0.41800000000E+01 0.  1.
        -11    1    4    4    0    0  0.68268169935E+02 -0.10674750296E+03 -0.22099417854E+03  0.25474300650E+03  0.00000000000E+00 0.  1.
         11    1    4    4    0    0  0.50788228334E+02  0.59202676463E+01 -0.13702973204E+03  0.14625881570E+03  0.00000000000E+00 0. -1.
</event>
<event>
 8    1  0.6945825E-009  0.4484738E+03  0.7561462E-02  0.1028178E+00
         -2   -1    0    0    0  501 -0.00000000000E+00  0.00000000000E+00  0.16855625899E+03  0.16855625899E+03  0.00000000000E+00 0.  1.
          2   -1    0    0  501    0  0.00000000000E+00 -0.00000000000E+00 -0.12651007604E+04  0.12651007604E+04  0.00000000000E+00 0. -1.
         25    2    1    2    0    0 -0.13508523642E+03  0.42424291514E+03 -0.63944791827E+03  0.78915883078E+03  0.12509175783E+03 0.  0.
         23    2    1    2    0    0  0.13508523642E+03 -0.42424291514E+03 -0.45709658313E+03  0.64449818860E+03  0.90612122023E+02 0.  0.
          5    1    3    3  502    0 -0.72366851511E+02  0.33269348811E+03 -0.40059780489E+03  0.52575468796E+03  0.41800000000E+01 0. -1.
         -5    1    3    3    0  502 -0.62718384907E+02  0.91549427029E+02 -0.23885011338E+03  0.26340414282E+03  0.41800000000E+01 0. -1.
        -11    1    4    4    0    0  0.13851720241E+02 -0.32624719522E+02 -0.78228960225E+01  0.36296558785E+02  0.00000000000E+00 0.  1.
         11    1    4    4    0    0  0.12123351618E+03 -0.39161819561E+03 -0.44927368711E+03  0.60820162982E+03  0.00000000000E+00 0. -1.
</event>
<event>
 8    1  0.6945825E-009  0.6846102E+02  0.7561462E-02  0.1365406E+00
          3   -1    0    0  501    0  0.00000000000E+00  0.00000000000E+00  0.33450727700E+03  0.33450727700E+03  0.00000000000E+00 0. -1.
         -3   -1    0    0    0  501 -0.00000000000E+00 -0.00000000000E+00 -0.48487139518E+02  0.48487139518E+02  0.00000000000E+00 0.  1.
         25    2    1    2    0    0  0.66420600821E+02 -0.12246604027E+02  0.12367719514E+03  0.18843145754E+03  0.12509472439E+03 0.  0.
         23    2    1    2    0    0 -0.66420600821E+02  0.12246604027E+02  0.16234294233E+03  0.19456295897E+03  0.83293688561E+02 0.  0.
          5    1    3    3  502    0  0.30130382727E+02  0.12268434678E+01 -0.22051485852E+02  0.37591030000E+02  0.41800000000E+01 0. -1.
         -5    1    3    3    0  502  0.36290218094E+02 -0.13473447494E+02  0.14572868100E+03  0.15084042754E+03  0.41800000000E+01 0. -1.
        -11    1    4    4    0    0 -0.33548328569E+02  0.58886912702E+01  0.58889963120E+01  0.34566563500E+02  0.00000000000E+00 0.  1.
         11    1    4    4    0    0 -0.32872272252E+02  0.63579127563E+01  0.15645394602E+03  0.15999639547E+03  0.00000000000E+00 0. -1.
</event>
<event>
 8    1  0.6945825E-009  0.8462267E+02  0.7561462E-02  0.1316422E+00
          2   -1    0    0  501    0  0.00000000000E+00  0.00000000000E+00  0.69200207940E+02  0.69200207940E+02  0.00000000000E+00 0. -1.
         -2   -1    0    0    0  501 -0.00000000000E+00 -0.00000000000E+00 -0.20641269588E+03  0.20641269588E+03  0.00000000000E+00 0.  1.
         25    2    1    2    0    0  0.33677940839E+02 -0.38659799558E+02 -0.89135691990E+02  0.16193022307E+03  0.12508973482E+03 0.  0.
         23    2    1    2    0    0 -0.33677940839E+02  0.38659799558E+02 -0.48076795953E+02  0.11368268075E+03  0.89350936160E+02 0.  0.
          5    1    3    3  502    0  0.57288115269E+02 -0.18461151921E+02 -0.10916398250E+03  0.12472766236E+03  0.41800000000E+01 0.  1.
         -5    1    3    3    0  502 -0.23610174431E+02 -0.20198647637E+02  0.20028290512E+02  0.37202560716E+02  0.41800000000E+01 0.  1.
        -11    1    4    4    0    0 -0.50143438398E+02  0.24340170104E+02  0.53270102265E+01  0.55992725715E+02  0.00000000000E+00 0. -1.
         11    1    4    4    0    0  0.16465497559E+02  0.14319629454E+02 -0.53403806180E+02  0.57689955036E+02  0.00000000000E+00 0.  1.
</event>
<event>
 8    1  0.6945825E-009  0.1406593E+03  0.7561462E-02  0.1212445E+00
          2   -1    0    0  501    0  0.00000000000E+00  0.00000000000E+00  0.10379886475E+04  0.10379886475E+04  0.00000000000E+00 0.  1.
         -2   -1    0    0    0  501 -0.00000000000E+00 -0.00000000000E+00 -0.25437884794E+02  0.25437884794E+02  0.00000000000E+00 0. -1.
         25    2    1    2    0    0 -0.86106433245E+02  0.49251312781E+02  0.78148684851E+03  0.79762834392E+03  0.12509704626E+03 0.  0.
         23    2    1    2    0    0  0.86106433245E+02 -0.49251312781E+02  0.23106391422E+03  0.26579818839E+03  0.86128594795E+02 0.  0.
          5    1    3    3  502    0 -0.75940009838E+02 -0.22273277057E+02  0.53159351180E+03  0.53746824851E+03  0.41800000000E+01 0.  1.
         -5    1    3    3    0  502 -0.10166423407E+02  0.71524589838E+02  0.24989333671E+03  0.26016009542E+03  0.41800000000E+01 0.  1.
        -11    1    4    4    0    0  0.10291391069E+03 -0.45280265309E+02  0.18362083066E+03  0.21530950953E+03  0.00000000000E+00 0.  1.
         11    1    4    4    0    0 -0.16807477445E+02 -0.39710474720E+01  0.47443083558E+02  0.50488678865E+02  0.00000000000E+00 0. -1.
</event>
<event>
 8    1  0.6945825E-009  0.1009680E+03  0.7561462E-02  0.1278273E+00
         -2   -1    0    0    0  501 -0.00000000000E+00  0.00000000000E+00  0.48553713772E+02  0.48553713772E+02  0.00000000000E+00 0.  1.
          2   -1    0    0  501    0  0.00000000000E+00 -0.00000000000E+00 -0.40979175166E+03  0.40979175166E+03  0.00000000000E+00 0. -1.
         25    2    1    2    0    0  0.70216033051E+01  0.27393725411E+01 -0.35022626918E+03  0.37197268587E+03  0.12509369425E+03 0.  0.
         23    2    1    2    0    0 -0.70216033051E+01 -0.27393725411E+01 -0.11011768716E+02  0.86372779561E+02  0.85335754077E+02 0.  0.
          5    1    3    3  502    0 -0.45496211588E+02 -0.30148245347E+02 -0.23263460068E+03  0.23898776496E+03  0.41800000000E+01 0.  1.
         -5    1    3    3    0  502  0.52517814893E+02  0.32887617888E+02 -0.11759166850E+03  0.13298492092E+03  0.41800000000E+01 0.  1.
        -11    1    4    4    0    0  0.87006482390E+01 -0.41951748807E+02 -0.10545950376E+02  0.44123322372E+02  0.00000000000E+00 0. -1.
         11    1    4    4    0    0 -0.15722251544E+02  0.39212376266E+02 -0.46581834023E+00  0.42249457189E+02  0.00000000000E+00 0.  1.
</event>
<event>
 8    1  0.6945825E-009  0.8442066E+02  0.7561462E-02  0.1316955E+00
          4   -1    0    0  501    0  0.00000000000E+00  0.00000000000E+00  0.62030487686E+02  0.62030487686E+02  0.00000000000E+00 0. -1.
         -4   -1    0    0    0  501 -0.00000000000E+00 -0.00000000000E+00 -0.38225816699E+03  0.38225816699E+03  0.00000000000E+00 0.  1.
         25    2    1    2    0    0 -0.21040864968E+02 -0.48525063718E+02 -0.36669106793E+02  0.14067194890E+03  0.12508626626E+03 0.  0.
         23    2    1    2    0    0  0.21040864968E+02  0.48525063718E+02 -0.28355857252E+03  0.30361670578E+03  0.94764129146E+02 0.  0.
          5    1    3    3  502    0  0.91523474477E+01 -0.87291492178E+01  0.43847435217E+02  0.45826122300E+02  0.41800000000E+01 0.  1.
         -5    1    3    3    0  502 -0.30193212415E+02 -0.39795914500E+02 -0.80516542011E+02  0.94845826604E+02  0.41800000000E+01 0.  1.
        -11    1    4    4    0    0 -0.32013196464E+02 -0.20714946572E+01 -0.12295957401E+03  0.12707553926E+03  0.00000000000E+00 0.  1.
         11    1    4    4    0    0  0.53054061431E+02  0.50596558375E+02 -0.16059899850E+03  0.17654116651E+03  0.00000000000E+00 0. -1.
</event>
<event>
 8    1  0.6945825E-009  0.1641393E+03  0.7561462E-02  0.1184101E+00
          2   -1    0    0  501    0  0.00000000000E+00  0.00000000000E+00  0.25774526080E+03  0.25774526080E+03  0.00000000000E+00 0. -1.
         -2   -1    0    0    0  501 -0.00000000000E+00 -0.00000000000E+00 -0.12048570224E+03  0.12048570224E+03  0.00000000000E+00 0.  1.
         25    2    1    2    0    0  0.53259480839E+02  0.12792750804E+03  0.72366707939E+02  0.20021649023E+03  0.12509069881E+03 0.  0.
         23    2    1    2    0    0 -0.53259480839E+02 -0.12792750804E+03  0.64892850626E+02  0.17801447281E+03  0.90972802828E+02 0.  0.
          5    1    3    3  502    0  0.42874792247E+02  0.14841034051E+03  0.38801469590E+02  0.15933268159E+03  0.41800000000E+01 0. -1.
         -5    1    3    3    0  502  0.10384688593E+02 -0.20482832471E+02  0.33565238349E+02  0.40883808636E+02  0.41800000000E+01 0. -1.
        -11    1    4    4    0    0 -0.73055786954E+01 -0.91416354393E+02  0.74984032115E+02  0.11846065340E+03  0.00000000000E+00 0. -1.
         11    1    4    4    0    0 -0.45953902144E+02 -0.36511153649E+02 -0.10091181490E+02  0.59553819415E+02  0.00000000000E+00 0.  1.
</event>
<event>
 8    1  0.6945825E-009  0.9522568E+02  0.7561462E-02  0.1290669E+00
         -2   -1    0    0    0  501 -0.00000000000E+00  0.00000000000E+00  0.31642587550E+02  0.31642587550E+02  0.00000000000E+00 0. -1.
          2   -1    0    0  501    0  0.00000000000E+00 -0.00000000000E+00 -0.45545286489E+03  0.45545286489E+03  0.00000000000E+00 0.  1.
         25    2    1    2    0    0  0.16038203014E+02 -0.22060722916E+02 -0.32707763647E+03  0.35124232774E+03  0.12508993989E+03 0.  0.
         23    2    1    2    0    0 -0.16038203014E+02  0.22060722916E+02 -0.96732640863E+02  0.13585312470E+03  0.91405515320E+02 0.  0.
          5    1    3    3  502    0 -0.42286752484E+02 -0.43266432471E+02 -0.21109719197E+03  0.21963526691E+03  0.41800000000E+01 0.  1.
         -5    1    3    3    0  502  0.58324955498E+02  0.21205709555E+02 -0.11598044450E+03  0.13160706082E+03  0.41800000000E+01 0.  1.
        -11    1    4    4    0    0 -0.19685203606E+02 -0.18421802818E+02  0.39751849800E+01  0.27252011957E+02  0.00000000000E+00 0. -1.
         11    1    4    4    0    0  0.36470005916E+01  0.40482525734E+02 -0.10070782584E+03  0.10860111274E+03  0.00000000000E+00 0.  1.
</event>
<event>
 8    1  0.6945825E-009  0.1788049E+03  0.7561462E-02  0.1168965E+00
          2   -1    0    0  501    0  0.00000000000E+00  0.00000000000E+00  0.72630561803E+03  0.72630561803E+03  0.00000000000E+00 0. -1.
         -2   -1    0    0    0  501 -0.00000000000E+00 -0.00000000000E+00 -0.58728260657E+02  0.58728260657E+02  0.00000000000E+00 0.  1.
         25    2    1    2    0    0 -0.17295201781E+03 -0.26676087498E+02  0.37161054934E+03  0.42937867271E+03  0.12509048758E+03 0.  0.
         23    2    1    2    0    0  0.17295201781E+03  0.26676087498E+02  0.29596680803E+03  0.35565520598E+03  0.90940969740E+02 0.  0.
          5    1    3    3  502    0 -0.72084578516E+02 -0.42814951837E+01  0.28637903625E+03  0.29537254860E+03  0.41800000000E+01 0. -1.
         -5    1    3    3    0  502 -0.10086743929E+03 -0.22394592314E+02  0.85231513090E+02  0.13400612411E+03  0.41800000000E+01 0. -1.
        -11    1    4    4    0    0  0.13910993067E+03  0.54217581085E+00  0.27466561643E+03  0.30788482849E+03  0.00000000000E+00 0.  1.
         11    1    4    4    0    0  0.33842087139E+02  0.26133911687E+02  0.21301191600E+02  0.47770377491E+02  0.00000000000E+00 0. -1.
</event>
<event>
 8    1  0.6945825E-009  0.2749548E+03  0.7561462E-02  0.1098477E+00
         -1   -1    0    0    0  501 -0.00000000000E+00  0.00000000000E+00  0.38093249590E+03  0.38093249590E+03  0.00000000000E+00 0.  1.
          1   -1    0    0  501    0  0.00000000000E+00 -0.00000000000E+00 -0.21456990151E+03  0.21456990151E+03  0.00000000000E+00 0. -1.
         25    2    1    2    0    0  0.25880955603E+03  0.46419825951E+02  0.60219297703E+02  0.29733912100E+03  0.12508797914E+03 0.  0.
         23    2    1    2    0    0 -0.25880955603E+03 -0.46419825951E+02  0.10614329669E+03  0.29816327641E+03  0.92183260030E+02 0.  0.
          5    1    3    3  502    0  0.49499019726E+02  0.52284187323E+02 -0.17045802976E+02  0.74106821528E+02  0.41800000000E+01 0. -1.
         -5    1    3    3    0  502  0.20931053631E+03 -0.58643613717E+01  0.77265100679E+02  0.22323229947E+03  0.41800000000E+01 0. -1.
        -11    1    4    4    0    0 -0.14550230401E+03 -0.53006750890E+02  0.10032664355E+03  0.18451577580E+03  0.00000000000E+00 0.  1.
         11    1    4    4    0    0 -0.11330725202E+03  0.65869249385E+01  0.58166531427E+01  0.11364750061E+03  0.00000000000E+00 0. -1.
</event>
<event>
 8    1  0.6945825E-009  0.1634266E+03  0.7561462E-02  0.1184882E+00
         -1   -1    0    0    0  501 -0.00000000000E+00  0.00000000000E+00  0.56261417390E+02  0.56261417390E+02  0.00000000000E+00 0.  1.
          1   -1    0    0  501    0  0.00000000000E+00 -0.00000000000E+00 -0.53676450418E+03  0.53676450418E+03  0.00000000000E+00 0. -1.
         25    2    1    2    0    0  0.13299723459E+03  0.15695348531E+02 -0.31483861193E+03  0.36428780132E+03  0.12509053622E+03 0.  0.
         23    2    1    2    0    0 -0.13299723459E+03 -0.15695348531E+02 -0.16566447485E+03  0.22873812025E+03  0.83317471480E+02 0.  0.
          5    1    3    3  502    0  0.11193022695E+03  0.56369318741E+02 -0.27931673088E+03  0.30617182161E+03  0.41800000000E+01 0.  1.
         -5    1    3    3    0  502  0.21067007639E+02 -0.40673970211E+02 -0.35521881058E+02  0.58115979708E+02  0.41800000000E+01 0.  1.
        -11    1    4    4    0    0 -0.12531452453E+03 -0.38745237728E+02 -0.12397151412E+03  0.18048229780E+03  0.00000000000E+00 0. -1.
         11    1    4    4    0    0 -0.76827100551E+01  0.23049889198E+02 -0.41692960732E+02  0.48255822451E+02  0.00000000000E+00 0.  1.
</event>
<event>
 8    1  0.6945825E-009  0.1095142E+03  0.7561462E-02  0.1261472E+00
         -2   -1    0    0    0  501 -0.00000000000E+00  0.00000000000E+00  0.66791885935E+02  0.66791885935E+02  0.00000000000E+00 0.  1.
          2   -1    0    0  501    0  0.00000000000E+00 -0.00000000000E+00 -0.23827720595E+03  0.23827720595E+03  0.00000000000E+00 0. -1.
         25    2    1    2    0    0  0.63985183890E+02 -0.48423367810E+01 -0.85400492004E+02  0.16449851099E+03  0.12509581968E+03 0.  0.
         23    2    1    2    0    0 -0.63985183890E+02  0.48423367810E+01 -0.86084828013E+02  0.14057058089E+03  0.90730031500E+02 0.  0.
          5    1    3    3  502    0  0.15845400047E+02 -0.61666497674E+02 -0.53910703736E+02  0.83532448877E+02  0.41800000000E+01 0. -1.
         -5    1    3    3    0  502  0.48139783843E+02  0.56824160893E+02 -0.31489788268E+02  0.80966062117E+02  0.41800000000E+01 0. -1.
        -11    1    4    4    0    0 -0.25125955006E+02  0.26189626516E+02  0.74586205613E+01  0.37051871379E+02  0.00000000000E+00 0.  1.
         11    1    4    4    0    0 -0.38859228883E+02 -0.21347289735E+02 -0.93543448575E+02  0.10351870952E+03  0.00000000000E+00 0. -1.
</event>
<event>
 8    1  0.6945825E-009  0.1517785E+03  0.7561462E-02  0.1198304E+00
          2   -1    0    0  501    0  0.00000000000E+00  0.00000000000E+00  0.20832551266E+03  0.20832551266E+03  0.00000000000E+00 0. -1.
         -2   -1    0    0    0  501 -0.00000000000E+00 -0.00000000000E+00 -0.16300911452E+03  0.16300911452E+03  0.00000000000E+00 0.  1.
         25    2    1    2    0    0  0.13256274272E+03  0.34407305796E+02 -0.34399794146E+02  0.18864689655E+03  0.12509021661E+03 0.  0.
         23    2    1    2    0    0 -0.13256274272E+03 -0.34407305796E+02  0.79716192285E+02  0.18268773063E+03  0.90903202158E+02 0.  0.
          5    1    3    3  502    0  0.11190894637E+03 -0.57888432288E+01 -0.68922491002E+02  0.13162410551E+03  0.41800000000E+01 0.  1.
         -5    1    3    3    0  502  0.20653796344E+02  0.40196149025E+02  0.34522696856E+02  0.57022791041E+02  0.41800000000E+01 0.  1.
        -11    1    4    4    0    0 -0.86910740277E+02  0.30788400955E+01  0.87189878206E+02  0.12314637994E+03  0.00000000000E+00 0. -1.
         11    1    4    4    0    0 -0.45652002439E+02 -0.37486145892E+02 -0.74736859206E+01  0.59541350688E+02  0.00000000000E+00 0.  1.
</event>
<event>
 8    1  0.6945825E-009  0.1955040E+03  0.7561462E-02  0.1153589E+00
          1   -1    0    0  501    0  0.00000000000E+00  0.00000000000E+00  0.16647150281E+03  0.16647150281E+03  0.00000000000E+00 0.  1.
         -1   -1    0    0    0  501 -0.00000000000E+00 -0.00000000000E+00 -0.25001315342E+03  0.25001315342E+03  0.00000000000E+00 0. -1.
         25    2    1    2    0    0  0.16479154292E+03  0.39094119559E+02 -0.77075155467E+02  0.22421603233E+03  0.12509055425E+03 0.  0.
         23    2    1    2    0    0 -0.16479154292E+03 -0.39094119559E+02 -0.64664951434E+01  0.19226862389E+03  0.90778881758E+02 0.  0.
          5    1    3    3  502    0  0.17891445623E+03  0.53459162542E+02 -0.56539624827E+02  0.19514729381E+03  0.41800000000E+01 0. -1.
         -5    1    3    3    0  502 -0.14122913309E+02 -0.14365042984E+02 -0.20535530640E+02  0.29068738516E+02  0.41800000000E+01 0. -1.
        -11    1    4    4    0    0 -0.76251497829E+02  0.17944880838E+02 -0.30799550433E+02  0.84171978570E+02  0.00000000000E+00 0. -1.
         11    1    4    4    0    0 -0.88540045089E+02 -0.57039000396E+02  0.24333055290E+02  0.10809664532E+03  0.00000000000E+00 0.  1.
</event>
<event>
 8    1  0.6945825E-009  0.1179101E+03  0.7561462E-02  0.1246585E+00
         -2   -1    0    0    0  501 -0.00000000000E+00  0.00000000000E+00  0.12250663579E+03  0.12250663579E+03  0.00000000000E+00 0.  1.
          2   -1    0    0  501    0  0.00000000000E+00 -0.00000000000E+00 -0.14754177054E+03  0.14754177054E+03  0.00000000000E+00 0. -1.
         25    2    1    2    0    0 -0.40345565181E+02 -0.40450267178E+02 -0.69697059457E+02  0.15418333320E+03  0.12510328291E+03 0.  0.
         23    2    1    2    0    0  0.40345565181E+02  0.40450267178E+02  0.44661924707E+02  0.11586507313E+03  0.90366138065E+02 0.  0.
          5    1    3    3  502    0 -0.79001585864E+02 -0.35993437444E+01 -0.21347230829E+02  0.82020622459E+02  0.41800000000E+01 0. -1.
         -5    1    3    3    0  502  0.38656020683E+02 -0.36850923433E+02 -0.48349828628E+02  0.72162710740E+02  0.41800000000E+01 0. -1.
        -11    1    4    4    0    0  0.67529193712E+02  0.26998306007E+02  0.16714236999E+02  0.74622156556E+02  0.00000000000E+00 0. -1.
         11    1    4    4    0    0 -0.27183628531E+02  0.13451961171E+02  0.27947687708E+02  0.41242916576E+02  0.00000000000E+00 0.  1.
</event>
<event>
 8    1  0.6945825E-009  0.1075664E+03  0.7561462E-02  0.1265144E+00
          2   -1    0    0  501    0  0.00000000000E+00  0.00000000000E+00  0.53041350133E+03  0.53041350133E+03  0.00000000000E+00 0. -1.
         -2   -1    0    0    0  501 -0.00000000000E+00 -0.00000000000E+00 -0.49931829575E+02  0.49931829575E+02  0.00000000000E+00 0.  1.
         25    2    1    2    0    0 -0.22351422474E+02  0.18059682024E+02  0.46846462514E+03  0.48572492424E+03  0.12507541255E+03 0.  0.
         23    2    1    2    0    0  0.22351422474E+02 -0.18059682024E+02  0.12017046617E+02  0.94620406662E+02  0.89346929136E+02 0.  0.
          5    1    3    3  502    0 -0.63943038522E+02 -0.24113597128E+02  0.22964727089E+03  0.23963622257E+03  0.41800000000E+01 0.  1.
         -5    1    3    3    0  502  0.41591616048E+02  0.42173279152E+02  0.23881735425E+03  0.24608870168E+03  0.41800000000E+01 0.  1.
        -11    1    4    4    0    0 -0.75889386870E+00  0.32074034774E+02 -0.12218340549E+02  0.34330853068E+02  0.00000000000E+00 0.  1.
         11    1    4    4    0    0  0.23110316343E+02 -0.50133716798E+02  0.24235387167E+02  0.60289553594E+02  0.00000000000E+00 0. -1.
</event>
<event>
 8    1  0.6945825E-009  0.2948409E+03  0.7561462E-02  0.1087848E+00
          2   -1    0    0  501    0  0.00000000000E+00  0.00000000000E+00  0.49803980071E+03  0.49803980071E+03  0.00000000000E+00 0. -1.
         -2   -1    0    0    0  501 -0.00000000000E+00 -0.00000000000E+00 -0.18518058973E+03  0.18518058973E+03  0.00000000000E+00 0.  1.
         25    2    1    2    0    0  0.13681056635E+03  0.24762132060E+03  0.20092899539E+03  0.36885473400E+03  0.12509158296E+03 0.  0.
         23    2    1    2    0    0 -0.13681056635E+03 -0.24762132060E+03  0.11193021560E+03  0.31436565644E+03  0.79145077572E+02 0.  0.
          5    1    3    3  502    0  0.91862876407E+01  0.13780186207E+03  0.11506551016E+03  0.17980902396E+03  0.41800000000E+01 0. -1.
         -5    1    3    3    0  502  0.12762427871E+03  0.10981945853E+03  0.85863485232E+02  0.18904571004E+03  0.41800000000E+01 0. -1.
        -11    1    4    4    0    0 -0.29607126406E+02 -0.45216726294E+02  0.57562896789E+02  0.78959618525E+02  0.00000000000E+00 0. -1.
         11    1    4    4    0    0 -0.10720343995E+03 -0.20240459430E+03  0.54367318806E+02  0.23540603791E+03  0.00000000000E+00 0.  1.
</event>
<event>
 8    1  0.6945825E-009  0.1609933E+03  0.7561462E-02  0.1187580E+00
          1   -1    0    0  501    0  0.00000000000E+00  0.00000000000E+00  0.45039906593E+03  0.45039906593E+03  0.00000000000E+00 0. -1.
         -1   -1    0    0    0  501 -0.00000000000E+00 -0.00000000000E+00 -0.70945716121E+02  0.70945716121E+02  0.00000000000E+00 0.  1.
         25    2    1    2    0    0  0.30906775422E+02 -0.13695447338E+03  0.22657072851E+03  0.29443651241E+03  0.12508720269E+03 0.  0.
         23    2    1    2    0    0 -0.30906775422E+02  0.13695447338E+03  0.15288262130E+03  0.22690826964E+03  0.91665208173E+02 0.  0.
          5    1    3    3  502    0  0.51245648853E+02 -0.11427133289E+03  0.23155309710E+03  0.26328380737E+03  0.41800000000E+01 0. -1.
         -5    1    3    3    0  502 -0.20338873431E+02 -0.22683140491E+02 -0.49823685842E+01  0.31152705046E+02  0.41800000000E+01 0. -1.
        -11    1    4    4    0    0 -0.60546520755E+02  0.69036603069E+02  0.10066555405E+03  0.13625522929E+03  0.00000000000E+00 0. -1.
         11    1    4    4    0    0  0.29639745333E+02  0.67917870312E+02  0.52217067251E+02  0.90653040343E+02  0.00000000000E+00 0.  1.
</event>
<event>
 8    1  0.6945825E-009  0.5001058E+03  0.7561462E-02  0.1013751E+00
         -1   -1    0    0    0  501 -0.00000000000E+00  0.00000000000E+00  0.31991540689E+03  0.31991540689E+03  0.00000000000E+00 0.  1.
          1   -1    0    0  501    0  0.00000000000E+00 -0.00000000000E+00 -0.94011959350E+03  0.94011959350E+03  0.00000000000E+00 0. -1.
         25    2    1    2    0    0 -0.43529443079E+03 -0.22241345751E+03 -0.56794680427E+03  0.75971077344E+03  0.12509156345E+03 0.  0.
         23    2    1    2    0    0  0.43529443079E+03  0.22241345751E+03 -0.52257382341E+02  0.50032422695E+03  0.92975859779E+02 0.  0.
          5    1    3    3  502    0 -0.34591671577E+03 -0.11453110027E+03 -0.41223738088E+03  0.55021166634E+03  0.41800000000E+01 0.  1.
         -5    1    3    3    0  502 -0.89377715024E+02 -0.10788235724E+03 -0.15570942338E+03  0.20949910711E+03  0.41800000000E+01 0.  1.
        -11    1    4    4    0    0  0.14105617179E+03  0.30393645230E+02 -0.35380346859E+02  0.14856778324E+03  0.00000000000E+00 0.  1.
         11    1    4    4    0    0  0.29423825900E+03  0.19201981228E+03 -0.16877035481E+02  0.35175644371E+03  0.00000000000E+00 0. -1.
</event>
<event>
 8    1  0.6945825E-009  0.1421704E+03  0.7561462E-02  0.1210438E+00
          1   -1    0    0  501    0  0.00000000000E+00  0.00000000000E+00  0.12334314045E+04  0.12334314045E+04  0.00000000000E+00 0. -1.
         -1   -1    0    0    0  501 -0.00000000000E+00 -0.00000000000E+00 -0.22202355431E+02  0.22202355431E+02  0.00000000000E+00 0.  1.
         25    2    1    2    0    0  0.87530722945E+02 -0.49634913836E+02  0.92471827538E+03  0.93855047782E+03  0.12509140046E+03 0.  0.
         23    2    1    2    0    0 -0.87530722945E+02  0.49634913836E+02  0.28651077371E+03  0.31708328213E+03  0.91258600816E+02 0.  0.
          5    1    3    3  502    0  0.48180022362E+02 -0.89991725252E+02  0.52407530546E+03  0.53394028070E+03  0.41800000000E+01 0. -1.
         -5    1    3    3    0  502  0.39350700583E+02  0.40356811416E+02  0.40064296992E+03  0.40461019712E+03  0.41800000000E+01 0. -1.
        -11    1    4    4    0    0 -0.14179235654E+02  0.50343080246E+02  0.63210397036E+02  0.82042859200E+02  0.00000000000E+00 0.  1.
         11    1    4    4    0    0 -0.73351487290E+02 -0.70816640999E+00  0.22330037668E+03  0.23504042293E+03  0.00000000000E+00 0. -1.
</event>
<event>
 8    1  0.6945825E-009  0.1259543E+03  0.7561462E-02  0.1233585E+00
          1   -1    0    0  501    0  0.00000000000E+00  0.00000000000E+00  0.17458826872E+04  0.17458826872E+04  0.00000000000E+00 0. -1.
         -1   -1    0    0    0  501 -0.00000000000E+00 -0.00000000000E+00 -0.14934572804E+02  0.14934572804E+02  0.00000000000E+00 0.  1.
         25    2    1    2    0    0  0.81439491798E+02  0.25269976899E+02  0.13861419900E+04  0.13943844599E+04  0.12508973940E+03 0.  0.
         23    2    1    2    0    0 -0.81439491798E+02 -0.25269976899E+02  0.34480612436E+03  0.36643280011E+03  0.90059819242E+02 0.  0.
          5    1    3    3  502    0 -0.15710381077E+02  0.47362005004E+02  0.56358418890E+03  0.56580437076E+03  0.41800000000E+01 0. -1.
         -5    1    3    3    0  502  0.97149872875E+02 -0.22092028106E+02  0.82255780111E+03  0.82858008912E+03  0.41800000000E+01 0. -1.
        -11    1    4    4    0    0 -0.30220674190E+02 -0.38761787449E+02  0.27196399897E+03  0.27636964749E+03  0.00000000000E+00 0. -1.
         11    1    4    4    0    0 -0.51218817609E+02  0.13491810550E+02  0.72842125389E+02  0.90063152623E+02  0.00000000000E+00 0.  1.
</event>
<event>
 8    1  0.6945825E-009  0.1529515E+03  0.7561462E-02  0.1196892E+00
          1   -1    0    0  501    0  0.00000000000E+00  0.00000000000E+00  0.13800538816E+03  0.13800538816E+03  0.00000000000E+00 0. -1.
         -1   -1    0    0    0  501 -0.00000000000E+00 -0.00000000000E+00 -0.22627655553E+03  0.22627655553E+03  0.00000000000E+00 0.  1.
         25    2    1    2    0    0  0.13314504456E+03 -0.25536121160E+02 -0.77707438799E+02  0.20016258491E+03  0.12508764119E+03 0.  0.
         23    2    1    2    0    0 -0.13314504456E+03  0.25536121160E+02 -0.10563728571E+02  0.16411935877E+03  0.91890560931E+02 0.  0.
          5    1    3    3  502    0  0.11960287492E+03  0.16997764091E+02 -0.93299261748E+02  0.15269576391E+03  0.41800000000E+01 0.  1.
         -5    1    3    3    0  502  0.13542169645E+02 -0.42533885251E+02  0.15591822950E+02  0.47466821003E+02  0.41800000000E+01 0.  1.
        -11    1    4    4    0    0 -0.88975585229E+02 -0.39054568986E+00 -0.47605742195E+02  0.10091141651E+03  0.00000000000E+00 0.  1.
         11    1    4    4    0    0 -0.44169459332E+02  0.25926666850E+02  0.37042013624E+02  0.63207942261E+02  0.00000000000E+00 0. -1.
</event>
<event>
 8    1  0.6945825E-009  0.1494521E+03  0.7561462E-02  0.1201148E+00
          1   -1    0    0  501    0  0.00000000000E+00  0.00000000000E+00  0.10684413595E+04  0.10684413595E+04  0.00000000000E+00 0. -1.
         -1   -1    0    0    0  501 -0.00000000000E+00 -0.00000000000E+00 -0.23522516086E+02  0.23522516086E+02  0.00000000000E+00 0.  1.
         25    2    1    2    0    0 -0.10144113893E+03  0.47039248076E+02  0.65030021026E+03  0.67159558713E+03  0.12508906293E+03 0.  0.
         23    2    1    2    0    0  0.10144113893E+03 -0.47039248076E+02  0.39461863316E+03  0.42036828846E+03  0.92101231139E+02 0.  0.
          5    1    3    3  502    0 -0.10066969348E+03 -0.18021496037E+02  0.41403324360E+03  0.42649755065E+03  0.41800000000E+01 0. -1.
         -5    1    3    3    0  502 -0.77144544847E+00  0.65060744113E+02  0.23626696666E+03  0.24509803648E+03  0.41800000000E+01 0. -1.
        -11    1    4    4    0    0  0.72271685366E+02  0.41951233650E+01  0.12563863952E+03  0.14500297688E+03  0.00000000000E+00 0.  1.
         11    1    4    4    0    0  0.29169453566E+02 -0.51234371441E+02  0.26897999364E+03  0.27536531157E+03  0.00000000000E+00 0. -1.
</event>
<event>
 8    1  0.6945825E-009  0.1283650E+03  0.7561462E-02  0.1229902E+00
          2   -1    0    0  501    0  0.00000000000E+00  0.00000000000E+00  0.36023157495E+03  0.36023157495E+03  0.00000000000E+00 0. -1.
         -2   -1    0    0    0  501 -0.00000000000E+00 -0.00000000000E+00 -0.69410688029E+02  0.69410688029E+02  0.00000000000E+00 0.  1.
         25    2    1    2    0    0  0.77856590490E+02 -0.70020762018E+02  0.21936395472E+03  0.27337271635E+03  0.12509013397E+03 0.  0.
         23    2    1    2    0    0 -0.77856590490E+02  0.70020762018E+02  0.71456932194E+02  0.15626954663E+03  0.91375720234E+02 0.  0.
          5    1    3    3  502    0  0.10391566374E+03 -0.42748681221E+02  0.10874772824E+03  0.15642715785E+03  0.41800000000E+01 0.  1.
         -5    1    3    3    0  502 -0.26059073254E+02 -0.27272080797E+02  0.11061622649E+03  0.11694555850E+03  0.41800000000E+01 0.  1.
        -11    1    4    4    0    0 -0.63117159338E+02  0.45802789426E+02  0.92481950565E+02  0.12097347851E+03  0.00000000000E+00 0. -1.
         11    1    4    4    0    0 -0.14739431152E+02  0.24217972592E+02 -0.21025018371E+02  0.35296068119E+02  0.00000000000E+00 0.  1.
</event>
<event>
 8    1  0.6945825E-009  0.1003889E+03  0.7561462E-02  0.1279480E+00
         -1   -1    0    0    0  501 -0.00000000000E+00  0.00000000000E+00  0.20787908367E+03  0.20787908367E+03  0.00000000000E+00 0.  1.
          1   -1    0    0  501    0  0.00000000000E+00 -0.00000000000E+00 -0.10559841833E+03  0.10559841833E+03  0.00000000000E+00 0. -1.
         25    2    1    2    0    0 -0.39885713043E+02  0.74347130815E+02  0.30810366267E+01  0.15091379159E+03  0.12508842369E+03 0.  0.
         23    2    1    2    0    0  0.39885713043E+02 -0.74347130815E+02  0.99199628714E+02  0.16256371040E+03  0.97303790460E+02 0.  0.
          5    1    3    3  502    0 -0.41005162660E+02  0.25301287073E+02  0.59077731025E+02  0.76349388965E+02  0.41800000000E+01 0.  1.
         -5    1    3    3    0  502  0.11194496162E+01  0.49045843743E+02 -0.55996694399E+02  0.74564402629E+02  0.41800000000E+01 0.  1.
        -11    1    4    4    0    0 -0.10380060927E+02 -0.42323165023E+02  0.92923266846E+02  0.10263395873E+03  0.00000000000E+00 0.  1.
         11    1    4    4    0    0  0.50265773970E+02 -0.32023965792E+02  0.62763618676E+01  0.59929751678E+02  0.00000000000E+00 0. -1.
</event>
<event>
 8    1  0.6945825E-009  0.1022098E+03  0.7561462E-02  0.1275717E+00
          2   -1    0    0  501    0  0.00000000000E+00  0.00000000000E+00  0.51254608993E+03  0.51254608993E+03  0.00000000000E+00 0. -1.
         -2   -1    0    0    0  501 -0.00000000000E+00 -0.00000000000E+00 -0.29519860913E+02  0.29519860913E+02  0.00000000000E+00 0.  1.
         25    2    1    2    0    0  0.47709510411E+01 -0.47522200953E+02  0.34389584744E+03  0.36904399550E+03  0.12509194688E+03 0.  0.
         23    2    1    2    0    0 -0.47709510411E+01  0.47522200953E+02  0.13913038158E+03  0.17302195534E+03  0.91094524501E+02 0.  0.
          5    1    3    3  502    0  0.36868656296E+02 -0.67974517010E+02  0.12665457395E+03  0.14845432389E+03  0.41800000000E+01 0. -1.
         -5    1    3    3    0  502 -0.32097705255E+02  0.20452316057E+02  0.21724127349E+03  0.22058967161E+03  0.41800000000E+01 0. -1.
        -11    1    4    4    0    0  0.31946515763E+02  0.47168324951E+01  0.12914102971E+02  0.34779339179E+02  0.00000000000E+00 0.  1.
         11    1    4    4    0    0 -0.36717466805E+02  0.42805368458E+02  0.12621627860E+03  0.13824261616E+03  0.00000000000E+00 0. -1.
</event>
<event>
 8    1  0.6945825E-009  0.1466436E+03  0.7561462E-02  0.1204659E+00
          1   -1    0    0  501    0  0.00000000000E+00  0.00000000000E+00  0.32301963489E+03  0.32301963489E+03  0.00000000000E+00 0. -1.
         -1   -1    0    0    0  501 -0.00000000000E+00 -0.00000000000E+00 -0.78022602563E+02  0.78022602563E+02  0.00000000000E+00 0.  1.
         25    2    1    2    0    0  0.50629437914E+02  0.10327593740E+03  0.11737513663E+03  0.20652919992E+03  0.12509247975E+03 0.  0.
         23    2    1    2    0    0 -0.50629437914E+02 -0.10327593740E+03  0.12762189570E+03  0.19451303754E+03  0.91206985922E+02 0.  0.
          5    1    3    3  502    0  0.17798730104E+02  0.12742156825E+03  0.93645147930E+02  0.15918522852E+03  0.41800000000E+01 0.  1.
         -5    1    3    3    0  502  0.32830707810E+02 -0.24145630845E+02  0.23729988699E+02  0.47343971399E+02  0.41800000000E+01 0.  1.
        -11    1    4    4    0    0 -0.33058048683E+02 -0.20335959835E+02  0.96820991316E+02  0.10431054695E+03  0.00000000000E+00 0. -1.
         11    1    4    4    0    0 -0.17571389231E+02 -0.82939977566E+02  0.30800904387E+02  0.90202490593E+02  0.00000000000E+00 0.  1.
</event>
<event>
 8    1  0.6945825E-009  0.7066597E+02  0.7561462E-02  0.1357843E+00
         -1   -1    0    0    0  501 -0.00000000000E+00  0.00000000000E+00  0.58607069314E+02  0.58607069314E+02  0.00000000000E+00 0.  1.
          1   -1    0    0  501    0  0.00000000000E+00 -0.00000000000E+00 -0.20340136508E+03  0.20340136508E+03  0.00000000000E+00 0. -1.
         25    2    1    2    0    0 -0.49543249863E+01 -0.46465576982E-01 -0.98846824037E+02  0.15950272216E+03  0.12508347717E+03 0.  0.
         23    2    1    2    0    0  0.49543249863E+01  0.46465576982E-01 -0.45947471734E+02  0.10250571224E+03  0.91497012996E+02 0.  0.
          5    1    3    3  502    0  0.96458221219E+01  0.36659997894E+02 -0.11147616531E+03  0.11781937516E+03  0.41800000000E+01 0.  1.
         -5    1    3    3    0  502 -0.14600147108E+02 -0.36706463471E+02  0.12629341278E+02  0.41683347002E+02  0.41800000000E+01 0.  1.
        -11    1    4    4    0    0  0.12657864446E+02  0.29989969530E+02  0.13702960249E+02  0.35318421883E+02  0.00000000000E+00 0.  1.
         11    1    4    4    0    0 -0.77035394597E+01 -0.29943503953E+02 -0.59650431982E+02  0.67187290352E+02  0.00000000000E+00 0. -1.
</event>
<event>
 8    1  0.6945825E-009  0.1014322E+03  0.7561462E-02  0.1277313E+00
          1   -1    0    0  501    0  0.00000000000E+00  0.00000000000E+00  0.57922577921E+03  0.57922577921E+03  0.00000000000E+00 0. -1.
         -1   -1    0    0    0  501 -0.00000000000E+00 -0.00000000000E+00 -0.31769715225E+02  0.31769715225E+02  0.00000000000E+00 0.  1.
         25    2    1    2    0    0 -0.64702606245E+02 -0.25854493577E+02  0.20487629776E+03  0.24995282427E+03  0.12508890791E+03 0.  0.
         23    2    1    2    0    0  0.64702606245E+02  0.25854493577E+02  0.34257976623E+03  0.36104267017E+03  0.90199952120E+02 0.  0.
          5    1    3    3  502    0 -0.31505620121E+02 -0.51606576914E+02  0.25635840827E+02  0.65806622880E+02  0.41800000000E+01 0. -1.
         -5    1    3    3    0  502 -0.33196986125E+02  0.25752083336E+02  0.17924045693E+03  0.18414620139E+03  0.41800000000E+01 0. -1.
        -11    1    4    4    0    0  0.59498008489E+02 -0.12943178145E+02  0.11504189043E+03  0.13016211211E+03  0.00000000000E+00 0.  1.
         11    1    4    4    0    0  0.52045977563E+01  0.38797671722E+02  0.22753787580E+03  0.23088055807E+03  0.00000000000E+00 0. -1.
</event>
<event>
 8    1  0.6945825E-009  0.1065089E+03  0.7561462E-02  0.1267175E+00
         -1   -1    0    0    0  501 -0.00000000000E+00  0.00000000000E+00  0.35640615836E+02  0.35640615836E+02  0.00000000000E+00 0.  1.
          1   -1    0    0  501    0  0.00000000000E+00 -0.00000000000E+00 -0.47279574556E+03  0.47279574556E+03  0.00000000000E+00 0. -1.
         25    2    1    2    0    0  0.56339757156E+02 -0.25766945374E+02 -0.27711631621E+03  0.31028816853E+03  0.12508873295E+03 0.  0.
         23    2    1    2    0    0 -0.56339757156E+02  0.25766945374E+02 -0.16003881351E+03  0.19814819286E+03  0.99056452560E+02 0.  0.
          5    1    3    3  502    0  0.66496760259E+02  0.15550795890E+02 -0.66624081379E+02  0.95498099443E+02  0.41800000000E+01 0. -1.
         -5    1    3    3    0  502 -0.10157003102E+02 -0.41317741263E+02 -0.21049223483E+03  0.21479006909E+03  0.41800000000E+01 0. -1.
        -11    1    4    4    0    0 -0.52094085203E+02 -0.20060235262E+02 -0.37493686513E+02  0.67245693395E+02  0.00000000000E+00 0.  1.
         11    1    4    4    0    0 -0.42456719535E+01  0.45827180636E+02 -0.12254512700E+03  0.13090249947E+03  0.00000000000E+00 0. -1.
</event>
<event>
 8    1  0.6945825E-009  0.1444481E+03  0.7561462E-02  0.1207466E+00
          2   -1    0    0  501    0  0.00000000000E+00  0.00000000000E+00  0.13056520380E+03  0.13056520380E+03  0.00000000000E+00 0.  1.
         -2   -1    0    0    0  501 -0.00000000000E+00 -0.00000000000E+00 -0.17308017868E+03  0.17308017868E+03  0.00000000000E+00 0. -1.
         25    2    1    2    0    0 -0.84343135001E+02 -0.52992414107E+02  0.51147563518E+01  0.15998760468E+03  0.12509161660E+03 0.  0.
         23    2    1    2    0    0  0.84343135001E+02  0.52992414107E+02 -0.47629731226E+02  0.14365777780E+03  0.91907591911E+02 0.  0.
          5    1    3    3  502    0  0.25537107229E+02  0.15265306621E+02 -0.36680902819E+01  0.30267155766E+02  0.41800000000E+01 0. -1.
         -5    1    3    3    0  502 -0.10988024223E+03 -0.68257720727E+02  0.87828466337E+01  0.12972044891E+03  0.41800000000E+01 0. -1.
        -11    1    4    4    0    0  0.70325993811E+02 -0.42901559779E+01 -0.45071513642E+01  0.70600745444E+02  0.00000000000E+00 0. -1.
         11    1    4    4    0    0  0.14017141191E+02  0.57282570084E+02 -0.43122579862E+02  0.73057032356E+02  0.00000000000E+00 0.  1.
</event>
<event>
 8    1  0.6945825E-009  0.1455539E+03  0.7561462E-02  0.1206045E+00
         -2   -1    0    0    0  501 -0.00000000000E+00  0.00000000000E+00  0.85114100142E+02  0.85114100142E+02  0.00000000000E+00 0.  1.
          2   -1    0    0  501    0  0.00000000000E+00 -0.00000000000E+00 -0.32899240851E+03  0.32899240851E+03  0.00000000000E+00 0. -1.
         25    2    1    2    0    0  0.79373383001E+02  0.99961652761E+02 -0.13111131595E+03  0.22165300079E+03  0.12508960643E+03 0.  0.
         23    2    1    2    0    0 -0.79373383001E+02 -0.99961652761E+02 -0.11276699242E+03  0.19245350786E+03  0.89607433604E+02 0.  0.
          5    1    3    3  502    0 -0.10312949649E+02  0.65663678797E+02 -0.10487135385E+02  0.67420531385E+02  0.41800000000E+01 0.  1.
         -5    1    3    3    0  502  0.89686332649E+02  0.34297973963E+02 -0.12062418056E+03  0.15423246940E+03  0.41800000000E+01 0.  1.
        -11    1    4    4    0    0 -0.44425275737E+02 -0.44776216180E+02 -0.11005677154E+01  0.63085068828E+02  0.00000000000E+00 0.  1.
         11    1    4    4    0    0 -0.34948107263E+02 -0.55185436581E+02 -0.11166642470E+03  0.12936843903E+03  0.00000000000E+00 0. -1.
</event>
<event>
 8    1  0.6945825E-009  0.1255592E+03  0.7561462E-02  0.1234198E+00
         -1   -1    0    0    0  501 -0.00000000000E+00  0.00000000000E+00  0.62609033526E+03  0.62609033526E+03  0.00000000000E+00 0.  1.
          1   -1    0    0  501    0  0.00000000000E+00 -0.00000000000E+00 -0.71347555283E+02  0.71347555283E+02  0.00000000000E+00 0. -1.
         25    2    1    2    0    0  0.34516477863E+02 -0.10176732655E+03  0.49139426387E+02  0.17207711321E+03  0.12509146121E+03 0.  0.
         23    2    1    2    0    0 -0.34516477863E+02  0.10176732655E+03  0.50560335359E+03  0.52536077734E+03  0.93921345819E+02 0.  0.
          5    1    3    3  502    0  0.76511673553E+01 -0.55387627014E+01  0.69303128374E+02  0.70068639608E+02  0.41800000000E+01 0.  1.
         -5    1    3    3    0  502  0.26865310508E+02 -0.96228563849E+02 -0.20163701987E+02  0.10200847360E+03  0.41800000000E+01 0.  1.
        -11    1    4    4    0    0  0.31691184823E+01  0.10303774713E+03  0.40528741762E+03  0.41819219448E+03  0.00000000000E+00 0.  1.
         11    1    4    4    0    0 -0.37685596345E+02 -0.12704205803E+01  0.10031593598E+03  0.10716858286E+03  0.00000000000E+00 0. -1.
</event>
<event>
 8    1  0.6945825E-009  0.1578429E+03  0.7561462E-02  0.1191154E+00
         -2   -1    0    0    0  501 -0.00000000000E+00  0.00000000000E+00  0.47513956778E+02  0.47513956778E+02  0.00000000000E+00 0.  1.
          2   -1    0    0  501    0  0.00000000000E+00 -0.00000000000E+00 -0.11679788312E+04  0.11679788312E+04  0.00000000000E+00 0. -1.
         25    2    1    2    0    0  0.75472173797E+02 -0.10236764636E+03 -0.10034244459E+04  0.10191579481E+04  0.12508845104E+03 0.  0.
         23    2    1    2    0    0 -0.75472173797E+02  0.10236764636E+03 -0.11704042851E+03  0.19633483982E+03  0.93132826571E+02 0.  0.
          5    1    3    3  502    0  0.32630631908E+01  0.20271237600E+02 -0.38927012798E+02  0.44208091800E+02  0.41800000000E+01 0.  1.
         -5    1    3    3    0  502  0.72209110606E+02 -0.12263888396E+03 -0.96449743309E+03  0.97494985633E+03  0.41800000000E+01 0.  1.
        -11    1    4    4    0    0 -0.21039668105E+02 -0.13039811340E+02 -0.40716629885E+02  0.47650270335E+02  0.00000000000E+00 0. -1.
         11    1    4    4    0    0 -0.54432505692E+02  0.11540745770E+03 -0.76323798622E+02  0.14868456949E+03  0.00000000000E+00 0.  1.
</event>
<event>
 8    1  0.6945825E-009  0.1057584E+03  0.7561462E-02  0.1268633E+00
          1   -1    0    0  501    0  0.00000000000E+00  0.00000000000E+00  0.49666618672E+02  0.49666618672E+02  0.00000000000E+00 0. -1.
         -1   -1    0    0    0  501 -0.00000000000E+00 -0.00000000000E+00 -0.38113106137E+03  0.38113106137E+03  0.00000000000E+00 0.  1.
         25    2    1    2    0    0 -0.79160837305E+01  0.82027582708E+02 -0.20632062556E+03  0.25496976582E+03  0.12510072838E+03 0.  0.
         23    2    1    2    0    0  0.79160837305E+01 -0.82027582708E+02 -0.12514381713E+03  0.17582791422E+03  0.91996150715E+02 0.  0.
          5    1    3    3  502    0 -0.24321495345E+02  0.49526079497E+02 -0.21090016569E+03  0.21803834520E+03  0.41800000000E+01 0. -1.
         -5    1    3    3    0  502  0.16405411615E+02  0.32501503210E+02  0.45795401330E+01  0.36931420620E+02  0.41800000000E+01 0. -1.
        -11    1    4    4    0    0  0.29715244112E+02  0.47236135641E+01 -0.52862007793E+02  0.60825160301E+02  0.00000000000E+00 0.  1.
         11    1    4    4    0    0 -0.21799160381E+02 -0.86751196272E+02 -0.72281809339E+02  0.11500275392E+03  0.00000000000E+00 0. -1.
</event>
<event>
 8    1  0.6945825E-009  0.2221497E+03  0.7561462E-02  0.1132290E+00
          2   -1    0    0  501    0  0.00000000000E+00  0.00000000000E+00  0.19053441034E+04  0.19053441034E+04  0.00000000000E+00 0. -1.
         -2   -1    0    0    0  501 -0.00000000000E+00 -0.00000000000E+00 -0.27031501591E+02  0.27031501591E+02  0.00000000000E+00 0.  1.
         25    2    1    2    0    0  0.17834091549E+03 -0.83402731428E+02  0.11003812370E+04  0.11248324067E+04  0.12509028216E+03 0.  0.
         23    2    1    2    0    0 -0.17834091549E+03  0.83402731428E+02  0.77793136477E+03  0.80754319824E+03  0.90483760912E+02 0.  0.
          5    1    3    3  502    0 -0.10810164808E+02  0.15808670082E+02  0.97017738029E+02  0.98978217832E+02  0.41800000000E+01 0. -1.
         -5    1    3    3    0  502  0.18915108030E+03 -0.99211401510E+02  0.10033634990E+04  0.10258541889E+04  0.41800000000E+01 0. -1.
        -11    1    4    4    0    0 -0.60306461066E+02  0.69809581103E+02  0.25191013184E+03  0.26827031402E+03  0.00000000000E+00 0.  1.
         11    1    4    4    0    0 -0.11803445442E+03  0.13593150326E+02  0.52602123293E+03  0.53927288422E+03  0.00000000000E+00 0. -1.
</event>
<event>
 8    1  0.6945825E-009  0.1154620E+03  0.7561462E-02  0.1250777E+00
         -1   -1    0    0    0  501 -0.00000000000E+00  0.00000000000E+00  0.35676315091E+03  0.35676315091E+03  0.00000000000E+00 0.  1.
          1   -1    0    0  501    0  0.00000000000E+00 -0.00000000000E+00 -0.68804562645E+02  0.68804562645E+02  0.00000000000E+00 0. -1.
         25    2    1    2    0    0  0.61682601724E+02  0.16559052646E+02  0.28056484702E+03  0.31375482170E+03  0.12508600711E+03 0.  0.
         23    2    1    2    0    0 -0.61682601724E+02 -0.16559052646E+02  0.73937412447E+01  0.11181289186E+03  0.91479559443E+02 0.  0.
          5    1    3    3  502    0  0.27233161414E+02 -0.51259939366E+02  0.77846837737E+02  0.97194799295E+02  0.41800000000E+01 0.  1.
         -5    1    3    3    0  502  0.34449440309E+02  0.67818992012E+02  0.20271800929E+03  0.21656002241E+03  0.41800000000E+01 0.  1.
        -11    1    4    4    0    0 -0.62747626601E+02 -0.39131444005E+02  0.30042359651E+02  0.79819032363E+02  0.00000000000E+00 0.  1.
         11    1    4    4    0    0  0.10650248773E+01  0.22572391358E+02 -0.22648618406E+02  0.31993859494E+02  0.00000000000E+00 0. -1.
</event>
<event>
 8    1  0.6945825E-009  0.1167395E+03  0.7561462E-02  0.1248575E+00
          2   -1    0    0  501    0  0.00000000000E+00  0.00000000000E+00  0.61444878703E+03  0.61444878703E+03  0.00000000000E+00 0.  1.
         -2   -1    0    0    0  501 -0.00000000000E+00 -0.00000000000E+00 -0.34678641581E+02  0.34678641581E+02  0.00000000000E+00 0. -1.
         25    2    1    2    0    0 -0.76558178404E+02  0.12607299332E+02  0.45467410821E+03  0.47790721018E+03  0.12508660274E+03 0.  0.
         23    2    1    2    0    0  0.76558178404E+02 -0.12607299332E+02  0.12509603724E+03  0.17122021843E+03  0.87448533382E+02 0.  0.
          5    1    3    3  502    0 -0.10418796232E+03  0.10720969406E+02  0.42222777250E+03  0.43504463558E+03  0.41800000000E+01 0. -1.
         -5    1    3    3    0  502  0.27629783919E+02  0.18863299259E+01  0.32446335713E+02  0.42862574598E+02  0.41800000000E+01 0. -1.
        -11    1    4    4    0    0  0.23521801179E+02 -0.35741794545E+02  0.98791615609E+02  0.10765934387E+03  0.00000000000E+00 0.  1.
         11    1    4    4    0    0  0.53036377225E+02  0.23134495213E+02  0.26304421629E+02  0.63560874563E+02  0.00000000000E+00 0. -1.
</event>
<event>
 8    1  0.6945825E-009  0.1449902E+03  0.7561462E-02  0.1206768E+00
         -2   -1    0    0    0  501 -0.00000000000E+00  0.00000000000E+00  0.12357062856E+02  0.12357062856E+02  0.00000000000E+00 0.  1.
          2   -1    0    0  501    0  0.00000000000E+00 -0.00000000000E+00 -0.20329626782E+04  0.20329626782E+04  0.00000000000E+00 0. -1.
         25    2    1    2    0    0 -0.88918335002E+02  0.65542122904E+02 -0.12140959789E+04  0.12255117416E+04  0.12509093768E+03 0.  0.
         23    2    1    2    0    0  0.88918335002E+02 -0.65542122904E+02 -0.80650963642E+03  0.81980799942E+03  0.97083067988E+02 0.  0.
          5    1    3    3  502    0 -0.10581423289E+03  0.42607416300E+02 -0.11447427716E+04  0.11504197188E+04  0.41800000000E+01 0.  1.
         -5    1    3    3    0  502  0.16895897889E+02  0.22934706604E+02 -0.69353207298E+02  0.75092022846E+02  0.41800000000E+01 0.  1.
        -11    1    4    4    0    0 -0.21179630248E+02 -0.14638416388E+02 -0.13611514455E+03  0.13852867049E+03  0.00000000000E+00 0. -1.
         11    1    4    4    0    0  0.11009796525E+03 -0.50903706516E+02 -0.67039449188E+03  0.68127932893E+03  0.00000000000E+00 0.  1.
</event>
<event>
 8    1  0.6945825E-009  0.1027641E+03  0.7561462E-02  0.1274589E+00
          2   -1    0    0  501    0  0.00000000000E+00  0.00000000000E+00  0.22369848028E+03  0.22369848028E+03  0.00000000000E+00 0.  1.
         -2   -1    0    0    0  501 -0.00000000000E+00 -0.00000000000E+00 -0.60148987567E+02  0.60148987567E+02  0.00000000000E+00 0. -1.
         25    2    1    2    0    0  0.67997069751E+01  0.31292213144E+02  0.11564007594E+03  0.17333105082E+03  0.12508232248E+03 0.  0.
         23    2    1    2    0    0 -0.67997069751E+01 -0.31292213144E+02  0.47909416778E+02  0.11051641703E+03  0.94303380634E+02 0.  0.
          5    1    3    3  502    0 -0.39821272374E+02 -0.26222348325E+02  0.74441025082E+02  0.88500191528E+02  0.41800000000E+01 0.  1.
         -5    1    3    3    0  502  0.46620979349E+02  0.57514561469E+02  0.41199050854E+02  0.84830859289E+02  0.41800000000E+01 0.  1.
        -11    1    4    4    0    0 -0.24611567209E+02  0.18395879554E+02  0.48865877238E+02  0.57723579093E+02  0.00000000000E+00 0.  1.
         11    1    4    4    0    0  0.17811860234E+02 -0.49688092698E+02 -0.95646046068E+00  0.52792837938E+02  0.00000000000E+00 0. -1.
</event>
<event>
 8    1  0.6945825E-009  0.1208913E+03  0.7561462E-02  0.1241634E+00
         -4   -1    0    0    0  501 -0.00000000000E+00  0.00000000000E+00  0.21503962520E+03  0.21503962520E+03  0.00000000000E+00 0. -1.
          4   -1    0    0  501    0  0.00000000000E+00 -0.00000000000E+00 -0.10045918727E+03  0.10045918727E+03  0.00000000000E+00 0.  1.
         25    2    1    2    0    0  0.85810818013E+02 -0.41397235374E+02  0.87674252145E+02  0.18003664218E+03  0.12509672440E+03 0.  0.
         23    2    1    2    0    0 -0.85810818013E+02  0.41397235374E+02  0.26906185780E+02  0.13546217029E+03  0.92459878660E+02 0.  0.
          5    1    3    3  502    0  0.43786174787E+02  0.14099077471E+02 -0.21136411175E+02  0.50795997533E+02  0.41800000000E+01 0.  1.
         -5    1    3    3    0  502  0.42024643226E+02 -0.55496312845E+02  0.10881066332E+03  0.12924064465E+03  0.41800000000E+01 0.  1.
        -11    1    4    4    0    0 -0.36194445845E+02 -0.24249701685E+02 -0.10892535502E+02  0.44908053526E+02  0.00000000000E+00 0.  1.
         11    1    4    4    0    0 -0.49616372168E+02  0.65646937059E+02  0.37798721282E+02  0.90554116764E+02  0.00000000000E+00 0. -1.
</event>
<event>
 8    1  0.6945825E-009  0.2824879E+03  0.7561462E-02  0.1094338E+00
          2   -1    0    0  501    0  0.00000000000E+00  0.00000000000E+00  0.14991816717E+04  0.14991816717E+04  0.00000000000E+00 0. -1.
         -2   -1    0    0    0  501 -0.00000000000E+00 -0.00000000000E+00 -0.58258454603E+02  0.58258454603E+02  0.00000000000E+00 0.  1.
         25    2    1    2    0    0 -0.19911927990E+03 -0.18951751834E+03  0.75427820980E+03  0.81249467196E+03  0.12508635737E+03 0.  0.
         23    2    1    2    0    0  0.19911927990E+03  0.18951751834E+03  0.68664500725E+03  0.74494545430E+03  0.88864990342E+02 0.  0.
          5    1    3    3  502    0 -0.15626165438E+03 -0.13413786147E+03  0.38525989292E+03  0.43686763213E+03  0.41800000000E+01 0. -1.
         -5    1    3    3    0  502 -0.42857625520E+02 -0.55379656867E+02  0.36901831688E+03  0.37562703983E+03  0.41800000000E+01 0. -1.
        -11    1    4    4    0    0  0.16513958087E+03  0.99911253238E+02  0.46560620962E+03  0.50402627127E+03  0.00000000000E+00 0.  1.
         11    1    4    4    0    0  0.33979699026E+02  0.89606265102E+02  0.22103879763E+03  0.24091918303E+03  0.00000000000E+00 0. -1.
</event>
<event>
 8    1  0.6945825E-009  0.1039473E+03  0.7561462E-02  0.1272208E+00
         -1   -1    0    0    0  501 -0.00000000000E+00  0.00000000000E+00  0.42918950743E+02  0.42918950743E+02  0.00000000000E+00 0.  1.
          1   -1    0    0  501    0  0.00000000000E+00 -0.00000000000E+00 -0.28538528081E+03  0.28538528081E+03  0.00000000000E+00 0. -1.
         25    2    1    2    0    0  0.14857210424E+01  0.22415140102E+02 -0.13032888701E+03  0.18203952216E+03  0.12509245767E+03 0.  0.
         23    2    1    2    0    0 -0.14857210424E+01 -0.22415140102E+02 -0.11213744306E+03  0.14626470939E+03  0.91180662456E+02 0.  0.
          5    1    3    3  502    0  0.17808230777E+02 -0.42865537738E+02 -0.15931530666E+02  0.49253157039E+02  0.41800000000E+01 0. -1.
         -5    1    3    3    0  502 -0.16322509734E+02  0.65280677839E+02 -0.11439735634E+03  0.13278636512E+03  0.41800000000E+01 0. -1.
        -11    1    4    4    0    0 -0.35489814048E+02  0.19021850219E+02 -0.46052260214E+02  0.61173265057E+02  0.00000000000E+00 0.  1.
         11    1    4    4    0    0  0.34004093005E+02 -0.41436990321E+02 -0.66085182844E+02  0.85091444338E+02  0.00000000000E+00 0. -1.
</event>
<event>
 8    1  0.6945825E-009  0.1176102E+03  0.7561462E-02  0.1247092E+00
          3   -1    0    0  501    0  0.00000000000E+00  0.00000000000E+00  0.63809951219E+02  0.63809951219E+02  0.00000000000E+00 0. -1.
         -3   -1    0    0    0  501 -0.00000000000E+00 -0.00000000000E+00 -0.25749978858E+03  0.25749978858E+03  0.00000000000E+00 0.  1.
         25    2    1    2    0    0  0.39462953238E+02 -0.46534950904E+02 -0.72780245205E+02  0.15705961469E+03  0.12509169493E+03 0.  0.
         23    2    1    2    0    0 -0.39462953238E+02  0.46534950904E+02 -0.12090959216E+03  0.16425012510E+03  0.92930876396E+02 0.  0.
          5    1    3    3  502    0  0.68506501575E+02 -0.61441465479E+02 -0.19075067181E+02  0.94071914121E+02  0.41800000000E+01 0.  1.
         -5    1    3    3    0  502 -0.29043548337E+02  0.14906514575E+02 -0.53705178024E+02  0.62987700572E+02  0.41800000000E+01 0.  1.
        -11    1    4    4    0    0 -0.54743114998E+02 -0.63799673951E+01 -0.71356862212E+02  0.90162710742E+02  0.00000000000E+00 0. -1.
         11    1    4    4    0    0  0.15280161760E+02  0.52914918299E+02 -0.49552729944E+02  0.74087414362E+02  0.00000000000E+00 0.  1.
</event>
<event>
 8    1  0.6945825E-009  0.7010377E+02  0.7561462E-02  0.1359741E+00
          2   -1    0    0  501    0  0.00000000000E+00  0.00000000000E+00  0.36751598102E+02  0.36751598102E+02  0.00000000000E+00 0. -1.
         -2   -1    0    0    0  501 -0.00000000000E+00 -0.00000000000E+00 -0.33363558224E+03  0.33363558224E+03  0.00000000000E+00 0.  1.
         25    2    1    2    0    0  0.79714452109E+01  0.44752427059E+00 -0.13118823513E+03  0.18144322432E+03  0.12509015309E+03 0.  0.
         23    2    1    2    0    0 -0.79714452109E+01 -0.44752427059E+00 -0.16569574901E+03  0.18894395602E+03  0.90448842224E+02 0.  0.
          5    1    3    3  502    0  0.35145054908E+02  0.41410414252E+01  0.10433519407E+02  0.37130228060E+02  0.41800000000E+01 0. -1.
         -5    1    3    3    0  502 -0.27173609697E+02 -0.36935171546E+01 -0.14162175453E+03  0.14431299626E+03  0.41800000000E+01 0. -1.
        -11    1    4    4    0    0 -0.55864189102E+01  0.37951323588E+02 -0.32416374066E+02  0.50222826941E+02  0.00000000000E+00 0. -1.
         11    1    4    4    0    0 -0.23850263007E+01 -0.38398847859E+02 -0.13327937495E+03  0.13872112908E+03  0.00000000000E+00 0.  1.
</event>
<event>
 8    1  0.6945825E-009  0.1121186E+03  0.7561462E-02  0.1256696E+00
         -2   -1    0    0    0  501 -0.00000000000E+00  0.00000000000E+00  0.29777474620E+03  0.29777474620E+03  0.00000000000E+00 0.  1.
          2   -1    0    0  501    0  0.00000000000E+00 -0.00000000000E+00 -0.43141450380E+02  0.43141450380E+02  0.00000000000E+00 0. -1.
         25    2    1    2    0    0  0.15653354959E+02 -0.27629409479E+02  0.13865449125E+03  0.18941046510E+03  0.12507135787E+03 0.  0.
         23    2    1    2    0    0 -0.15653354959E+02  0.27629409479E+02  0.11597880457E+03  0.15150573147E+03  0.92165567161E+02 0.  0.
          5    1    3    3  502    0 -0.93905240229E+01 -0.74575392239E+02  0.88285945422E+02  0.11602392696E+03  0.41800000000E+01 0.  1.
         -5    1    3    3    0  502  0.25043878982E+02  0.46945982760E+02  0.50368545825E+02  0.73386538141E+02  0.41800000000E+01 0.  1.
        -11    1    4    4    0    0  0.22773773277E+01  0.59217989382E+02  0.85828012706E+02  0.10429959002E+03  0.00000000000E+00 0.  1.
         11    1    4    4    0    0 -0.17930732286E+02 -0.31588579903E+02  0.30150791867E+02  0.47206141452E+02  0.00000000000E+00 0. -1.
</event>
<event>
 8    1  0.6945825E-009  0.1043725E+03  0.7561462E-02  0.1271361E+00
         -2   -1    0    0    0  501 -0.00000000000E+00  0.00000000000E+00  0.17497125978E+03  0.17497125978E+03  0.00000000000E+00 0.  1.
          2   -1    0    0  501    0  0.00000000000E+00 -0.00000000000E+00 -0.90217795233E+02  0.90217795233E+02  0.00000000000E+00 0. -1.
         25    2    1    2    0    0 -0.61103483994E+02  0.30000981808E+01  0.44135085206E+02  0.14607661624E+03  0.12509130954E+03 0.  0.
         23    2    1    2    0    0  0.61103483994E+02 -0.30000981808E+01  0.40618379341E+02  0.11911243877E+03  0.93783175377E+02 0.  0.
          5    1    3    3  502    0 -0.41839855054E+02 -0.35742263039E+02  0.74745908850E+02  0.92911280950E+02  0.41800000000E+01 0.  1.
         -5    1    3    3    0  502 -0.19263628941E+02  0.38742361219E+02 -0.30610823643E+02  0.53165335294E+02  0.41800000000E+01 0.  1.
        -11    1    4    4    0    0  0.40644761833E+02  0.43350753551E+02  0.32714267980E+02  0.67834414771E+02  0.00000000000E+00 0.  1.
         11    1    4    4    0    0  0.20458722162E+02 -0.46350851731E+02  0.79041113607E+01  0.51278023998E+02  0.00000000000E+00 0. -1.
</event>
<event>
 8    1  0.6945825E-009  0.1079708E+03  0.7561462E-02  0.1264374E+00
          2   -1    0    0  501    0  0.00000000000E+00  0.00000000000E+00  0.34287215619E+03  0.34287215619E+03  0.00000000000E+00 0. -1.
         -2   -1    0    0    0  501 -0.00000000000E+00 -0.00000000000E+00 -0.53774313835E+02  0.53774313835E+02  0.00000000000E+00 0.  1.
         25    2    1    2    0    0 -0.21246248686E+02 -0.32143605658E+02  0.54770812032E+02  0.14188730748E+03  0.12509017429E+03 0.  0.
         23    2    1    2    0    0  0.21246248686E+02  0.32143605658E+02  0.23432703032E+03  0.25475916254E+03  0.92241310126E+02 0.  0.
          5    1    3    3  502    0  0.45058934935E+02 -0.10560273530E+02 -0.89653447539E+01  0.47325223730E+02  0.41800000000E+01 0.  1.
         -5    1    3    3    0  502 -0.66305183622E+02 -0.21583332127E+02  0.63736156786E+02  0.94562083747E+02  0.41800000000E+01 0.  1.
        -11    1    4    4    0    0  0.47693770948E+01 -0.32530673864E+02  0.87587675834E+02  0.93555291983E+02  0.00000000000E+00 0. -1.
         11    1    4    4    0    0  0.16476871591E+02  0.64674279522E+02  0.14673935449E+03  0.16120387056E+03  0.00000000000E+00 0.  1.
</event>
<event>
 8    1  0.6945825E-009  0.1399146E+03  0.7561462E-02  0.1213444E+00
         -2   -1    0    0    0  501 -0.00000000000E+00  0.00000000000E+00  0.23901986522E+02  0.23901986522E+02  0.00000000000E+00 0.  1.
          2   -1    0    0  501    0  0.00000000000E+00 -0.00000000000E+00 -0.89024441398E+03  0.89024441398E+03  0.00000000000E+00 0. -1.
         25    2    1    2    0    0 -0.95266120058E+02  0.15644016388E+02 -0.44823436837E+03  0.47527038335E+03  0.12509004524E+03 0.  0.
         23    2    1    2    0    0  0.95266120058E+02 -0.15644016388E+02 -0.41810805908E+03  0.43887601715E+03  0.92073017110E+02 0.  0.
          5    1    3    3  502    0 -0.31010761687E+01 -0.39691427167E+02 -0.57966160570E+02  0.70445540917E+02  0.41800000000E+01 0.  1.
         -5    1    3    3    0  502 -0.92165043889E+02  0.55335443555E+02 -0.39026820780E+03  0.40482484243E+03  0.41800000000E+01 0.  1.
        -11    1    4    4    0    0  0.62683355298E+02 -0.53399537272E+02 -0.28787918188E+03  0.29942467663E+03  0.00000000000E+00 0.  1.
         11    1    4    4    0    0  0.32582764759E+02  0.37755520884E+02 -0.13022887720E+03  0.13945134052E+03  0.00000000000E+00 0. -1.
</event>
<event>
 8    1  0.6945825E-009  0.7109180E+02  0.7561462E-02  0.1356419E+00
         -1   -1    0    0    0  501 -0.00000000000E+00  0.00000000000E+00  0.23119932812E+02  0.23119932812E+02  0.00000000000E+00 0.  1.
          1   -1    0    0  501    0  0.00000000000E+00 -0.00000000000E+00 -0.79327904255E+03  0.79327904255E+03  0.00000000000E+00 0. -1.
         25    2    1    2    0    0  0.41601981465E+02  0.21222119541E+02 -0.61957322960E+03  0.63379753561E+03  0.12508887273E+03 0.  0.
         23    2    1    2    0    0 -0.41601981465E+02 -0.21222119541E+02 -0.15058588014E+03  0.18260143976E+03  0.92119896251E+02 0.  0.
          5    1    3    3  502    0  0.33308874240E+02  0.40441097988E+02 -0.60648717888E+03  0.60876032563E+03  0.41800000000E+01 0.  1.
         -5    1    3    3    0  502  0.82931072251E+01 -0.19218978447E+02 -0.13086050718E+02  0.25037209976E+02  0.41800000000E+01 0.  1.
        -11    1    4    4    0    0 -0.40285641669E+02  0.62572216912E+01 -0.13746285602E+02  0.43023785466E+02  0.00000000000E+00 0.  1.
         11    1    4    4    0    0 -0.13163397961E+01 -0.27479341232E+02 -0.13683959454E+03  0.13957765429E+03  0.00000000000E+00 0. -1.
</event>
<event>
 8    1  0.6945825E-009  0.9349025E+02  0.7561462E-02  0.1294613E+00
          2   -1    0    0  501    0  0.00000000000E+00  0.00000000000E+00  0.14746274493E+03  0.14746274493E+03  0.00000000000E+00 0. -1.
         -2   -1    0    0    0  501 -0.00000000000E+00 -0.00000000000E+00 -0.97957988438E+02  0.97957988438E+02  0.00000000000E+00 0.  1.
         25    2    1    2    0    0 -0.20824901343E+02 -0.30909875357E+01  0.69753060597E+02  0.14476222540E+03  0.12508949484E+03 0.  0.
         23    2    1    2    0    0  0.20824901343E+02  0.30909875357E+01 -0.20248304109E+02  0.10065850797E+03  0.96327102555E+02 0.  0.
          5    1    3    3  502    0  0.21925285959E+02  0.31321432379E+02  0.80011739173E+02  0.88775565873E+02  0.41800000000E+01 0.  1.
         -5    1    3    3    0  502 -0.42750187301E+02 -0.34412419915E+02 -0.10258678576E+02  0.55986659526E+02  0.41800000000E+01 0.  1.
        -11    1    4    4    0    0  0.94521154420E+01 -0.44016633548E+02 -0.25786503492E+02  0.51882080506E+02  0.00000000000E+00 0.  1.
         11    1    4    4    0    0  0.11372785901E+02  0.47107621084E+02  0.55381993837E+01  0.48776427460E+02  0.00000000000E+00 0. -1.
</event>
<event>
 8    1  0.6945825E-009  0.7624976E+02  0.7561462E-02  0.1340044E+00
         -1   -1    0    0    0  501 -0.00000000000E+00  0.00000000000E+00  0.45657131351E+02  0.45657131351E+02  0.00000000000E+00 0.  1.
          1   -1    0    0  501    0  0.00000000000E+00 -0.00000000000E+00 -0.33858193687E+03  0.33858193687E+03  0.00000000000E+00 0. -1.
         25    2    1    2    0    0  0.36524859576E+02 -0.31721007785E+02 -0.10312892569E+03  0.16918585040E+03  0.12509192204E+03 0.  0.
         23    2    1    2    0    0 -0.36524859576E+02  0.31721007785E+02 -0.18979587984E+03  0.21505321783E+03  0.88798213909E+02 0.  0.
          5    1    3    3  502    0  0.36770146442E+02 -0.53877643336E+02 -0.18099152667E+01  0.65388013536E+02  0.41800000000E+01 0. -1.
         -5    1    3    3    0  502 -0.24528686635E+00  0.22156635551E+02 -0.10131901042E+03  0.10379783686E+03  0.41800000000E+01 0. -1.
        -11    1    4    4    0    0 -0.35325657662E+01  0.31395741419E+02 -0.11331376724E+02  0.33564440984E+02  0.00000000000E+00 0.  1.
         11    1    4    4    0    0 -0.32992293809E+02  0.32526636642E+00 -0.17846450311E+03  0.18148877685E+03  0.00000000000E+00 0. -1.
</event>
<event>
 8    1  0.6945825E-009  0.8674557E+02  0.7561462E-02  0.1310930E+00
          2   -1    0    0  501    0  0.00000000000E+00  0.00000000000E+00  0.37911829005E+03  0.37911829005E+03  0.00000000000E+00 0. -1.
         -2   -1    0    0    0  501 -0.00000000000E+00 -0.00000000000E+00 -0.40130078583E+02  0.40130078583E+02  0.00000000000E+00 0.  1.
         25    2    1    2    0    0  0.64908271635E+01  0.24064456115E+02  0.28170305923E+03  0.30923278735E+03  0.12508826606E+03 0.  0.
         23    2    1    2    0    0 -0.64908271635E+01 -0.24064456115E+02  0.57285152232E+02  0.11001558128E+03  0.90557222642E+02 0.  0.
          5    1    3    3  502    0 -0.54943755643E+02  0.27768630798E+02  0.10172424968E+03  0.11897566353E+03  0.41800000000E+01 0. -1.
         -5    1    3    3    0  502  0.61434582807E+02 -0.37041746831E+01  0.17997880956E+03  0.19025712382E+03  0.41800000000E+01 0. -1.
        -11    1    4    4    0    0 -0.17419540379E+02  0.57506636325E+01 -0.19591241713E+02  0.26838913373E+02  0.00000000000E+00 0.  1.
         11    1    4    4    0    0  0.10928713215E+02 -0.29815119747E+02  0.76876393944E+02  0.83176667906E+02  0.00000000000E+00 0. -1.
</event>
<event>
 8    1  0.6945825E-009  0.6956369E+02  0.7561462E-02  0.1361583E+00
          2   -1    0    0  501    0  0.00000000000E+00  0.00000000000E+00  0.60909563358E+02  0.60909563358E+02  0.00000000000E+00 0. -1.
         -2   -1    0    0    0  501 -0.00000000000E+00 -0.00000000000E+00 -0.23012118009E+03  0.23012118009E+03  0.00000000000E+00 0.  1.
         25    2    1    2    0    0  0.32354878033E+02  0.16085668202E+02 -0.58334762088E+02  0.14267168923E+03  0.12508668829E+03 0.  0.
         23    2    1    2    0    0 -0.32354878033E+02 -0.16085668202E+02 -0.11087685465E+03  0.14835905422E+03  0.91712295894E+02 0.  0.
          5    1    3    3  502    0  0.57642513768E+01 -0.17738575973E+02  0.34962651786E+02  0.39846494092E+02  0.41800000000E+01 0. -1.
         -5    1    3    3    0  502  0.26590626656E+02  0.33824244174E+02 -0.93297413874E+02  0.10282519514E+03  0.41800000000E+01 0. -1.
        -11    1    4    4    0    0 -0.10109274341E+02 -0.41672158139E+02 -0.10569280267E+03  0.11406022412E+03  0.00000000000E+00 0.  1.
         11    1    4    4    0    0 -0.22245603692E+02  0.25586489937E+02 -0.51840519792E+01  0.34298830094E+02  0.00000000000E+00 0. -1.
</event>
<event>
 8    1  0.6945825E-009  0.1073757E+03  0.7561462E-02  0.1265508E+00
         -1   -1    0    0    0  501 -0.00000000000E+00  0.00000000000E+00  0.77803208217E+02  0.77803208217E+02  0.00000000000E+00 0.  1.
          1   -1    0    0  501    0  0.00000000000E+00 -0.00000000000E+00 -0.33685532589E+03  0.33685532589E+03  0.00000000000E+00 0. -1.
         25    2    1    2    0    0 -0.83428562355E+02  0.66454690827E+02 -0.69042767205E+02  0.17830233282E+03  0.12509303432E+03 0.  0.
         23    2    1    2    0    0  0.83428562355E+02 -0.66454690827E+02 -0.19000935047E+03  0.23635620129E+03  0.91565002438E+02 0.  0.
          5    1    3    3  502    0 -0.64274434151E+02  0.43959995405E+02 -0.10549909689E+03  0.13119152383E+03  0.41800000000E+01 0.  1.
         -5    1    3    3    0  502 -0.19154128204E+02  0.22494695422E+02  0.36456329684E+02  0.47110808987E+02  0.41800000000E+01 0.  1.
        -11    1    4    4    0    0  0.54693925928E+02 -0.48087310193E+02 -0.18865724101E+03  0.20222603571E+03  0.00000000000E+00 0. -1.
         11    1    4    4    0    0  0.28734636427E+02 -0.18367380634E+02 -0.13521094570E+01  0.34130165571E+02  0.00000000000E+00 0.  1.
</event>
<event>
 8    1  0.6945825E-009  0.1146207E+03  0.7561462E-02  0.1252245E+00
         -2   -1    0    0    0  501 -0.00000000000E+00  0.00000000000E+00  0.20530430967E+02  0.20530430967E+02  0.00000000000E+00 0.  1.
          2   -1    0    0  501    0  0.00000000000E+00 -0.00000000000E+00 -0.90672586428E+03  0.90672586428E+03  0.00000000000E+00 0. -1.
         25    2    1    2    0    0  0.15432965251E+02 -0.40178630511E+02 -0.72977755361E+03  0.74166948672E+03  0.12508337621E+03 0.  0.
         23    2    1    2    0    0 -0.15432965251E+02  0.40178630511E+02 -0.15641787971E+03  0.18558680854E+03  0.90129970844E+02 0.  0.
          5    1    3    3  502    0 -0.55735354973E+01 -0.82232888062E+02 -0.39050844869E+03  0.39913360304E+03  0.41800000000E+01 0.  1.
         -5    1    3    3    0  502  0.21006500749E+02  0.42054257551E+02 -0.33926910492E+03  0.34253588367E+03  0.41800000000E+01 0.  1.
        -11    1    4    4    0    0 -0.38440528641E+02 -0.13799675120E+02 -0.56550198978E+02  0.69756937146E+02  0.00000000000E+00 0.  1.
         11    1    4    4    0    0  0.23007563389E+02  0.53978305632E+02 -0.99867680728E+02  0.11582987139E+03  0.00000000000E+00 0. -1.
</event>
<event>
 8    1  0.6945825E-009  0.1038219E+03  0.7561462E-02  0.1272458E+00
         -1   -1    0    0    0  501 -0.00000000000E+00  0.00000000000E+00  0.50402337307E+02  0.50402337307E+02  0.00000000000E+00 0.  1.
          1   -1    0    0  501    0  0.00000000000E+00 -0.00000000000E+00 -0.25247901589E+03  0.25247901589E+03  0.00000000000E+00 0. -1.
         25    2    1    2    0    0  0.73925913637E+01  0.58112593793E+01 -0.11925222831E+03  0.17308101144E+03  0.12509005324E+03 0.  0.
         23    2    1    2    0    0 -0.73925913637E+01 -0.58112593793E+01 -0.82824450277E+02  0.12980034176E+03  0.99497829201E+02 0.  0.
          5    1    3    3  502    0 -0.33552637186E+02  0.41310202458E+02 -0.14902207546E+02  0.55424367196E+02  0.41800000000E+01 0.  1.
         -5    1    3    3    0  502  0.40945228550E+02 -0.35498943079E+02 -0.10435002076E+03  0.11765664424E+03  0.41800000000E+01 0.  1.
        -11    1    4    4    0    0 -0.53343795612E+02 -0.78157333721E+01 -0.46353541044E+02  0.71100611712E+02  0.00000000000E+00 0.  1.
         11    1    4    4    0    0  0.45951204249E+02  0.20044739928E+01 -0.36470909233E+02  0.58699730052E+02  0.00000000000E+00 0. -1.
</event>
<event>
 8    1  0.6945825E-009  0.1020240E+03  0.7561462E-02  0.1276096E+00
          1   -1    0    0  501    0  0.00000000000E+00  0.00000000000E+00  0.23977124648E+03  0.23977124648E+03  0.00000000000E+00 0. -1.
         -1   -1    0    0    0  501 -0.00000000000E+00 -0.00000000000E+00 -0.76992082890E+02  0.76992082890E+02  0.00000000000E+00 0.  1.
         25    2    1    2    0    0 -0.35207553844E+02  0.69453141829E+02  0.11657245237E+03  0.18789267677E+03  0.12510479837E+03 0.  0.
         23    2    1    2    0    0  0.35207553844E+02 -0.69453141829E+02  0.46206711219E+02  0.12887065260E+03  0.91702094747E+02 0.  0.
          5    1    3    3  502    0  0.34430133461E+02  0.24446288882E+02  0.91995969676E+02  0.10131034482E+03  0.41800000000E+01 0. -1.
         -5    1    3    3    0  502 -0.69637687306E+02  0.45006852947E+02  0.24576482694E+02  0.86582331957E+02  0.41800000000E+01 0. -1.
        -11    1    4    4    0    0  0.14349530486E+02 -0.17632591470E+02  0.65844514239E+02  0.69658577092E+02  0.00000000000E+00 0. -1.
         11    1    4    4    0    0  0.20858023358E+02 -0.51820550359E+02 -0.19637803020E+02  0.59212075503E+02  0.00000000000E+00 0.  1.
</event>
<event>
 8    1  0.6945825E-009  0.1015426E+03  0.7561462E-02  0.1277085E+00
         -1   -1    0    0    0  501 -0.00000000000E+00  0.00000000000E+00  0.40422468920E+02  0.40422468920E+02  0.00000000000E+00 0.  1.
          1   -1    0    0  501    0  0.00000000000E+00 -0.00000000000E+00 -0.34002249147E+03  0.34002249147E+03  0.00000000000E+00 0. -1.
         25    2    1    2    0    0 -0.10226004167E+02 -0.12901539045E+02 -0.10282401702E+03  0.16276118387E+03  0.12508958241E+03 0.  0.
         23    2    1    2    0    0  0.10226004167E+02  0.12901539045E+02 -0.19677600553E+03  0.21768377652E+03  0.91621009260E+02 0.  0.
          5    1    3    3  502    0 -0.64026117270E+02  0.73129932840E+01 -0.33942721090E+02  0.72954809838E+02  0.41800000000E+01 0.  1.
         -5    1    3    3    0  502  0.53800113103E+02 -0.20214532329E+02 -0.68881295931E+02  0.89806374029E+02  0.41800000000E+01 0.  1.
        -11    1    4    4    0    0  0.44800815510E+02  0.11626392808E+02 -0.55668646235E+02  0.72396714385E+02  0.00000000000E+00 0.  1.
         11    1    4    4    0    0 -0.34574811343E+02  0.12751462377E+01 -0.14110735930E+03  0.14528706214E+03  0.00000000000E+00 0. -1.
</event>
<event>
 8    1  0.6945825E-009  0.1397429E+03  0.7561462E-02  0.1213675E+00
          2   -1    0    0  501    0  0.00000000000E+00  0.00000000000E+00  0.63427402509E+03  0.63427402509E+03  0.00000000000E+00 0. -1.
         -2   -1    0    0    0  501 -0.00000000000E+00 -0.00000000000E+00 -0.35606929455E+02  0.35606929455E+02  0.00000000000E+00 0.  1.
         25    2    1    2    0    0 -0.60936240145E+02 -0.84084348490E+02  0.32363855718E+03  0.36218144632E+03  0.12510028515E+03 0.  0.
         23    2    1    2    0    0  0.60936240145E+02  0.84084348490E+02  0.27502853846E+03  0.30769950822E+03  0.90856410723E+02 0.  0.
          5    1    3    3  502    0 -0.31075673023E+01 -0.10069228956E+03  0.22512062471E+03  0.24666852701E+03  0.41800000000E+01 0. -1.
         -5    1    3    3    0  502 -0.57828672843E+02  0.16607941066E+02  0.98517932470E+02  0.11551291931E+03  0.41800000000E+01 0. -1.
        -11    1    4    4    0    0  0.35172169374E+02  0.85594662252E+02  0.12532671497E+03  0.15578932309E+03  0.00000000000E+00 0.  1.
         11    1    4    4    0    0  0.25764070771E+02 -0.15103137614E+01  0.14970182349E+03  0.15191018513E+03  0.00000000000E+00 0. -1.
</event>
<event>
 8    1  0.6945825E-009  0.9453272E+02  0.7561462E-02  0.1292232E+00
         -1   -1    0    0    0  501 -0.00000000000E+00  0.00000000000E+00  0.53260165139E+02  0.53260165139E+02  0.00000000000E+00 0.  1.
          1   -1    0    0  501    0  0.00000000000E+00 -0.00000000000E+00 -0.23990545118E+03  0.23990545118E+03  0.00000000000E+00 0. -1.
         25    2    1    2    0    0 -0.24686591181E+02 -0.17529999633E+02 -0.10345697380E+03  0.16513284497E+03  0.12509509338E+03 0.  0.
         23    2    1    2    0    0  0.24686591181E+02  0.17529999633E+02 -0.83188312237E+02  0.12803277135E+03  0.92495224614E+02 0.  0.
          5    1    3    3  502    0 -0.63372953184E+01 -0.71261404720E+02 -0.54244952300E+02  0.89879565890E+02  0.41800000000E+01 0.  1.
         -5    1    3    3    0  502 -0.18349295862E+02  0.53731405087E+02 -0.49212021505E+02  0.75253279077E+02  0.41800000000E+01 0.  1.
        -11    1    4    4    0    0 -0.16553465081E+02  0.36055012949E+01 -0.82787866896E+02  0.84503536914E+02  0.00000000000E+00 0. -1.
         11    1    4    4    0    0  0.41240056262E+02  0.13924498338E+02 -0.40044534084E+00  0.43529234439E+02  0.00000000000E+00 0.  1.
</event>
<event>
 8    1  0.6945825E-009  0.9712081E+02  0.7561462E-02  0.1286470E+00
         -1   -1    0    0    0  501 -0.00000000000E+00  0.00000000000E+00  0.12150215652E+03  0.12150215652E+03  0.00000000000E+00 0.  1.
          1   -1    0    0  501    0  0.00000000000E+00 -0.00000000000E+00 -0.22755040212E+03  0.22755040212E+03  0.00000000000E+00 0. -1.
         25    2    1    2    0    0  0.11551082184E+01  0.90442933105E+00 -0.18717368421E+03  0.22513215238E+03  0.12509334798E+03 0.  0.
         23    2    1    2    0    0 -0.11551082184E+01 -0.90442933105E+00  0.81125438611E+02  0.12392040626E+03  0.93663109232E+02 0.  0.
          5    1    3    3  502    0  0.28323052879E+02  0.42191730785E+02 -0.16134421875E+03  0.16920923969E+03  0.41800000000E+01 0. -1.
         -5    1    3    3    0  502 -0.27167944660E+02 -0.41287301454E+02 -0.25829465456E+02  0.55922912694E+02  0.41800000000E+01 0. -1.
        -11    1    4    4    0    0 -0.43399026316E+02  0.18484878959E+02  0.42198810993E+02  0.63292226099E+02  0.00000000000E+00 0.  1.
         11    1    4    4    0    0  0.42243918098E+02 -0.19389308290E+02  0.38926627617E+02  0.60628180163E+02  0.00000000000E+00 0. -1.
</event>
<event>
 8    1  0.6945825E-009  0.1136625E+03  0.7561462E-02  0.1253934E+00
          2   -1    0    0  501    0  0.00000000000E+00  0.00000000000E+00  0.22683895212E+03  0.22683895212E+03  0.00000000000E+00 0. -1.
         -2   -1    0    0    0  501 -0.00000000000E+00 -0.00000000000E+00 -0.91345279868E+02  0.91345279868E+02  0.00000000000E+00 0.  1.
         25    2    1    2    0    0  0.68077582027E+02 -0.16117774997E+02  0.34718208627E+01  0.14336246035E+03  0.12508557731E+03 0.  0.
         23    2    1    2    0    0 -0.68077582027E+02  0.16117774997E+02  0.13202185139E+03  0.17482177164E+03  0.90766418628E+02 0.  0.
          5    1    3    3  502    0  0.28851613812E+02 -0.63109152997E+02 -0.27347068131E+02  0.74702846980E+02  0.41800000000E+01 0.  1.
         -5    1    3    3    0  502  0.39225968215E+02  0.46991378000E+02  0.30818888993E+02  0.68659613366E+02  0.41800000000E+01 0.  1.
        -11    1    4    4    0    0 -0.75120458268E+02 -0.39112936131E+01  0.50550998816E+02  0.90629934069E+02  0.00000000000E+00 0.  1.
         11    1    4    4    0    0  0.70428762408E+01  0.20029068610E+02  0.81470852570E+02  0.84191837571E+02  0.00000000000E+00 0. -1.
</event>
<event>
 8    1  0.6945825E-009  0.8888651E+02  0.7561462E-02  0.1305571E+00
          1   -1    0    0  501    0  0.00000000000E+00  0.00000000000E+00  0.77275124255E+02  0.77275124255E+02  0.00000000000E+00 0. -1.
         -1   -1    0    0    0  501 -0.00000000000E+00 -0.00000000000E+00 -0.36262102895E+03  0.36262102895E+03  0.00000000000E+00 0.  1.
         25    2    1    2    0    0  0.69296848938E+02 -0.19705840227E+02 -0.29025428428E+03  0.32416967708E+03  0.12509219233E+03 0.  0.
         23    2    1    2    0    0 -0.69296848938E+02  0.19705840227E+02  0.49083795882E+01  0.11572647612E+03  0.90433133717E+02 0.  0.
          5    1    3    3  502    0  0.75474531213E+02 -0.14491486143E+01 -0.69998894673E+02  0.10303311385E+03  0.41800000000E+01 0.  1.
         -5    1    3    3    0  502 -0.61776822743E+01 -0.18256691613E+02 -0.22025538961E+03  0.22113656323E+03  0.41800000000E+01 0.  1.
        -11    1    4    4    0    0 -0.41047827106E+02 -0.91612651253E+01 -0.38083597928E+02  0.56738111706E+02  0.00000000000E+00 0.  1.
         11    1    4    4    0    0 -0.28249021832E+02  0.28867105353E+02  0.42991977516E+02  0.58988364418E+02  0.00000000000E+00 0. -1.
</event>
<event>
 8    1  0.6945825E-009  0.1140385E+03  0.7561462E-02  0.1253269E+00
         -2   -1    0    0    0  501 -0.00000000000E+00  0.00000000000E+00  0.82216207620E+02  0.82216207620E+02  0.00000000000E+00 0.  1.
          2   -1    0    0  501    0  0.00000000000E+00 -0.00000000000E+00 -0.20266621554E+03  0.20266621554E+03  0.00000000000E+00 0. -1.
         25    2    1    2    0    0  0.55973259394E+02 -0.22013831834E+02 -0.10449971367E+03  0.17374022664E+03  0.12509141312E+03 0.  0.
         23    2    1    2    0    0 -0.55973259394E+02  0.22013831834E+02 -0.15950294249E+02  0.11114219652E+03  0.92089963629E+02 0.  0.
          5    1    3    3  502    0 -0.25706170654E+02 -0.36047256221E+02 -0.58874132712E+01  0.44859178836E+02  0.41800000000E+01 0.  1.
         -5    1    3    3    0  502  0.81679430048E+02  0.14033424387E+02 -0.98612300397E+02  0.12888104780E+03  0.41800000000E+01 0.  1.
        -11    1    4    4    0    0 -0.24485253708E+02 -0.30671671913E+02  0.15474946882E+02  0.42187119931E+02  0.00000000000E+00 0.  1.
         11    1    4    4    0    0 -0.31488005686E+02  0.52685503747E+02 -0.31425241131E+02  0.68955076588E+02  0.00000000000E+00 0. -1.
</event>
<event>
 8    1  0.6945825E-009  0.1398579E+03  0.7561462E-02  0.1213520E+00
          1   -1    0    0  501    0  0.00000000000E+00  0.00000000000E+00  0.37345178520E+03  0.37345178520E+03  0.00000000000E+00 0. -1.
         -1   -1    0    0    0  501 -0.00000000000E+00 -0.00000000000E+00 -0.13012360623E+03  0.13012360623E+03  0.00000000000E+00 0.  1.
         25    2    1    2    0    0 -0.19724698401E+02  0.12052964482E+03  0.29461782897E+03  0.34258426578E+03  0.12509138663E+03 0.  0.
         23    2    1    2    0    0  0.19724698401E+02 -0.12052964482E+03 -0.51289649998E+02  0.16099112564E+03  0.91493471521E+02 0.  0.
          5    1    3    3  502    0 -0.29204198533E+02  0.10089593567E+03  0.94850677654E+02  0.14158742351E+03  0.41800000000E+01 0.  1.
         -5    1    3    3    0  502  0.94795001320E+01  0.19633709151E+02  0.19976715131E+03  0.20099684227E+03  0.41800000000E+01 0.  1.
        -11    1    4    4    0    0  0.17686981718E+02  0.11014272434E+02 -0.99447915044E+01  0.23087710965E+02  0.00000000000E+00 0.  1.
         11    1    4    4    0    0  0.20377166823E+01 -0.13154391725E+03 -0.41344858494E+02  0.13790341467E+03  0.00000000000E+00 0. -1.
</event>
<event>
 8    1  0.6945825E-009  0.1495794E+03  0.7561462E-02  0.1200991E+00
         -1   -1    0    0    0  501 -0.00000000000E+00  0.00000000000E+00  0.23765785887E+03  0.23765785887E+03  0.00000000000E+00 0.  1.
          1   -1    0    0  501    0  0.00000000000E+00 -0.00000000000E+00 -0.13966928403E+03  0.13966928403E+03  0.00000000000E+00 0. -1.
         25    2    1    2    0    0  0.61364606248E+02 -0.11542072563E+03 -0.17226932718E+02  0.18174673841E+03  0.12509017110E+03 0.  0.
         23    2    1    2    0    0 -0.61364606248E+02  0.11542072563E+03  0.11521550755E+03  0.19558040449E+03  0.88822984819E+02 0.  0.
          5    1    3    3  502    0  0.77542721021E+02 -0.88834388507E+02 -0.57028024818E+02  0.13104995299E+03  0.41800000000E+01 0. -1.
         -5    1    3    3    0  502 -0.16178114773E+02 -0.26586337127E+02  0.39801092100E+02  0.50696785419E+02  0.41800000000E+01 0. -1.
        -11    1    4    4    0    0 -0.67216963724E+02  0.49228448241E+02  0.32383794912E+02  0.89388313002E+02  0.00000000000E+00 0.  1.
         11    1    4    4    0    0  0.58523574761E+01  0.66192277392E+02  0.82831712641E+02  0.10619209148E+03  0.00000000000E+00 0. -1.
</event>
<event>
 8    1  0.6945825E-009  0.1010627E+03  0.7561462E-02  0.1278077E+00
          1   -1    0    0  501    0  0.00000000000E+00  0.00000000000E+00  0.40964868978E+03  0.40964868978E+03  0.00000000000E+00 0. -1.
         -1   -1    0    0    0  501 -0.00000000000E+00 -0.00000000000E+00 -0.33266323972E+02  0.33266323972E+02  0.00000000000E+00 0.  1.
         25    2    1    2    0    0  0.27950705179E+02 -0.36286058896E+02  0.19575578716E+03  0.23678176710E+03  0.12508939617E+03 0.  0.
         23    2    1    2    0    0 -0.27950705179E+02  0.36286058896E+02  0.18062657865E+03  0.20613324666E+03  0.88130780498E+02 0.  0.
          5    1    3    3  502    0  0.38375197635E+01 -0.78315385816E+02  0.84448295908E+02  0.11531267621E+03  0.41800000000E+01 0.  1.
         -5    1    3    3    0  502  0.24113185416E+02  0.42029326920E+02  0.11130749125E+03  0.12146909089E+03  0.41800000000E+01 0.  1.
        -11    1    4    4    0    0  0.52366514732E+01  0.41102268745E+02  0.16312687503E+03  0.16830685183E+03  0.00000000000E+00 0. -1.
         11    1    4    4    0    0 -0.33187356652E+02 -0.48162098497E+01  0.17499703621E+02  0.37826394828E+02  0.00000000000E+00 0.  1.
</event>
<event>
 8    1  0.6945825E-009  0.8523852E+02  0.7561462E-02  0.1314810E+00
          2   -1    0    0  501    0  0.00000000000E+00  0.00000000000E+00  0.59938638067E+02  0.59938638067E+02  0.00000000000E+00 0. -1.
         -2   -1    0    0    0  501 -0.00000000000E+00 -0.00000000000E+00 -0.25011488114E+03  0.25011488114E+03  0.00000000000E+00 0.  1.
         25    2    1    2    0    0  0.50198904270E+02  0.48127229136E+01 -0.13241129529E+03  0.18900684820E+03  0.12509094793E+03 0.  0.
         23    2    1    2    0    0 -0.50198904270E+02 -0.48127229136E+01 -0.57764947786E+02  0.12104667101E+03  0.93661171669E+02 0.  0.
          5    1    3    3  502    0  0.68813658982E+02 -0.18001352895E+01 -0.15918861618E+02  0.70777416630E+02  0.41800000000E+01 0. -1.
         -5    1    3    3    0  502 -0.18614754712E+02  0.66128582031E+01 -0.11649243367E+03  0.11822943157E+03  0.41800000000E+01 0. -1.
        -11    1    4    4    0    0 -0.63452941824E+02  0.66466917525E+01 -0.73618834194E+02  0.97417591253E+02  0.00000000000E+00 0.  1.
         11    1    4    4    0    0  0.13254037554E+02 -0.11459414666E+02  0.15853886408E+02  0.23629079758E+02  0.00000000000E+00 0. -1.
</event>
<event>
 8    1  0.6945825E-009  0.9276210E+02  0.7561462E-02  0.1296297E+00
         -1   -1    0    0    0  501 -0.00000000000E+00  0.00000000000E+00  0.84639992545E+02  0.84639992545E+02  0.00000000000E+00 0.  1.
          1   -1    0    0  501    0  0.00000000000E+00 -0.00000000000E+00 -0.19886417766E+03  0.19886417766E+03  0.00000000000E+00 0. -1.
         25    2    1    2    0    0  0.63050939926E+00 -0.32221185055E+02  0.66868566075E+01  0.12934825841E+03  0.12509058956E+03 0.  0.
         23    2    1    2    0    0 -0.63050939926E+00  0.32221185055E+02 -0.12091104173E+03  0.15415591179E+03  0.90033120691E+02 0.  0.
          5    1    3    3  502    0 -0.48803635415E+02 -0.36993879305E+02  0.36360811385E+02  0.71343695870E+02  0.41800000000E+01 0.  1.
         -5    1    3    3    0  502  0.49434144814E+02  0.47726942503E+01 -0.29673954778E+02  0.58004562545E+02  0.41800000000E+01 0.  1.
        -11    1    4    4    0    0  0.25325882688E+02 -0.78887893713E+01 -0.27094481603E+01  0.26664103979E+02  0.00000000000E+00 0.  1.
         11    1    4    4    0    0 -0.25956392087E+02  0.40109974426E+02 -0.11820159357E+03  0.12749180782E+03  0.00000000000E+00 0. -1.
</event>
<event>
 8    1  0.6945825E-009  0.1089945E+03  0.7561462E-02  0.1262443E+00
          2   -1    0    0  501    0  0.00000000000E+00  0.00000000000E+00  0.13820249184E+04  0.13820249184E+04  0.00000000000E+00 0. -1.
         -2   -1    0    0    0  501 -0.00000000000E+00 -0.00000000000E+00 -0.19402362029E+02  0.19402362029E+02  0.00000000000E+00 0.  1.
         25    2    1    2    0    0  0.35315247118E+01 -0.84181221887E+02  0.11015503428E+04  0.11118268374E+04  0.12508720468E+03 0.  0.
         23    2    1    2    0    0 -0.35315247118E+01  0.84181221887E+02  0.26107221351E+03  0.28960044300E+03  0.92794213914E+02 0.  0.
          5    1    3    3  502    0  0.25392829166E+02 -0.77666838617E+02  0.33221707288E+03  0.34214410635E+03  0.41800000000E+01 0. -1.
         -5    1    3    3    0  502 -0.21861304454E+02 -0.65143832708E+01  0.76933326994E+03  0.76968273104E+03  0.41800000000E+01 0. -1.
        -11    1    4    4    0    0 -0.39123204196E+02  0.51360209354E+02  0.83518988997E+02  0.10556475612E+03  0.00000000000E+00 0.  1.
         11    1    4    4    0    0  0.35591679484E+02  0.32821012534E+02  0.17755322451E+03  0.18403568688E+03  0.00000000000E+00 0. -1.
</event>
<event>
 8    1  0.6945825E-009  0.5706436E+02  0.7561462E-02  0.1410581E+00
         -3   -1    0    0    0  501 -0.00000000000E+00  0.00000000000E+00  0.63454822498E+02  0.63454822498E+02  0.00000000000E+00 0.  1.
          3   -1    0    0  501    0  0.00000000000E+00 -0.00000000000E+00 -0.42388420414E+03  0.42388420414E+03  0.00000000000E+00 0. -1.
         25    2    1    2    0    0  0.12245244114E+02  0.19281348365E+02 -0.37297025316E+03  0.39405016736E+03  0.12508800204E+03 0.  0.
         23    2    1    2    0    0 -0.12245244114E+02 -0.19281348365E+02  0.12540871524E+02  0.93288859273E+02  0.89575785834E+02 0.  0.
          5    1    3    3  502    0  0.35170321754E+02 -0.12022513005E+02 -0.27603791539E+02  0.46485847938E+02  0.41800000000E+01 0. -1.
         -5    1    3    3    0  502 -0.22925077640E+02  0.31303861371E+02 -0.34536646162E+03  0.34756431942E+03  0.41800000000E+01 0. -1.
        -11    1    4    4    0    0  0.22179774136E+01 -0.22725256490E+02  0.48921410286E+02  0.53987601268E+02  0.00000000000E+00 0.  1.
         11    1    4    4    0    0 -0.14463221528E+02  0.34439081247E+01 -0.36380538762E+02  0.39301258005E+02  0.00000000000E+00 0. -1.
</event>
<event>
 8    1  0.6945825E-009  0.1155886E+03  0.7561462E-02  0.1250557E+00
         -1   -1    0    0    0  501 -0.00000000000E+00  0.00000000000E+00  0.20137492899E+03  0.20137492899E+03  0.00000000000E+00 0.  1.
          1   -1    0    0  501    0  0.00000000000E+00 -0.00000000000E+00 -0.11266223771E+03  0.11266223771E+03  0.00000000000E+00 0. -1.
         25    2    1    2    0    0 -0.41765506652E+02  0.59674566712E+02 -0.30095836131E+02  0.14785021704E+03  0.12509402810E+03 0.  0.
         23    2    1    2    0    0  0.41765506652E+02 -0.59674566712E+02  0.11880852741E+03  0.16618694966E+03  0.90538525467E+02 0.  0.
          5    1    3    3  502    0  0.25304406794E+02 -0.18688420010E+02  0.15119108614E+02  0.35151527577E+02  0.41800000000E+01 0.  1.
         -5    1    3    3    0  502 -0.67069913446E+02  0.78362986722E+02 -0.45214944745E+02  0.11269868946E+03  0.41800000000E+01 0.  1.
        -11    1    4    4    0    0  0.24817175980E+02  0.82911049756E+01  0.83974632256E+02  0.87956656984E+02  0.00000000000E+00 0.  1.
         11    1    4    4    0    0  0.16948330672E+02 -0.67965671688E+02  0.34833895155E+02  0.78230292676E+02  0.00000000000E+00 0. -1.
</event>
<event>
 8    1  0.6945825E-009  0.1205086E+03  0.7561462E-02  0.1242260E+00
          1   -1    0    0  501    0  0.00000000000E+00  0.00000000000E+00  0.59095462939E+03  0.59095462939E+03  0.00000000000E+00 0. -1.
         -1   -1    0    0    0  501 -0.00000000000E+00 -0.00000000000E+00 -0.42848276389E+02  0.42848276389E+02  0.00000000000E+00 0.  1.
         25    2    1    2    0    0 -0.93127430536E+02  0.67673800491E+01  0.15744271816E+03  0.22171540727E+03  0.12510394306E+03 0.  0.
         23    2    1    2    0    0  0.93127430536E+02 -0.67673800491E+01  0.39066363484E+03  0.41208749851E+03  0.92084282522E+02 0.  0.
          5    1    3    3  502    0 -0.11242678979E+03 -0.19857853484E+02  0.86125038268E+02  0.14307030448E+03  0.41800000000E+01 0.  1.
         -5    1    3    3    0  502  0.19299359251E+02  0.26625233533E+02  0.71317679889E+02  0.78645102791E+02  0.41800000000E+01 0.  1.
        -11    1    4    4    0    0  0.14453313225E+02 -0.35603915349E+01  0.14124184076E+01  0.14952243204E+02  0.00000000000E+00 0.  1.
         11    1    4    4    0    0  0.78674117311E+02 -0.32069885142E+01  0.38925121643E+03  0.39713525530E+03  0.00000000000E+00 0. -1.
</event>
<event>
 8    1  0.6945825E-009  0.1662636E+03  0.7561462E-02  0.1181801E+00
         -3   -1    0    0    0  501 -0.00000000000E+00  0.00000000000E+00  0.14388003828E+03  0.14388003828E+03  0.00000000000E+00 0.  1.
          3   -1    0    0  501    0  0.00000000000E+00 -0.00000000000E+00 -0.27973981060E+03  0.27973981060E+03  0.00000000000E+00 0. -1.
         25    2    1    2    0    0 -0.15454422121E+03  0.33021966944E+02 -0.87667940825E+01  0.20173918340E+03  0.12508986701E+03 0.  0.
         23    2    1    2    0    0  0.15454422121E+03 -0.33021966944E+02 -0.12709297824E+03  0.22188066548E+03  0.90022430457E+02 0.  0.
          5    1    3    3  502    0 -0.15432927508E+03  0.20242825325E+02 -0.45830031485E+02  0.16231192596E+03  0.41800000000E+01 0.  1.
         -5    1    3    3    0  502 -0.21494613417E+00  0.12779141619E+02  0.37063237403E+02  0.39427257439E+02  0.41800000000E+01 0.  1.
        -11    1    4    4    0    0  0.11984170383E+03 -0.70894124532E+01 -0.13182915927E+03  0.17830092815E+03  0.00000000000E+00 0. -1.
         11    1    4    4    0    0  0.34702517384E+02 -0.25932554491E+02  0.47361810283E+01  0.43579737332E+02  0.00000000000E+00 0.  1.
</event>
<event>
 8    1  0.6945825E-009  0.1137624E+03  0.7561462E-02  0.1253757E+00
         -1   -1    0    0    0  501 -0.00000000000E+00  0.00000000000E+00  0.15936111829E+03  0.15936111829E+03  0.00000000000E+00 0.  1.
          1   -1    0    0  501    0  0.00000000000E+00 -0.00000000000E+00 -0.89630527380E+02  0.89630527380E+02  0.00000000000E+00 0. -1.
         25    2    1    2    0    0  0.18878814096E+02 -0.39871368354E+02  0.14240437133E+02  0.13340461946E+03  0.12509143378E+03 0.  0.
         23    2    1    2    0    0 -0.18878814096E+02  0.39871368354E+02  0.55490153775E+02  0.11558702621E+03  0.91296592632E+02 0.  0.
          5    1    3    3  502    0  0.70393099289E+02 -0.21714988470E+02  0.24351310050E+02  0.77699342680E+02  0.41800000000E+01 0.  1.
         -5    1    3    3    0  502 -0.51514285193E+02 -0.18156379884E+02 -0.10110872917E+02  0.55705276776E+02  0.41800000000E+01 0.  1.
        -11    1    4    4    0    0  0.29343649294E+02  0.41363150845E+02  0.40993393204E+02  0.65210568838E+02  0.00000000000E+00 0. -1.
         11    1    4    4    0    0 -0.48222463390E+02 -0.14917824913E+01  0.14496760570E+02  0.50376457373E+02  0.00000000000E+00 0.  1.
</event>
<event>
 8    1  0.6945825E-009  0.1200821E+03  0.7561462E-02  0.1242962E+00
         -2   -1    0    0    0  501 -0.00000000000E+00  0.00000000000E+00  0.15802476607E+02  0.15802476607E+02  0.00000000000E+00 0.  1.
          2   -1    0    0  501    0  0.00000000000E+00 -0.00000000000E+00 -0.99996534240E+03  0.99996534240E+03  0.00000000000E+00 0. -1.
         25    2    1    2    0    0  0.46508500721E+02  0.33837962497E+02 -0.64187248106E+03  0.65647230643E+03  0.12509020274E+03 0.  0.
         23    2    1    2    0    0 -0.46508500721E+02 -0.33837962497E+02 -0.34229038473E+03  0.35929551258E+03  0.92857468911E+02 0.  0.
          5    1    3    3  502    0 -0.18354143368E+02  0.58664756955E+02 -0.40267211263E+03  0.40735823421E+03  0.41800000000E+01 0.  1.
         -5    1    3    3    0  502  0.64862644089E+02 -0.24826794458E+02 -0.23920036842E+03  0.24911407222E+03  0.41800000000E+01 0.  1.
        -11    1    4    4    0    0 -0.17657673989E+02 -0.64500710989E+02 -0.19801319770E+03  0.20900086515E+03  0.00000000000E+00 0. -1.
         11    1    4    4    0    0 -0.28850826732E+02  0.30662748492E+02 -0.14427718703E+03  0.15029464743E+03  0.00000000000E+00 0.  1.
</event>
<event>
 8    1  0.6945825E-009  0.2067296E+03  0.7561462E-02  0.1144182E+00
         -2   -1    0    0    0  501 -0.00000000000E+00  0.00000000000E+00  0.75964544887E+02  0.75964544887E+02  0.00000000000E+00 0. -1.
          2   -1    0    0  501    0  0.00000000000E+00 -0.00000000000E+00 -0.75437225364E+03  0.75437225364E+03  0.00000000000E+00 0.  1.
         25    2    1    2    0    0 -0.11999921033E+03 -0.14338381786E+03 -0.17174681233E+03  0.28302497588E+03  0.12508972669E+03 0.  0.
         23    2    1    2    0    0  0.11999921033E+03  0.14338381786E+03 -0.50666089642E+03  0.54731182264E+03  0.88804490545E+02 0.  0.
          5    1    3    3  502    0 -0.24691610590E+01  0.11222703713E+02  0.10907408422E+02  0.16385658164E+02  0.41800000000E+01 0.  1.
         -5    1    3    3    0  502 -0.11753004927E+03 -0.15460652157E+03 -0.18265422075E+03  0.26663931772E+03  0.41800000000E+01 0.  1.
        -11    1    4    4    0    0  0.17480925067E+01  0.65189464231E+02 -0.16227197425E+03  0.17488543593E+03  0.00000000000E+00 0.  1.
         11    1    4    4    0    0  0.11825111782E+03  0.78194353626E+02 -0.34438892217E+03  0.37242638671E+03  0.00000000000E+00 0. -1.
</event>
<event>
 8    1  0.6945825E-009  0.1028018E+03  0.7561462E-02  0.1274512E+00
          1   -1    0    0  501    0  0.00000000000E+00  0.00000000000E+00  0.85579421824E+02  0.85579421824E+02  0.00000000000E+00 0. -1.
         -1   -1    0    0    0  501 -0.00000000000E+00 -0.00000000000E+00 -0.17194729651E+03  0.17194729651E+03  0.00000000000E+00 0.  1.
         25    2    1    2    0    0  0.48393989840E+02 -0.82906013152E+01 -0.74692332044E+02  0.15374552806E+03  0.12509208851E+03 0.  0.
         23    2    1    2    0    0 -0.48393989840E+02  0.82906013152E+01 -0.11675542638E+02  0.10378119027E+03  0.90683542254E+02 0.  0.
          5    1    3    3  502    0  0.75938315758E+02 -0.18700722541E+02 -0.90810054914E+02  0.11991781893E+03  0.41800000000E+01 0. -1.
         -5    1    3    3    0  502 -0.27544325918E+02  0.10410121226E+02  0.16117722870E+02  0.33827709126E+02  0.41800000000E+01 0. -1.
        -11    1    4    4    0    0 -0.14904348436E+02  0.45265996093E+02  0.11113492356E+02  0.48935260467E+02  0.00000000000E+00 0.  1.
         11    1    4    4    0    0 -0.33489641404E+02 -0.36975394778E+02 -0.22789034993E+02  0.54845929806E+02  0.00000000000E+00 0. -1.
</event>
<event>
 8    1  0.6945825E-009  0.1017127E+03  0.7561462E-02  0.1276735E+00
         -2   -1    0    0    0  501 -0.00000000000E+00  0.00000000000E+00  0.19764477639E+02  0.19764477639E+02  0.00000000000E+00 0.  1.
          2   -1    0    0  501    0  0.00000000000E+00 -0.00000000000E+00 -0.11730914331E+04  0.11730914331E+04  0.00000000000E+00 0. -1.
         25    2    1    2    0    0  0.53493435321E+01 -0.65489762216E+02 -0.95143878282E+03  0.96187315903E+03  0.12508673863E+03 0.  0.
         23    2    1    2    0    0 -0.53493435321E+01  0.65489762216E+02 -0.20188817264E+03  0.23098275171E+03  0.90976221633E+02 0.  0.
          5    1    3    3  502    0  0.10176776093E+02 -0.80233018115E+02 -0.31538396458E+03  0.32561545031E+03  0.41800000000E+01 0. -1.
         -5    1    3    3    0  502 -0.48274325613E+01  0.14743255899E+02 -0.63605481824E+03  0.63625770872E+03  0.41800000000E+01 0. -1.
        -11    1    4    4    0    0 -0.19482778027E+02  0.82206745062E+02 -0.18485451875E+03  0.20324546902E+03  0.00000000000E+00 0. -1.
         11    1    4    4    0    0  0.14133434495E+02 -0.16716982846E+02 -0.17033653884E+02  0.27737282685E+02  0.00000000000E+00 0.  1.
</event>
<event>
 8    1  0.6945825E-009  0.1209461E+03  0.7561462E-02  0.1241544E+00
          2   -1    0    0  501    0  0.00000000000E+00  0.00000000000E+00  0.35969766597E+03  0.35969766597E+03  0.00000000000E+00 0. -1.
         -2   -1    0    0    0  501 -0.00000000000E+00 -0.00000000000E+00 -0.56918816050E+02  0.56918816050E+02  0.00000000000E+00 0.  1.
         25    2    1    2    0    0  0.56595283375E+01  0.91906877925E+02  0.19180272806E+03  0.24680617194E+03  0.12508435372E+03 0.  0.
         23    2    1    2    0    0 -0.56595283375E+01 -0.91906877925E+02  0.11097612186E+03  0.16981031008E+03  0.89671273641E+02 0.  0.
          5    1    3    3  502    0  0.56755447490E+02  0.35532780104E+02  0.13825419117E+03  0.15367320215E+03  0.41800000000E+01 0.  1.
         -5    1    3    3    0  502 -0.51095919152E+02  0.56374097821E+02  0.53548536887E+02  0.93132969790E+02  0.41800000000E+01 0.  1.
        -11    1    4    4    0    0 -0.20407818094E+02 -0.44556745126E+02  0.83097795509E+00  0.49015029327E+02  0.00000000000E+00 0.  1.
         11    1    4    4    0    0  0.14748289757E+02 -0.47350132799E+02  0.11014514391E+03  0.12079528076E+03  0.00000000000E+00 0. -1.
</event>
<event>
 8    1  0.6945825E-009  0.1143925E+03  0.7561462E-02  0.1252645E+00
          1   -1    0    0  501    0  0.00000000000E+00  0.00000000000E+00  0.23754108890E+03  0.23754108890E+03  0.00000000000E+00 0. -1.
         -1   -1    0    0    0  501 -0.00000000000E+00 -0.00000000000E+00 -0.58157985845E+02  0.58157985845E+02  0.00000000000E+00 0.  1.
         25    2    1    2    0    0 -0.33300447409E+02 -0.21746040472E+02  0.12709221750E+03  0.18270816511E+03  0.12509209318E+03 0.  0.
         23    2    1    2    0    0  0.33300447409E+02  0.21746040472E+02  0.52290885549E+02  0.11299090963E+03  0.91928226748E+02 0.  0.
          5    1    3    3  502    0  0.43342511727E+02 -0.29163878052E+02  0.37182549747E+02  0.64258225244E+02  0.41800000000E+01 0. -1.
         -5    1    3    3    0  502 -0.76642959136E+02  0.74178375795E+01  0.89909667755E+02  0.11844993987E+03  0.41800000000E+01 0. -1.
        -11    1    4    4    0    0  0.63158372514E+02  0.27448506745E+02  0.29118482095E+02  0.74768218788E+02  0.00000000000E+00 0.  1.
         11    1    4    4    0    0 -0.29857925105E+02 -0.57024662732E+01  0.23172403455E+02  0.38222690840E+02  0.00000000000E+00 0. -1.
</event>
<event>
 8    1  0.6945825E-009  0.7638512E+02  0.7561462E-02  0.1339635E+00
          2   -1    0    0  501    0  0.00000000000E+00  0.00000000000E+00  0.12021772894E+03  0.12021772894E+03  0.00000000000E+00 0.  1.
         -2   -1    0    0    0  501 -0.00000000000E+00 -0.00000000000E+00 -0.11464151998E+03  0.11464151998E+03  0.00000000000E+00 0. -1.
         25    2    1    2    0    0 -0.27625603637E+02 -0.24278111880E+02 -0.22697277635E+02  0.13234269601E+03  0.12508725787E+03 0.  0.
         23    2    1    2    0    0  0.27625603637E+02  0.24278111880E+02  0.28273486595E+02  0.10251655291E+03  0.91420199539E+02 0.  0.
          5    1    3    3  502    0  0.34071579765E+02 -0.81777195276E+01  0.32447294454E+02  0.47937949077E+02  0.41800000000E+01 0.  1.
         -5    1    3    3    0  502 -0.61697183402E+02 -0.16100392352E+02 -0.55144572089E+02  0.84404746931E+02  0.41800000000E+01 0.  1.
        -11    1    4    4    0    0  0.31539719403E+02  0.27033057902E+01  0.57703555675E+02  0.65816123403E+02  0.00000000000E+00 0.  1.
         11    1    4    4    0    0 -0.39141157665E+01  0.21574806090E+02 -0.29430069080E+02  0.36700429508E+02  0.00000000000E+00 0. -1.
</event>
<event>
 8    1  0.6945825E-009  0.1257438E+03  0.7561462E-02  0.1233911E+00
         -1   -1    0    0    0  501 -0.00000000000E+00  0.00000000000E+00  0.41710848145E+03  0.41710848145E+03  0.00000000000E+00 0.  1.
          1   -1    0    0  501    0  0.00000000000E+00 -0.00000000000E+00 -0.53677833763E+02  0.53677833763E+02  0.00000000000E+00 0. -1.
         25    2    1    2    0    0 -0.21318234980E+02 -0.68453241105E+02  0.30833116444E+03  0.34037658520E+03  0.12509116446E+03 0.  0.
         23    2    1    2    0    0  0.21318234980E+02  0.68453241105E+02  0.55099483245E+02  0.13040973001E+03  0.93970374413E+02 0.  0.
          5    1    3    3  502    0 -0.68997081354E+02 -0.32473761866E+02  0.22613763667E+03  0.23868566267E+03  0.41800000000E+01 0.  1.
         -5    1    3    3    0  502  0.47678846374E+02 -0.35979479239E+02  0.82193527775E+02  0.10169092254E+03  0.41800000000E+01 0.  1.
        -11    1    4    4    0    0  0.18990752937E+02 -0.19520697275E+02  0.26175216216E+02  0.37773645087E+02  0.00000000000E+00 0.  1.
         11    1    4    4    0    0  0.23274820432E+01  0.87973938380E+02  0.28924267028E+02  0.92636084924E+02  0.00000000000E+00 0. -1.
</event>
<event>
 8    1  0.6945825E-009  0.1081485E+03  0.7561462E-02  0.1264038E+00
         -4   -1    0    0    0  501 -0.00000000000E+00  0.00000000000E+00  0.67262666140E+02  0.67262666140E+02  0.00000000000E+00 0.  1.
          4   -1    0    0  501    0  0.00000000000E+00 -0.00000000000E+00 -0.19525325170E+03  0.19525325170E+03  0.00000000000E+00 0. -1.
         25    2    1    2    0    0 -0.12142888932E+02  0.17908750463E+02 -0.10828382277E+03  0.16685795127E+03  0.12509203226E+03 0.  0.
         23    2    1    2    0    0  0.12142888932E+02 -0.17908750463E+02 -0.19706762794E+02  0.95657966569E+02  0.91070944727E+02 0.  0.
          5    1    3    3  502    0  0.27358168799E+02 -0.42314885279E+02 -0.66326180949E+02  0.83400561123E+02  0.41800000000E+01 0.  1.
         -5    1    3    3    0  502 -0.39501057730E+02  0.60223635742E+02 -0.41957641821E+02  0.83457390152E+02  0.41800000000E+01 0.  1.
        -11    1    4    4    0    0 -0.30848526986E+02 -0.35596708782E+02 -0.90781118122E+01  0.47970505598E+02  0.00000000000E+00 0.  1.
         11    1    4    4    0    0  0.42991415918E+02  0.17687958319E+02 -0.10628650981E+02  0.47687460970E+02  0.00000000000E+00 0. -1.
</event>
<event>
 8    1  0.6945825E-009  0.1230496E+03  0.7561462E-02  0.1238149E+00
          1   -1    0    0  501    0  0.00000000000E+00  0.00000000000E+00  0.20561637848E+03  0.20561637848E+03  0.00000000000E+00 0. -1.
         -1   -1    0    0    0  501 -0.00000000000E+00 -0.00000000000E+00 -0.92980005552E+02  0.92980005552E+02  0.00000000000E+00 0.  1.
         25    2    1    2    0    0  0.84536607664E+02 -0.39803487732E+01  0.50089124609E+02  0.15912004317E+03  0.12509191230E+03 0.  0.
         23    2    1    2    0    0 -0.84536607664E+02  0.39803487732E+01  0.62547248322E+02  0.13947634086E+03  0.91538025848E+02 0.  0.
          5    1    3    3  502    0  0.54058934658E+02  0.47505135609E+02  0.65277433123E+02  0.97250820052E+02  0.41800000000E+01 0.  1.
         -5    1    3    3    0  502  0.30477673006E+02 -0.51485484382E+02 -0.15188308514E+02  0.61869223120E+02  0.41800000000E+01 0.  1.
        -11    1    4    4    0    0  0.48218175204E-01  0.26503648489E+02 -0.73013334673E+01  0.27491001776E+02  0.00000000000E+00 0.  1.
         11    1    4    4    0    0 -0.84584825839E+02 -0.22523299716E+02  0.69848581789E+02  0.11198533909E+03  0.00000000000E+00 0. -1.
</event>
<event>
 8    1  0.6945825E-009  0.7224565E+02  0.7561462E-02  0.1352619E+00
          1   -1    0    0  501    0  0.00000000000E+00  0.00000000000E+00  0.21162002731E+03  0.21162002731E+03  0.00000000000E+00 0. -1.
         -1   -1    0    0    0  501 -0.00000000000E+00 -0.00000000000E+00 -0.65959474259E+02  0.65959474259E+02  0.00000000000E+00 0.  1.
         25    2    1    2    0    0 -0.54907797774E+01 -0.28874762386E+02  0.75493034471E+02  0.14902708641E+03  0.12508386652E+03 0.  0.
         23    2    1    2    0    0  0.54907797774E+01  0.28874762386E+02  0.70167518581E+02  0.12855241516E+03  0.10362597268E+03 0.  0.
          5    1    3    3  502    0 -0.25469515942E+02 -0.43239909584E+02  0.10129905820E+03  0.11312540659E+03  0.41800000000E+01 0.  1.
         -5    1    3    3    0  502  0.19978736165E+02  0.14365147198E+02 -0.25806023733E+02  0.35901679817E+02  0.41800000000E+01 0.  1.
        -11    1    4    4    0    0  0.22526074760E+02  0.42006558943E+02  0.88350013568E+02  0.10038774794E+03  0.00000000000E+00 0. -1.
         11    1    4    4    0    0 -0.17035294982E+02 -0.13131796557E+02 -0.18182494987E+02  0.28164667225E+02  0.00000000000E+00 0.  1.
</event>
<event>
 8    1  0.6945825E-009  0.1326805E+03  0.7561462E-02  0.1223532E+00
          1   -1    0    0  501    0  0.00000000000E+00  0.00000000000E+00  0.32045293002E+03  0.32045293002E+03  0.00000000000E+00 0. -1.
         -1   -1    0    0    0  501 -0.00000000000E+00 -0.00000000000E+00 -0.63000642785E+02  0.63000642785E+02  0.00000000000E+00 0.  1.
         25    2    1    2    0    0  0.86552552595E+02  0.27287843182E+02  0.10806139325E+03  0.18857318568E+03  0.12508641372E+03 0.  0.
         23    2    1    2    0    0 -0.86552552595E+02 -0.27287843182E+02  0.14939089398E+03  0.19488038713E+03  0.86167020002E+02 0.  0.
          5    1    3    3  502    0 -0.94024243585E+00  0.58974824130E+02  0.57989394719E+02  0.82820023164E+02  0.41800000000E+01 0.  1.
         -5    1    3    3    0  502  0.87492795031E+02 -0.31686980949E+02  0.50071998533E+02  0.10575316251E+03  0.41800000000E+01 0.  1.
        -11    1    4    4    0    0  0.18547968906E+01 -0.24563644841E+02  0.43750909836E+01  0.25019079529E+02  0.00000000000E+00 0.  1.
         11    1    4    4    0    0 -0.88407349486E+02 -0.27241983405E+01  0.14501580300E+03  0.16986130760E+03  0.00000000000E+00 0. -1.
</event>
<event>
 8    1  0.6945825E-009  0.1647861E+03  0.7561462E-02  0.1183397E+00
          2   -1    0    0  501    0  0.00000000000E+00  0.00000000000E+00  0.12491131946E+04  0.12491131946E+04  0.00000000000E+00 0. -1.
         -2   -1    0    0    0  501 -0.00000000000E+00 -0.00000000000E+00 -0.25649475288E+02  0.25649475288E+02  0.00000000000E+00 0.  1.
         25    2    1    2    0    0  0.12783483750E+03 -0.21354347541E+02  0.88407200852E+03  0.90223546927E+03  0.12509105451E+03 0.  0.
         23    2    1    2    0    0 -0.12783483750E+03  0.21354347541E+02  0.33939171077E+03  0.37252720060E+03  0.82413761032E+02 0.  0.
          5    1    3    3  502    0  0.76007773375E+02  0.48023776877E+02  0.53748775982E+03  0.54497158560E+03  0.41800000000E+01 0.  1.
         -5    1    3    3    0  502  0.51827064129E+02 -0.69378124418E+02  0.34658424870E+03  0.35726388367E+03  0.41800000000E+01 0.  1.
        -11    1    4    4    0    0 -0.55735776660E+01 -0.22346095654E+02  0.65211400591E+02  0.69158799339E+02  0.00000000000E+00 0. -1.
         11    1    4    4    0    0 -0.12226125984E+03  0.43700443195E+02  0.27418031018E+03  0.30336840126E+03  0.00000000000E+00 0.  1.
</event>
<event>
 8    1  0.6945825E-009  0.9565325E+02  0.7561462E-02  0.1289712E+00
          1   -1    0    0  501    0  0.00000000000E+00  0.00000000000E+00  0.82827813485E+03  0.82827813485E+03  0.00000000000E+00 0. -1.
         -1   -1    0    0    0  501 -0.00000000000E+00 -0.00000000000E+00 -0.24581178639E+02  0.24581178639E+02  0.00000000000E+00 0.  1.
         25    2    1    2    0    0 -0.55963767433E+01  0.27758584165E+02  0.70827049281E+03  0.71978893043E+03  0.12508858843E+03 0.  0.
         23    2    1    2    0    0  0.55963767433E+01 -0.27758584165E+02  0.95426463407E+02  0.13307038307E+03  0.88315675298E+02 0.  0.
          5    1    3    3  502    0 -0.63120879239E+02  0.11241420912E+02  0.45474748761E+03  0.45926393809E+03  0.41800000000E+01 0. -1.
         -5    1    3    3    0  502  0.57524502496E+02  0.16517163253E+02  0.25352300519E+03  0.26052499234E+03  0.41800000000E+01 0. -1.
        -11    1    4    4    0    0 -0.35767913268E+01 -0.46266838638E+02  0.10144479588E+03  0.11155474174E+03  0.00000000000E+00 0. -1.
         11    1    4    4    0    0  0.91731680700E+01  0.18508254473E+02 -0.60183324685E+01  0.21515641329E+02  0.00000000000E+00 0.  1.
</event>
<event>
 8    1  0.6945825E-009  0.1450286E+03  0.7561462E-02  0.1206718E+00
          2   -1    0    0  501    0  0.00000000000E+00  0.00000000000E+00  0.23318925016E+03  0.23318925016E+03  0.00000000000E+00 0. -1.
         -2   -1    0    0    0  501 -0.00000000000E+00 -0.00000000000E+00 -0.15162505422E+03  0.15162505422E+03  0.00000000000E+00 0.  1.
         25    2    1    2    0    0 -0.58885472501E+02  0.11719593451E+03 -0.39101117226E+02  0.18541467479E+03  0.12508924143E+03 0.  0.
         23    2    1    2    0    0  0.58885472501E+02 -0.11719593451E+03  0.12066531317E+03  0.19939962959E+03  0.89429908528E+02 0.  0.
          5    1    3    3  502    0  0.11854269652E+01 -0.97139150226E+01 -0.43591886687E+02  0.44871932955E+02  0.41800000000E+01 0. -1.
         -5    1    3    3    0  502 -0.60070899466E+02  0.12690984953E+03  0.44907694611E+01  0.14054274183E+03  0.41800000000E+01 0. -1.
        -11    1    4    4    0    0  0.44285936278E+02 -0.11615178643E+03  0.13167655942E+03  0.18108340052E+03  0.00000000000E+00 0. -1.
         11    1    4    4    0    0  0.14599536223E+02 -0.10441480821E+01 -0.11011246253E+02  0.18316229066E+02  0.00000000000E+00 0.  1.
</event>
<event>
 8    1  0.6945825E-009  0.1113524E+03  0.7561462E-02  0.1258086E+00
          2   -1    0    0  501    0  0.00000000000E+00  0.00000000000E+00  0.34155615321E+03  0.34155615321E+03  0.00000000000E+00 0. -1.
         -2   -1    0    0    0  501 -0.00000000000E+00 -0.00000000000E+00 -0.70290648622E+02  0.70290648622E+02  0.00000000000E+00 0.  1.
         25    2    1    2    0    0  0.82988718383E+00 -0.59513819670E+02  0.27205866556E+03  0.30529626513E+03  0.12508920239E+03 0.  0.
         23    2    1    2    0    0 -0.82988718383E+00  0.59513819670E+02 -0.79316096794E+00  0.10655053670E+03  0.88373097280E+02 0.  0.
          5    1    3    3  502    0  0.93778468145E+00  0.30068103336E+02  0.16726420740E+02  0.34672984139E+02  0.41800000000E+01 0.  1.
         -5    1    3    3    0  502 -0.10789749762E+00 -0.89581923006E+02  0.25533224482E+03  0.27062328099E+03  0.41800000000E+01 0.  1.
        -11    1    4    4    0    0 -0.35946487546E+02  0.29392760929E+01  0.13385962371E+02  0.38470421098E+02  0.00000000000E+00 0. -1.
         11    1    4    4    0    0  0.35116600363E+02  0.56574543577E+02 -0.14179123339E+02  0.68080115604E+02  0.00000000000E+00 0.  1.
</event>
<event>
 8    1  0.6945825E-009  0.1250302E+03  0.7561462E-02  0.1235022E+00
          2   -1    0    0  501    0  0.00000000000E+00  0.00000000000E+00  0.83550243030E+03  0.83550243030E+03  0.00000000000E+00 0. -1.
         -2   -1    0    0    0  501 -0.00000000000E+00 -0.00000000000E+00 -0.29930402544E+02  0.29930402544E+02  0.00000000000E+00 0.  1.
         25    2    1    2    0    0 -0.78754359581E+02  0.86930416966E+01  0.68025963780E+03  0.69618845336E+03  0.12508944653E+03 0.  0.
         23    2    1    2    0    0  0.78754359581E+02 -0.86930416966E+01  0.12531238995E+03  0.16924437949E+03  0.81625037739E+02 0.  0.
          5    1    3    3  502    0 -0.99001825717E+02  0.42992807777E+02  0.49943435540E+03  0.51098130178E+03  0.41800000000E+01 0.  1.
         -5    1    3    3    0  502  0.20247466135E+02 -0.34299766080E+02  0.18082528240E+03  0.18520715157E+03  0.41800000000E+01 0.  1.
        -11    1    4    4    0    0  0.79420232837E+01  0.23061201974E+02  0.69492385008E+02  0.73648396754E+02  0.00000000000E+00 0. -1.
         11    1    4    4    0    0  0.70812336298E+02 -0.31754243671E+02  0.55820004946E+02  0.95595982736E+02  0.00000000000E+00 0.  1.
</event>
<event>
 8    1  0.6945825E-009  0.1175475E+03  0.7561462E-02  0.1247199E+00
          4   -1    0    0  501    0  0.00000000000E+00  0.00000000000E+00  0.37901798966E+03  0.37901798966E+03  0.00000000000E+00 0. -1.
         -4   -1    0    0    0  501 -0.00000000000E+00 -0.00000000000E+00 -0.52243531764E+02  0.52243531764E+02  0.00000000000E+00 0.  1.
         25    2    1    2    0    0 -0.46835012283E+02  0.69757186610E+02  0.22952358299E+03  0.27456964560E+03  0.12509129337E+03 0.  0.
         23    2    1    2    0    0  0.46835012283E+02 -0.69757186610E+02  0.97250874910E+02  0.15669187583E+03  0.89638316694E+02 0.  0.
          5    1    3    3  502    0  0.11282221572E+02 -0.14192382702E+02  0.13202686638E+03  0.13333145952E+03  0.41800000000E+01 0.  1.
         -5    1    3    3    0  502 -0.58117233855E+02  0.83949569312E+02  0.97496716604E+02  0.14123818608E+03  0.41800000000E+01 0.  1.
        -11    1    4    4    0    0 -0.12251732637E+02 -0.50785041952E+02  0.16370842746E+02  0.54746962755E+02  0.00000000000E+00 0.  1.
         11    1    4    4    0    0  0.59086744920E+02 -0.18972144658E+02  0.80880032164E+02  0.10194491307E+03  0.00000000000E+00 0. -1.
</event>
<event>
 8    1  0.6945825E-009  0.1082248E+03  0.7561462E-02  0.1263893E+00
         -4   -1    0    0    0  501 -0.00000000000E+00  0.00000000000E+00  0.22735912877E+03  0.22735912877E+03  0.00000000000E+00 0.  1.
          4   -1    0    0  501    0  0.00000000000E+00 -0.00000000000E+00 -0.16375127030E+03  0.16375127030E+03  0.00000000000E+00 0. -1.
         25    2    1    2    0    0  0.34123886612E+02 -0.14952617545E+02  0.19317771128E+03  0.23313738481E+03  0.12508953454E+03 0.  0.
         23    2    1    2    0    0 -0.34123886612E+02  0.14952617545E+02 -0.12956985280E+03  0.15797301427E+03  0.82335326999E+02 0.  0.
          5    1    3    3  502    0  0.70809610444E+02 -0.40066361364E+02  0.15170282489E+03  0.17219330337E+03  0.41800000000E+01 0. -1.
         -5    1    3    3    0  502 -0.36685723833E+02  0.25113743819E+02  0.41474886387E+02  0.60944081440E+02  0.41800000000E+01 0. -1.
        -11    1    4    4    0    0 -0.61493031373E+02  0.74010447601E+01 -0.86545037209E+02  0.10642467682E+03  0.00000000000E+00 0. -1.
         11    1    4    4    0    0  0.27369144761E+02  0.75515727845E+01 -0.43024815596E+02  0.51548337447E+02  0.00000000000E+00 0.  1.
</event>
<event>
 8    1  0.6945825E-009  0.1702233E+03  0.7561462E-02  0.1177615E+00
         -2   -1    0    0    0  501 -0.00000000000E+00  0.00000000000E+00  0.26085805509E+02  0.26085805509E+02  0.00000000000E+00 0.  1.
          2   -1    0    0  501    0  0.00000000000E+00 -0.00000000000E+00 -0.13907733880E+04  0.13907733880E+04  0.00000000000E+00 0. -1.
         25    2    1    2    0    0  0.43965373817E+02  0.12895850781E+03 -0.99933312297E+03  0.10163043965E+04  0.12507871453E+03 0.  0.
         23    2    1    2    0    0 -0.43965373817E+02 -0.12895850781E+03 -0.36535445948E+03  0.40055479698E+03  0.91635219699E+02 0.  0.
          5    1    3    3  502    0  0.73313912413E+02  0.12779173275E+03 -0.69080093410E+03  0.70634910608E+03  0.41800000000E+01 0. -1.
         -5    1    3    3    0  502 -0.29348538596E+02  0.11667750652E+01 -0.30853218888E+03  0.30995529041E+03  0.41800000000E+01 0. -1.
        -11    1    4    4    0    0 -0.29692774126E+02  0.37399188022E+01 -0.52681474547E+02  0.60588658909E+02  0.00000000000E+00 0.  1.
         11    1    4    4    0    0 -0.14272599692E+02 -0.13269842661E+03 -0.31267298493E+03  0.33996613807E+03  0.00000000000E+00 0. -1.
</event>
<event>
 8    1  0.6945825E-009  0.1516502E+03  0.7561462E-02  0.1198460E+00
         -1   -1    0    0    0  501 -0.00000000000E+00  0.00000000000E+00  0.11744158066E+03  0.11744158066E+03  0.00000000000E+00 0.  1.
          1   -1    0    0  501    0  0.00000000000E+00 -0.00000000000E+00 -0.26193354064E+03  0.26193354064E+03  0.00000000000E+00 0. -1.
         25    2    1    2    0    0  0.81475326506E+02 -0.10435765903E+03 -0.34766463057E+02  0.18543437677E+03  0.12509377006E+03 0.  0.
         23    2    1    2    0    0 -0.81475326506E+02  0.10435765903E+03 -0.10972549693E+03  0.19394074453E+03  0.89691570858E+02 0.  0.
          5    1    3    3  502    0  0.71754246146E+02 -0.45106428726E+02 -0.74824100985E+02  0.11313434598E+03  0.41800000000E+01 0. -1.
         -5    1    3    3    0  502  0.97210803603E+01 -0.59251230307E+02  0.40057637928E+02  0.72300030793E+02  0.41800000000E+01 0. -1.
        -11    1    4    4    0    0 -0.94239496160E+02  0.59115517660E+02 -0.63901712704E+02  0.12829324203E+03  0.00000000000E+00 0.  1.
         11    1    4    4    0    0  0.12764169654E+02  0.45242141373E+02 -0.45823784225E+02  0.65647502494E+02  0.00000000000E+00 0. -1.
</event>
<event>
 8    1  0.6945825E-009  0.1919822E+03  0.7561462E-02  0.1156686E+00
          2   -1    0    0  501    0  0.00000000000E+00  0.00000000000E+00  0.40035494081E+02  0.40035494081E+02  0.00000000000E+00 0. -1.
         -2   -1    0    0    0  501 -0.00000000000E+00 -0.00000000000E+00 -0.11528806198E+04  0.11528806198E+04  0.00000000000E+00 0.  1.
         25    2    1    2    0    0  0.10216082730E+03  0.15256050582E+03 -0.63895731957E+03  0.67647775208E+03  0.12507657756E+03 0.  0.
         23    2    1    2    0    0 -0.10216082730E+03 -0.15256050582E+03 -0.47388780616E+03  0.51643836182E+03  0.91800796053E+02 0.  0.
          5    1    3    3  502    0  0.58388925213E+02  0.14288399790E+03 -0.59040533624E+03  0.61026308827E+03  0.41800000000E+01 0. -1.
         -5    1    3    3    0  502  0.43771902090E+02  0.96765079153E+01 -0.48551983331E+02  0.66214663809E+02  0.41800000000E+01 0. -1.
        -11    1    4    4    0    0 -0.87111010722E+02 -0.11658984457E+03 -0.25080535654E+03  0.28997387281E+03  0.00000000000E+00 0. -1.
         11    1    4    4    0    0 -0.15049816580E+02 -0.35970661252E+02 -0.22308244963E+03  0.22646448901E+03  0.00000000000E+00 0.  1.
</event>
<event>
 8    1  0.6945825E-009  0.1088656E+03  0.7561462E-02  0.1262685E+00
         -2   -1    0    0    0  501 -0.00000000000E+00  0.00000000000E+00  0.22790664088E+02  0.22790664088E+02  0.00000000000E+00 0. -1.
          2   -1    0    0  501    0  0.00000000000E+00 -0.00000000000E+00 -0.62597361563E+03  0.62597361563E+03  0.00000000000E+00 0.  1.
         25    2    1    2    0    0 -0.42459167071E+02 -0.20749972179E+02 -0.38995758882E+03  0.41224798656E+03  0.12509252228E+03 0.  0.
         23    2    1    2    0    0  0.42459167071E+02  0.20749972179E+02 -0.21322536272E+03  0.23651629316E+03  0.90783034804E+02 0.  0.
          5    1    3    3  502    0  0.32643892232E+02 -0.40393179426E+02 -0.11031876149E+03  0.12200382855E+03  0.41800000000E+01 0. -1.
         -5    1    3    3    0  502 -0.75103059303E+02  0.19643207247E+02 -0.27963882733E+03  0.29024415801E+03  0.41800000000E+01 0. -1.
        -11    1    4    4    0    0  0.63477891068E+02  0.99415531791E+01 -0.19857029934E+03  0.20870659049E+03  0.00000000000E+00 0.  1.
         11    1    4    4    0    0 -0.21018723998E+02  0.10808419000E+02 -0.14655063379E+02  0.27809702667E+02  0.00000000000E+00 0. -1.
</event>
<event>
 8    1  0.6945825E-009  0.8839945E+02  0.7561462E-02  0.1306775E+00
          2   -1    0    0  501    0  0.00000000000E+00  0.00000000000E+00  0.25487145317E+03  0.25487145317E+03  0.00000000000E+00 0. -1.
         -2   -1    0    0    0  501 -0.00000000000E+00 -0.00000000000E+00 -0.59091620841E+02  0.59091620841E+02  0.00000000000E+00 0.  1.
         25    2    1    2    0    0  0.31739070292E+02 -0.38747583765E+02  0.73271136531E+02  0.15338166557E+03  0.12509409281E+03 0.  0.
         23    2    1    2    0    0 -0.31739070292E+02  0.38747583765E+02  0.12250869580E+03  0.16058140844E+03  0.90935495595E+02 0.  0.
          5    1    3    3  502    0  0.42109279471E+02 -0.11604952754E+02  0.10278230297E+03  0.11175661301E+03  0.41800000000E+01 0.  1.
         -5    1    3    3    0  502 -0.10370209179E+02 -0.27142631011E+02 -0.29511166441E+02  0.41625052569E+02  0.41800000000E+01 0.  1.
        -11    1    4    4    0    0 -0.17029080339E+02  0.68387325123E+02  0.78040587607E+02  0.10515297965E+03  0.00000000000E+00 0.  1.
         11    1    4    4    0    0 -0.14709989954E+02 -0.29639741357E+02  0.44468108192E+02  0.55428428792E+02  0.00000000000E+00 0. -1.
</event>
<event>
 8    1  0.6945825E-009  0.1455833E+03  0.7561462E-02  0.1206008E+00
         -1   -1    0    0    0  501 -0.00000000000E+00  0.00000000000E+00  0.20265584260E+02  0.20265584260E+02  0.00000000000E+00 0.  1.
          1   -1    0    0  501    0  0.00000000000E+00 -0.00000000000E+00 -0.11003843611E+04  0.11003843611E+04  0.00000000000E+00 0. -1.
         25    2    1    2    0    0 -0.12830740101E+02 -0.96817808437E+02 -0.49448690801E+03  0.51932956248E+03  0.12509027281E+03 0.  0.
         23    2    1    2    0    0  0.12830740101E+02  0.96817808437E+02 -0.58563186886E+03  0.60132038290E+03  0.95305829589E+02 0.  0.
          5    1    3    3  502    0  0.49849136140E+02 -0.15920970477E+02 -0.11783374035E+03  0.12899874589E+03  0.41800000000E+01 0.  1.
         -5    1    3    3    0  502 -0.62679876241E+02 -0.80896837959E+02 -0.37665316766E+03  0.39033081659E+03  0.41800000000E+01 0.  1.
        -11    1    4    4    0    0 -0.36955359039E+02  0.71285816743E+02 -0.32841124143E+03  0.33808476707E+03  0.00000000000E+00 0.  1.
         11    1    4    4    0    0  0.49786099140E+02  0.25531991693E+02 -0.25722062743E+03  0.26323561583E+03  0.00000000000E+00 0. -1.
</event>
<event>
 8    1  0.6945825E-009  0.1123251E+03  0.7561462E-02  0.1256324E+00
         -1   -1    0    0    0  501 -0.00000000000E+00  0.00000000000E+00  0.77167291130E+03  0.77167291130E+03  0.00000000000E+00 0.  1.
          1   -1    0    0  501    0  0.00000000000E+00 -0.00000000000E+00 -0.17321382358E+02  0.17321382358E+02  0.00000000000E+00 0. -1.
         25    2    1    2    0    0  0.37204264991E+02 -0.69130231959E+01  0.39926656576E+03  0.42011133905E+03  0.12509116453E+03 0.  0.
         23    2    1    2    0    0 -0.37204264991E+02  0.69130231959E+01  0.35508496318E+03  0.36888295461E+03  0.92505977633E+02 0.  0.
          5    1    3    3  502    0 -0.17387033115E+02  0.48635241306E+02  0.13613444001E+03  0.14566315174E+03  0.41800000000E+01 0. -1.
         -5    1    3    3    0  502  0.54591298106E+02 -0.55548264502E+02  0.26313212575E+03  0.27444818731E+03  0.41800000000E+01 0. -1.
        -11    1    4    4    0    0  0.14954095932E+02 -0.28227860254E+02  0.70017425991E+02  0.76960230132E+02  0.00000000000E+00 0.  1.
         11    1    4    4    0    0 -0.52158360923E+02  0.35140883450E+02  0.28506753719E+03  0.29192272447E+03  0.00000000000E+00 0. -1.
</event>
<event>
 8    1  0.6945825E-009  0.1466672E+03  0.7561462E-02  0.1204629E+00
         -2   -1    0    0    0  501 -0.00000000000E+00  0.00000000000E+00  0.20553103919E+03  0.20553103919E+03  0.00000000000E+00 0.  1.
          2   -1    0    0  501    0  0.00000000000E+00 -0.00000000000E+00 -0.43049705504E+03  0.43049705504E+03  0.00000000000E+00 0. -1.
         25    2    1    2    0    0  0.12779006600E+03  0.34189706467E+02  0.14533163341E+03  0.23295461908E+03  0.12508930365E+03 0.  0.
         23    2    1    2    0    0 -0.12779006600E+03 -0.34189706467E+02 -0.37029764926E+03  0.40307347515E+03  0.88592552321E+02 0.  0.
          5    1    3    3  502    0  0.74936690989E+02  0.42650390408E+02  0.94380340579E+01  0.86839578218E+02  0.41800000000E+01 0.  1.
         -5    1    3    3    0  502  0.52853375009E+02 -0.84606839410E+01  0.13589359935E+03  0.14611504086E+03  0.41800000000E+01 0.  1.
        -11    1    4    4    0    0 -0.43022901505E+02  0.25161356491E+02 -0.73941781606E+02  0.89170908829E+02  0.00000000000E+00 0.  1.
         11    1    4    4    0    0 -0.84767164493E+02 -0.59351062958E+02 -0.29635586765E+03  0.31390256632E+03  0.00000000000E+00 0. -1.
</event>
<event>
 8    1  0.6945825E-009  0.1112972E+03  0.7561462E-02  0.1258186E+00
          1   -1    0    0  501    0  0.00000000000E+00  0.00000000000E+00  0.23634648372E+03  0.23634648372E+03  0.00000000000E+00 0. -1.
         -1   -1    0    0    0  501 -0.00000000000E+00 -0.00000000000E+00 -0.61491751064E+02  0.61491751064E+02  0.00000000000E+00 0.  1.
         25    2    1    2    0    0 -0.36081867012E+02 -0.32819214611E+02  0.72200451570E+02  0.15244754874E+03  0.12509335688E+03 0.  0.
         23    2    1    2    0    0  0.36081867012E+02  0.32819214611E+02  0.10265428109E+03  0.14539068604E+03  0.90672753283E+02 0.  0.
          5    1    3    3  502    0 -0.72625827535E+02  0.85222519661E+00  0.11119454000E+02  0.73595867888E+02  0.41800000000E+01 0. -1.
         -5    1    3    3    0  502  0.36543960522E+02 -0.33671439807E+02  0.61080997570E+02  0.78851680854E+02  0.41800000000E+01 0. -1.
        -11    1    4    4    0    0  0.17546413343E+01  0.57607973746E+02  0.75907358106E+02  0.95308364900E+02  0.00000000000E+00 0. -1.
         11    1    4    4    0    0  0.34327225678E+02 -0.24788759135E+02  0.26746922982E+02  0.50082321144E+02  0.00000000000E+00 0.  1.
</event>
<event>
 8    1  0.6945825E-009  0.1368940E+03  0.7561462E-02  0.1217570E+00
          2   -1    0    0  501    0  0.00000000000E+00  0.00000000000E+00  0.39647607439E+03  0.39647607439E+03  0.00000000000E+00 0. -1.
         -2   -1    0    0    0  501 -0.00000000000E+00 -0.00000000000E+00 -0.60029883478E+02  0.60029883478E+02  0.00000000000E+00 0.  1.
         25    2    1    2    0    0 -0.87129358631E+02  0.54109053696E+02  0.20615879090E+03  0.26204643875E+03  0.12509026408E+03 0.  0.
         23    2    1    2    0    0  0.87129358631E+02 -0.54109053696E+02  0.13028740001E+03  0.19445951912E+03  0.10158928658E+03 0.  0.
          5    1    3    3  502    0 -0.83787091223E+01 -0.37918752303E+02  0.66608999667E+02  0.77215709408E+02  0.41800000000E+01 0. -1.
         -5    1    3    3    0  502 -0.78750649509E+02  0.92027805999E+02  0.13954979124E+03  0.18483072934E+03  0.41800000000E+01 0. -1.
        -11    1    4    4    0    0  0.73321473595E+02 -0.18904177349E+02  0.20651348644E+02  0.78484932390E+02  0.00000000000E+00 0.  1.
         11    1    4    4    0    0  0.13807885036E+02 -0.35204876347E+02  0.10963605137E+03  0.11597458673E+03  0.00000000000E+00 0. -1.
</event>
<event>
 8    1  0.6945825E-009  0.1798745E+03  0.7561462E-02  0.1167925E+00
          1   -1    0    0  501    0  0.00000000000E+00  0.00000000000E+00  0.26401622689E+03  0.26401622689E+03  0.00000000000E+00 0. -1.
         -1   -1    0    0    0  501 -0.00000000000E+00 -0.00000000000E+00 -0.16827538150E+03  0.16827538150E+03  0.00000000000E+00 0.  1.
         25    2    1    2    0    0  0.14721852008E+03 -0.73087069014E+02  0.12295224890E+03  0.24036874326E+03  0.12507943443E+03 0.  0.
         23    2    1    2    0    0 -0.14721852008E+03  0.73087069014E+02 -0.27211403517E+02  0.19192286512E+03  0.95283332041E+02 0.  0.
          5    1    3    3  502    0  0.14436013588E+03 -0.88974639034E+02  0.67673055935E+02  0.18262926962E+03  0.41800000000E+01 0.  1.
         -5    1    3    3    0  502  0.28583841978E+01  0.15887570021E+02  0.55279192964E+02  0.57739473640E+02  0.41800000000E+01 0.  1.
        -11    1    4    4    0    0 -0.76751979334E+02  0.68426057837E+02  0.22881521549E+02  0.10534019058E+03  0.00000000000E+00 0. -1.
         11    1    4    4    0    0 -0.70466540747E+02  0.46610111768E+01 -0.50092925066E+02  0.86582674546E+02  0.00000000000E+00 0.  1.
</event>
<event>
 8    1  0.6945825E-009  0.2296830E+03  0.7561462E-02  0.1126863E+00
         -2   -1    0    0    0  501 -0.00000000000E+00  0.00000000000E+00  0.17372677501E+03  0.17372677501E+03  0.00000000000E+00 0.  1.
          2   -1    0    0  501    0  0.00000000000E+00 -0.00000000000E+00 -0.43733614259E+03  0.43733614259E+03  0.00000000000E+00 0. -1.
         25    2    1    2    0    0  0.10124348999E+01  0.22241630301E+03 -0.98651365096E+00  0.25518367879E+03  0.12509076641E+03 0.  0.
         23    2    1    2    0    0 -0.10124348999E+01 -0.22241630301E+03 -0.26262285393E+03  0.35587923881E+03  0.90604814091E+02 0.  0.
          5    1    3    3  502    0  0.74125788047E+01  0.10564110787E+03 -0.62435068653E+02  0.12300650468E+03  0.41800000000E+01 0.  1.
         -5    1    3    3    0  502 -0.64001439048E+01  0.11677519514E+03  0.61448555002E+02  0.13217717411E+03  0.41800000000E+01 0.  1.
        -11    1    4    4    0    0 -0.35093596615E+02 -0.53123561134E+02 -0.44528898619E+02  0.77694890972E+02  0.00000000000E+00 0.  1.
         11    1    4    4    0    0  0.34081161715E+02 -0.16929274188E+03 -0.21809395531E+03  0.27818434783E+03  0.00000000000E+00 0. -1.
</event>
<event>
 8    1  0.6945825E-009  0.1210386E+03  0.7561462E-02  0.1241394E+00
         -4   -1    0    0    0  501 -0.00000000000E+00  0.00000000000E+00  0.86578226501E+03  0.86578226501E+03  0.00000000000E+00 0.  1.
          4   -1    0    0  501    0  0.00000000000E+00 -0.00000000000E+00 -0.25499035137E+02  0.25499035137E+02  0.00000000000E+00 0. -1.
         25    2    1    2    0    0  0.11349156427E+02 -0.72191103995E+02  0.66516249990E+03  0.68075586806E+03  0.12508813603E+03 0.  0.
         23    2    1    2    0    0 -0.11349156427E+02  0.72191103995E+02  0.17512072997E+03  0.21052543209E+03  0.91177456874E+02 0.  0.
          5    1    3    3  502    0 -0.48576334110E+00 -0.10657417765E+03  0.53592327550E+03  0.54643345518E+03  0.41800000000E+01 0.  1.
         -5    1    3    3    0  502  0.11834919768E+02  0.34383073659E+02  0.12923922440E+03  0.13432241288E+03  0.41800000000E+01 0.  1.
        -11    1    4    4    0    0 -0.28450940263E+02  0.76126039150E+02  0.80851721935E+02  0.11463695206E+03  0.00000000000E+00 0.  1.
         11    1    4    4    0    0  0.17101783836E+02 -0.39349351549E+01  0.94269008037E+02  0.95888480024E+02  0.00000000000E+00 0. -1.
</event>
<event>
 8    1  0.6945825E-009  0.1050958E+03  0.7561462E-02  0.1269931E+00
         -2   -1    0    0    0  501 -0.00000000000E+00  0.00000000000E+00  0.44437009015E+02  0.44437009015E+02  0.00000000000E+00 0.  1.
          2   -1    0    0  501    0  0.00000000000E+00 -0.00000000000E+00 -0.45195951143E+03  0.45195951143E+03  0.00000000000E+00 0. -1.
         25    2    1    2    0    0  0.56724870909E+02 -0.15213013532E+02 -0.10100414921E+03  0.17116747323E+03  0.12508924403E+03 0.  0.
         23    2    1    2    0    0 -0.56724870909E+02  0.15213013532E+02 -0.30651835320E+03  0.32522904722E+03  0.91494729598E+02 0.  0.
          5    1    3    3  502    0  0.61956633746E+02 -0.48090105792E+02 -0.11116387740E+03  0.13611084740E+03  0.41800000000E+01 0.  1.
         -5    1    3    3    0  502 -0.52317628366E+01  0.32877092260E+02  0.10159728188E+02  0.35056625831E+02  0.41800000000E+01 0.  1.
        -11    1    4    4    0    0 -0.43037202134E+02 -0.28946235559E+02 -0.90409454408E+02  0.10423029678E+03  0.00000000000E+00 0.  1.
         11    1    4    4    0    0 -0.13687668775E+02  0.44159249091E+02 -0.21610889880E+03  0.22099875044E+03  0.00000000000E+00 0. -1.
</event>
<event>
 8    1  0.6945825E-009  0.1097204E+03  0.7561462E-02  0.1261088E+00
          1   -1    0    0  501    0  0.00000000000E+00  0.00000000000E+00  0.36309466196E+03  0.36309466196E+03  0.00000000000E+00 0. -1.
         -1   -1    0    0    0  501 -0.00000000000E+00 -0.00000000000E+00 -0.43415322681E+02  0.43415322681E+02  0.00000000000E+00 0.  1.
         25    2    1    2    0    0 -0.47128295808E+02  0.28087657491E+02  0.23311438507E+03  0.27018228330E+03  0.12508459903E+03 0.  0.
         23    2    1    2    0    0  0.47128295808E+02 -0.28087657491E+02  0.86564954210E+02  0.13632770134E+03  0.89898598910E+02 0.  0.
          5    1    3    3  502    0  0.30976928984E+02  0.26135324549E+02  0.24894743237E+02  0.47747732505E+02  0.41800000000E+01 0.  1.
         -5    1    3    3    0  502 -0.78105224791E+02  0.19523329421E+01  0.20821964183E+03  0.22243455080E+03  0.41800000000E+01 0.  1.
        -11    1    4    4    0    0  0.51123539541E+02  0.17996161112E+02  0.25981773205E+02  0.60104331365E+02  0.00000000000E+00 0.  1.
         11    1    4    4    0    0 -0.39952437333E+01 -0.46083818603E+02  0.60583181006E+02  0.76223369975E+02  0.00000000000E+00 0. -1.
</event>
<event>
 8    1  0.6945825E-009  0.1123311E+03  0.7561462E-02  0.1256313E+00
         -1   -1    0    0    0  501 -0.00000000000E+00  0.00000000000E+00  0.51013135231E+02  0.51013135231E+02  0.00000000000E+00 0.  1.
          1   -1    0    0  501    0  0.00000000000E+00 -0.00000000000E+00 -0.54322031546E+03  0.54322031546E+03  0.00000000000E+00 0. -1.
         25    2    1    2    0    0 -0.11731864051E+02  0.92739814444E+02 -0.41589072874E+03  0.44424185489E+03  0.12508963812E+03 0.  0.
         23    2    1    2    0    0  0.11731864051E+02 -0.92739814444E+02 -0.76316451482E+02  0.14999159580E+03  0.89078438611E+02 0.  0.
          5    1    3    3  502    0  0.30433975523E+02  0.17623053000E+02 -0.28688735370E+03  0.28906508779E+03  0.41800000000E+01 0. -1.
         -5    1    3    3    0  502 -0.42165839574E+02  0.75116761444E+02 -0.12900337504E+03  0.15517676711E+03  0.41800000000E+01 0. -1.
        -11    1    4    4    0    0 -0.10766727692E+02 -0.70674957609E+02 -0.45778117171E+01  0.71636781184E+02  0.00000000000E+00 0.  1.
         11    1    4    4    0    0  0.22498591743E+02 -0.22064856835E+02 -0.71738639765E+02  0.78354814612E+02  0.00000000000E+00 0. -1.
</event>
<event>
 8    1  0.6945825E-009  0.8740583E+02  0.7561462E-02  0.1309258E+00
          2   -1    0    0  501    0  0.00000000000E+00  0.00000000000E+00  0.67435194297E+02  0.67435194297E+02  0.00000000000E+00 0. -1.
         -2   -1    0    0    0  501 -0.00000000000E+00 -0.00000000000E+00 -0.25030415469E+03  0.25030415469E+03  0.00000000000E+00 0.  1.
         25    2    1    2    0    0 -0.41676520679E+02  0.54699878746E+01 -0.17127267889E+03  0.21621379436E+03  0.12508885321E+03 0.  0.
         23    2    1    2    0    0  0.41676520679E+02 -0.54699878746E+01 -0.11596281509E+02  0.10152555463E+03  0.91684848007E+02 0.  0.
          5    1    3    3  502    0  0.29967604079E+02 -0.25155327753E+02 -0.11054572025E+03  0.11734000373E+03  0.41800000000E+01 0.  1.
         -5    1    3    3    0  502 -0.71644124758E+02  0.30625315628E+02 -0.60726958635E+02  0.98873790636E+02  0.41800000000E+01 0.  1.
        -11    1    4    4    0    0  0.47355142974E+01 -0.17856140374E+02 -0.45985614987E+02  0.49557478048E+02  0.00000000000E+00 0.  1.
         11    1    4    4    0    0  0.36941006382E+02  0.12386152499E+02  0.34389333478E+02  0.51968076579E+02  0.00000000000E+00 0. -1.
</event>
<event>
 8    1  0.6945825E-009  0.1284105E+03  0.7561462E-02  0.1229834E+00
          2   -1    0    0  501    0  0.00000000000E+00  0.00000000000E+00  0.22686617049E+03  0.22686617049E+03  0.00000000000E+00 0. -1.
         -2   -1    0    0    0  501 -0.00000000000E+00 -0.00000000000E+00 -0.10114463272E+03  0.10114463272E+03  0.00000000000E+00 0.  1.
         25    2    1    2    0    0  0.77390262577E+02 -0.90684145260E+01  0.14377934093E+03  0.20590116125E+03  0.12510515753E+03 0.  0.
         23    2    1    2    0    0 -0.77390262577E+02  0.90684145260E+01 -0.18057803156E+02  0.12210964197E+03  0.92266957918E+02 0.  0.
          5    1    3    3  502    0  0.25702694320E+02  0.57237327842E+02  0.68323682790E+02  0.92856546478E+02  0.41800000000E+01 0. -1.
         -5    1    3    3    0  502  0.51687568257E+02 -0.66305742368E+02  0.75455658137E+02  0.11304461477E+03  0.41800000000E+01 0. -1.
        -11    1    4    4    0    0  0.13428021307E+02  0.13228264521E+02  0.16300876689E+02  0.24920219086E+02  0.00000000000E+00 0. -1.
         11    1    4    4    0    0 -0.90818283885E+02 -0.41598499951E+01 -0.34358679845E+02  0.97189422884E+02  0.00000000000E+00 0.  1.
</event>
<event>
 8    1  0.6945825E-009  0.1016193E+03  0.7561462E-02  0.1276927E+00
         -3   -1    0    0    0  501 -0.00000000000E+00  0.00000000000E+00  0.31441127687E+03  0.31441127687E+03  0.00000000000E+00 0.  1.
          3   -1    0    0  501    0  0.00000000000E+00 -0.00000000000E+00 -0.58840070911E+02  0.58840070911E+02  0.00000000000E+00 0. -1.
         25    2    1    2    0    0 -0.45951859668E+02  0.39020572952E+02  0.66175796893E+02  0.15382135177E+03  0.12509034193E+03 0.  0.
         23    2    1    2    0    0  0.45951859668E+02 -0.39020572952E+02  0.18939540907E+03  0.21942999602E+03  0.92977006060E+02 0.  0.
          5    1    3    3  502    0 -0.14569387310E+02  0.72740692211E+02  0.15126001077E+01  0.74318474883E+02  0.41800000000E+01 0.  1.
         -5    1    3    3    0  502 -0.31382472358E+02 -0.33720119259E+02  0.64663196786E+02  0.79502876883E+02  0.41800000000E+01 0.  1.
        -11    1    4    4    0    0  0.56367048796E+02 -0.17913373822E+02  0.18657427774E+03  0.19572453670E+03  0.00000000000E+00 0.  1.
         11    1    4    4    0    0 -0.10415189128E+02 -0.21107199130E+02  0.28211313313E+01  0.23705459322E+02  0.00000000000E+00 0. -1.
</event>
<event>
 8    1  0.6945825E-009  0.1940009E+03  0.7561462E-02  0.1154901E+00
          2   -1    0    0  501    0  0.00000000000E+00  0.00000000000E+00  0.54402691076E+03  0.54402691076E+03  0.00000000000E+00 0. -1.
         -2   -1    0    0    0  501 -0.00000000000E+00 -0.00000000000E+00 -0.85147639882E+02  0.85147639882E+02  0.00000000000E+00 0.  1.
         25    2    1    2    0    0  0.16544438194E+03 -0.77107247564E+02  0.18667568979E+03  0.28950545555E+03  0.12509286346E+03 0.  0.
         23    2    1    2    0    0 -0.16544438194E+03  0.77107247564E+02  0.27220358109E+03  0.33966909509E+03  0.89235270284E+02 0.  0.
          5    1    3    3  502    0  0.12299110696E+03 -0.33190025838E+02  0.18931517865E+03  0.22822379252E+03  0.41800000000E+01 0.  1.
         -5    1    3    3    0  502  0.42453274987E+02 -0.43917221727E+02 -0.26394888625E+01  0.61281663022E+02  0.41800000000E+01 0.  1.
        -11    1    4    4    0    0 -0.55502216900E+02  0.69738715161E+02  0.15502293957E+03  0.17881861275E+03  0.00000000000E+00 0. -1.
         11    1    4    4    0    0 -0.10994216504E+03  0.73685324030E+01  0.11718064152E+03  0.16085048234E+03  0.00000000000E+00 0.  1.
</event>
<event>
 8    1  0.6945825E-009  0.1135925E+03  0.7561462E-02  0.1254058E+00
          1   -1    0    0  501    0  0.00000000000E+00  0.00000000000E+00  0.24024138104E+03  0.24024138104E+03  0.00000000000E+00 0. -1.
         -1   -1    0    0    0  501 -0.00000000000E+00 -0.00000000000E+00 -0.61533337935E+02  0.61533337935E+02  0.00000000000E+00 0.  1.
         25    2    1    2    0    0  0.38510970552E+02  0.79501769535E+01  0.14207427045E+03  0.19333654270E+03  0.12509044828E+03 0.  0.
         23    2    1    2    0    0 -0.38510970552E+02 -0.79501769535E+01  0.36633772650E+02  0.10843817628E+03  0.94183356329E+02 0.  0.
          5    1    3    3  502    0  0.57961078111E+02 -0.41821094519E+02  0.10881492530E+03  0.13025609733E+03  0.41800000000E+01 0. -1.
         -5    1    3    3    0  502 -0.19450107559E+02  0.49771271472E+02  0.33259345151E+02  0.63080445369E+02  0.41800000000E+01 0. -1.
        -11    1    4    4    0    0 -0.15941399924E+01  0.40803945648E+02  0.12654983040E+02  0.42751045115E+02  0.00000000000E+00 0. -1.
         11    1    4    4    0    0 -0.36916830560E+02 -0.48754122601E+02  0.23978789610E+02  0.65687131163E+02  0.00000000000E+00 0.  1.
</event>
<event>
 8    1  0.6945825E-009  0.6171388E+02  0.7561462E-02  0.1390777E+00
         -2   -1    0    0    0  501 -0.00000000000E+00  0.00000000000E+00  0.17144983328E+03  0.17144983328E+03  0.00000000000E+00 0.  1.
          2   -1    0    0  501    0  0.00000000000E+00 -0.00000000000E+00 -0.91250435842E+02  0.91250435842E+02  0.00000000000E+00 0. -1.
         25    2    1    2    0    0 -0.30345428432E+02 -0.26638173106E+02  0.10165396319E+03  0.16617196300E+03  0.12509658574E+03 0.  0.
         23    2    1    2    0    0  0.30345428432E+02  0.26638173106E+02 -0.21454565751E+02  0.96528306118E+02  0.85011635658E+02 0.  0.
          5    1    3    3  502    0 -0.41304558791E+01  0.12009808461E+02 -0.26515438361E+02  0.29695741050E+02  0.41800000000E+01 0.  1.
         -5    1    3    3    0  502 -0.26214972553E+02 -0.38647981567E+02  0.12816940155E+03  0.13647622195E+03  0.41800000000E+01 0.  1.
        -11    1    4    4    0    0  0.41946423645E+02  0.29426963923E+02 -0.46241135177E+02  0.69019499018E+02  0.00000000000E+00 0. -1.
         11    1    4    4    0    0 -0.11600995212E+02 -0.27887908170E+01  0.24786569426E+02  0.27508807099E+02  0.00000000000E+00 0.  1.
</event>
<event>
 8    1  0.6945825E-009  0.1607727E+03  0.7561462E-02  0.1187827E+00
         -1   -1    0    0    0  501 -0.00000000000E+00  0.00000000000E+00  0.26405227614E+02  0.26405227614E+02  0.00000000000E+00 0.  1.
          1   -1    0    0  501    0  0.00000000000E+00 -0.00000000000E+00 -0.11220552500E+04  0.11220552500E+04  0.00000000000E+00 0. -1.
         25    2    1    2    0    0 -0.10147145306E+03 -0.67073686575E+02 -0.76147752380E+03  0.78121174662E+03  0.12509371922E+03 0.  0.
         23    2    1    2    0    0  0.10147145306E+03  0.67073686575E+02 -0.33417249857E+03  0.36724873097E+03  0.91678985518E+02 0.  0.
          5    1    3    3  502    0 -0.12635963681E+03 -0.40908730318E+02 -0.50585258461E+03  0.52301490589E+03  0.41800000000E+01 0.  1.
         -5    1    3    3    0  502  0.24888183742E+02 -0.26164956257E+02 -0.25562493919E+03  0.25819684073E+03  0.41800000000E+01 0.  1.
        -11    1    4    4    0    0  0.74107559235E+02  0.90019279937E+02 -0.25440367243E+03  0.27985108476E+03  0.00000000000E+00 0. -1.
         11    1    4    4    0    0  0.27363893829E+02 -0.22945593362E+02 -0.79768826140E+02  0.87397646215E+02  0.00000000000E+00 0.  1.
</event>
<event>
 8    1  0.6945825E-009  0.1317431E+03  0.7561462E-02  0.1224892E+00
          1   -1    0    0  501    0  0.00000000000E+00  0.00000000000E+00  0.42982916311E+03  0.42982916311E+03  0.00000000000E+00 0. -1.
         -1   -1    0    0    0  501 -0.00000000000E+00 -0.00000000000E+00 -0.57695944141E+02  0.57695944141E+02  0.00000000000E+00 0.  1.
         25    2    1    2    0    0  0.96307457670E+02  0.45037869735E+02  0.26401494428E+03  0.31089456113E+03  0.12509197106E+03 0.  0.
         23    2    1    2    0    0 -0.96307457670E+02 -0.45037869735E+02  0.10811827469E+03  0.17663054612E+03  0.90582848197E+02 0.  0.
          5    1    3    3  502    0  0.75561887440E+02  0.12711225678E+01  0.24864271521E+03  0.25990745817E+03  0.41800000000E+01 0.  1.
         -5    1    3    3    0  502  0.20745570230E+02  0.43766747168E+02  0.15372229071E+02  0.50987102961E+02  0.41800000000E+01 0.  1.
        -11    1    4    4    0    0 -0.20150552830E+02 -0.58475530516E+02  0.55436482940E+02  0.83058028445E+02  0.00000000000E+00 0.  1.
         11    1    4    4    0    0 -0.76156904839E+02  0.13437660780E+02  0.52681791751E+02  0.93572517675E+02  0.00000000000E+00 0. -1.
</event>
<event>
 8    1  0.6945825E-009  0.8791537E+02  0.7561462E-02  0.1307980E+00
          2   -1    0    0  501    0  0.00000000000E+00  0.00000000000E+00  0.25746770118E+03  0.25746770118E+03  0.00000000000E+00 0. -1.
         -2   -1    0    0    0  501 -0.00000000000E+00 -0.00000000000E+00 -0.62608534401E+02  0.62608534401E+02  0.00000000000E+00 0.  1.
         25    2    1    2    0    0  0.25044717287E+02  0.50481591819E+02  0.13301877797E+03  0.19109784226E+03  0.12509500808E+03 0.  0.
         23    2    1    2    0    0 -0.25044717287E+02 -0.50481591819E+02  0.61840388801E+02  0.12897839332E+03  0.98160905042E+02 0.  0.
          5    1    3    3  502    0  0.96513682319E+01 -0.30132433751E+01  0.13480379418E+03  0.13524704755E+03  0.41800000000E+01 0. -1.
         -5    1    3    3    0  502  0.15393349055E+02  0.53494835194E+02 -0.17850162056E+01  0.55850794716E+02  0.41800000000E+01 0. -1.
        -11    1    4    4    0    0 -0.36314186363E+02 -0.74310131786E+02  0.60704095553E+02  0.10259484896E+03  0.00000000000E+00 0.  1.
         11    1    4    4    0    0  0.11269469076E+02  0.23828539966E+02  0.11362932482E+01  0.26383544351E+02  0.00000000000E+00 0. -1.
</event>
<event>
 8    1  0.6945825E-009  0.1195077E+03  0.7561462E-02  0.1243911E+00
          2   -1    0    0  501    0  0.00000000000E+00  0.00000000000E+00  0.17047214014E+04  0.17047214014E+04  0.00000000000E+00 0.  1.
         -2   -1    0    0    0  501 -0.00000000000E+00 -0.00000000000E+00 -0.17515941930E+02  0.17515941930E+02  0.00000000000E+00 0. -1.
         25    2    1    2    0    0  0.43631386074E+02  0.70078196049E+02  0.14235137194E+04  0.14313815344E+04  0.12508851320E+03 0.  0.
         23    2    1    2    0    0 -0.43631386074E+02 -0.70078196049E+02  0.26369174008E+03  0.29085580900E+03  0.90824646585E+02 0.  0.
          5    1    3    3  502    0  0.39349560146E+02 -0.24705838607E+02  0.71656852263E+03  0.71808543111E+03  0.41800000000E+01 0.  1.
         -5    1    3    3    0  502  0.42818259272E+01  0.94784034656E+02  0.70694519678E+03  0.71329610325E+03  0.41800000000E+01 0.  1.
        -11    1    4    4    0    0 -0.20283682747E+02  0.31549061014E+01  0.51972968080E+01  0.21175294860E+02  0.00000000000E+00 0. -1.
         11    1    4    4    0    0 -0.23347703326E+02 -0.73233102151E+02  0.25849444328E+03  0.26968051414E+03  0.00000000000E+00 0.  1.
</event>
<event>
 8    1  0.6945825E-009  0.1024399E+03  0.7561462E-02  0.1275247E+00
          1   -1    0    0  501    0  0.00000000000E+00  0.00000000000E+00  0.12479883696E+03  0.12479883696E+03  0.00000000000E+00 0. -1.
         -1   -1    0    0    0  501 -0.00000000000E+00 -0.00000000000E+00 -0.17139964788E+03  0.17139964788E+03  0.00000000000E+00 0.  1.
         25    2    1    2    0    0  0.18613620930E+02  0.78336073948E+02  0.30021604079E+02  0.15176285577E+03  0.12509060841E+03 0.  0.
         23    2    1    2    0    0 -0.18613620930E+02 -0.78336073948E+02 -0.76622415002E+02  0.14443562907E+03  0.92236918300E+02 0.  0.
          5    1    3    3  502    0 -0.20188833379E+00  0.89034039906E+02 -0.24931218896E+02  0.92553439139E+02  0.41800000000E+01 0.  1.
         -5    1    3    3    0  502  0.18815509264E+02 -0.10697965958E+02  0.54952822975E+02  0.59209416628E+02  0.41800000000E+01 0.  1.
        -11    1    4    4    0    0  0.16110646634E+02 -0.31705732395E+02  0.12780764327E+02  0.37790929314E+02  0.00000000000E+00 0.  1.
         11    1    4    4    0    0 -0.34724267564E+02 -0.46630341554E+02 -0.89403179328E+02  0.10664469975E+03  0.00000000000E+00 0. -1.
</event>
<event>
 8    1  0.6945825E-009  0.1940749E+03  0.7561462E-02  0.1154837E+00
         -1   -1    0    0    0  501 -0.00000000000E+00  0.00000000000E+00  0.56557446128E+03  0.56557446128E+03  0.00000000000E+00 0.  1.
          1   -1    0    0  501    0  0.00000000000E+00 -0.00000000000E+00 -0.11046123844E+03  0.11046123844E+03  0.00000000000E+00 0. -1.
         25    2    1    2    0    0  0.15363813515E+03 -0.93532313558E+02  0.41724990139E+03  0.47127162284E+03  0.12508593859E+03 0.  0.
         23    2    1    2    0    0 -0.15363813515E+03  0.93532313558E+02  0.37863321459E+02  0.20476407688E+03  0.90231512332E+02 0.  0.
          5    1    3    3  502    0  0.11192841778E+03 -0.39993021607E+02  0.13047848757E+03  0.17654891844E+03  0.41800000000E+01 0.  1.
         -5    1    3    3    0  502  0.41709717370E+02 -0.53539291951E+02  0.28677141381E+03  0.29472270439E+03  0.41800000000E+01 0.  1.
        -11    1    4    4    0    0 -0.35866710917E+02  0.73463134591E+02  0.14257442785E+02  0.82985105716E+02  0.00000000000E+00 0.  1.
         11    1    4    4    0    0 -0.11777142423E+03  0.20069178968E+02  0.23605878675E+02  0.12177897117E+03  0.00000000000E+00 0. -1.
</event>
<event>
 8    1  0.6945825E-009  0.1047766E+03  0.7561462E-02  0.1270560E+00
          4   -1    0    0  501    0  0.00000000000E+00  0.00000000000E+00  0.47568353100E+02  0.47568353100E+02  0.00000000000E+00 0. -1.
         -4   -1    0    0    0  501 -0.00000000000E+00 -0.00000000000E+00 -0.46933317849E+03  0.46933317849E+03  0.00000000000E+00 0.  1.
         25    2    1    2    0    0 -0.52382868741E+01  0.86341091808E+02 -0.32838767186E+03  0.36189513069E+03  0.12508956311E+03 0.  0.
         23    2    1    2    0    0  0.52382868741E+01 -0.86341091808E+02 -0.93377153529E+02  0.15500640090E+03  0.88461673826E+02 0.  0.
          5    1    3    3  502    0 -0.33443743577E+02  0.37037004270E+02 -0.28738627881E+03  0.29171659075E+03  0.41800000000E+01 0.  1.
         -5    1    3    3    0  502  0.28205456703E+02  0.49304087538E+02 -0.41001393055E+02  0.70178539940E+02  0.41800000000E+01 0.  1.
        -11    1    4    4    0    0  0.28742727206E+02 -0.63704133615E+02 -0.16964954470E+02  0.71917805076E+02  0.00000000000E+00 0. -1.
         11    1    4    4    0    0 -0.23504440332E+02 -0.22636958193E+02 -0.76412199059E+02  0.83088595827E+02  0.00000000000E+00 0.  1.
</event>
<event>
 8    1  0.6945825E-009  0.1168858E+03  0.7561462E-02  0.1248325E+00
          3   -1    0    0  501    0  0.00000000000E+00  0.00000000000E+00  0.29662471602E+02  0.29662471602E+02  0.00000000000E+00 0. -1.
         -3   -1    0    0    0  501 -0.00000000000E+00 -0.00000000000E+00 -0.48433481231E+03  0.48433481231E+03  0.00000000000E+00 0.  1.
         25    2    1    2    0    0  0.21741955512E+02 -0.51931305943E+02 -0.25028306968E+03  0.28541077646E+03  0.12509245854E+03 0.  0.
         23    2    1    2    0    0 -0.21741955512E+02  0.51931305943E+02 -0.20438927102E+03  0.22858650745E+03  0.85482419902E+02 0.  0.
          5    1    3    3  502    0  0.28958302779E+02 -0.91238547471E+02 -0.19253161213E+03  0.21505569026E+03  0.41800000000E+01 0. -1.
         -5    1    3    3    0  502 -0.72163472670E+01  0.39307241529E+02 -0.57751457553E+02  0.70355086198E+02  0.41800000000E+01 0. -1.
        -11    1    4    4    0    0 -0.20999950794E+02 -0.18109253804E+02 -0.92626883018E+02  0.96688584974E+02  0.00000000000E+00 0.  1.
         11    1    4    4    0    0 -0.74200471734E+00  0.70040559747E+02 -0.11176238800E+03  0.13189792247E+03  0.00000000000E+00 0. -1.
</event>
<event>
 8    1  0.6945825E-009  0.1196775E+03  0.7561462E-02  0.1243630E+00
         -2   -1    0    0    0  501 -0.00000000000E+00  0.00000000000E+00  0.26523986456E+02  0.26523986456E+02  0.00000000000E+00 0.  1.
          2   -1    0    0  501    0  0.00000000000E+00 -0.00000000000E+00 -0.74897664890E+03  0.74897664890E+03  0.00000000000E+00 0. -1.
         25    2    1    2    0    0  0.86303632694E+02 -0.99759727235E+01 -0.29471432909E+03  0.33174285174E+03  0.12509575075E+03 0.  0.
         23    2    1    2    0    0 -0.86303632694E+02  0.99759727235E+01 -0.42773833335E+03  0.44375778362E+03  0.80081531314E+02 0.  0.
          5    1    3    3  502    0  0.43371863374E+02  0.57050060199E+02 -0.12265249322E+03  0.14211591886E+03  0.41800000000E+01 0. -1.
         -5    1    3    3    0  502  0.42931769320E+02 -0.67026032923E+02 -0.17206183588E+03  0.18962693288E+03  0.41800000000E+01 0. -1.
        -11    1    4    4    0    0 -0.18247065628E+02 -0.32447834172E+01 -0.11556952080E+02  0.21841409406E+02  0.00000000000E+00 0.  1.
         11    1    4    4    0    0 -0.68056567066E+02  0.13220756141E+02 -0.41618138127E+03  0.42191637422E+03  0.00000000000E+00 0. -1.
</event>
<event>
 8    1  0.6945825E-009  0.8400450E+02  0.7561462E-02  0.1318057E+00
         -2   -1    0    0    0  501 -0.00000000000E+00  0.00000000000E+00  0.39132273886E+02  0.39132273886E+02  0.00000000000E+00 0. -1.
          2   -1    0    0  501    0  0.00000000000E+00 -0.00000000000E+00 -0.40136899683E+03  0.40136899683E+03  0.00000000000E+00 0.  1.
         25    2    1    2    0    0 -0.18058571410E+02 -0.54102820485E+02 -0.19432007024E+03  0.23803320342E+03  0.12508512720E+03 0.  0.
         23    2    1    2    0    0  0.18058571410E+02  0.54102820485E+02 -0.16791665270E+03  0.20246806729E+03  0.97693852584E+02 0.  0.
          5    1    3    3  502    0  0.26712071698E+02 -0.21599655432E+02 -0.17634933260E+03  0.17971265786E+03  0.41800000000E+01 0.  1.
         -5    1    3    3    0  502 -0.44770643108E+02 -0.32503165053E+02 -0.17970737645E+02  0.58320545559E+02  0.41800000000E+01 0.  1.
        -11    1    4    4    0    0  0.37037577651E+02  0.34058690921E+02 -0.23673964561E+02  0.55607851815E+02  0.00000000000E+00 0. -1.
         11    1    4    4    0    0 -0.18979006241E+02  0.20044129565E+02 -0.14424268814E+03  0.14686021548E+03  0.00000000000E+00 0.  1.
</event>
<event>
 8    1  0.6945825E-009  0.1078704E+03  0.7561462E-02  0.1264565E+00
         -3   -1    0    0    0  501 -0.00000000000E+00  0.00000000000E+00  0.14921505717E+02  0.14921505717E+02  0.00000000000E+00 0.  1.
          3   -1    0    0  501    0  0.00000000000E+00 -0.00000000000E+00 -0.81489483831E+03  0.81489483831E+03  0.00000000000E+00 0. -1.
         25    2    1    2    0    0 -0.59341886613E+01  0.78209753277E+01 -0.52795249987E+03  0.54265874594E+03  0.12509312602E+03 0.  0.
         23    2    1    2    0    0  0.59341886613E+01 -0.78209753277E+01 -0.27202083273E+03  0.28715759809E+03  0.91475518330E+02 0.  0.
          5    1    3    3  502    0 -0.10006353240E+02 -0.57415579397E+02 -0.20684553120E+03  0.21494004289E+03  0.41800000000E+01 0.  1.
         -5    1    3    3    0  502  0.40721645789E+01  0.65236554725E+02 -0.32110696867E+03  0.32771870305E+03  0.41800000000E+01 0.  1.
        -11    1    4    4    0    0 -0.42424342635E+02  0.19834879212E+01 -0.11673053920E+03  0.12421665691E+03  0.00000000000E+00 0. -1.
         11    1    4    4    0    0  0.48358531296E+02 -0.98044632488E+01 -0.15529029353E+03  0.16294094118E+03  0.00000000000E+00 0.  1.
</event>
<event>
 8    1  0.6945825E-009  0.7926266E+02  0.7561462E-02  0.1331157E+00
          1   -1    0    0  501    0  0.00000000000E+00  0.00000000000E+00  0.17374756629E+03  0.17374756629E+03  0.00000000000E+00 0.  1.
         -1   -1    0    0    0  501 -0.00000000000E+00 -0.00000000000E+00 -0.81129861021E+02  0.81129861021E+02  0.00000000000E+00 0. -1.
         25    2    1    2    0    0 -0.43477704381E+02 -0.11462644899E+02  0.71001220099E+02  0.15069760761E+03  0.12508754005E+03 0.  0.
         23    2    1    2    0    0  0.43477704381E+02  0.11462644899E+02  0.21616485169E+02  0.10417981970E+03  0.91457418487E+02 0.  0.
          5    1    3    3  502    0 -0.46766613775E+02 -0.30468153846E+01  0.10511261760E+03  0.11516307580E+03  0.41800000000E+01 0. -1.
         -5    1    3    3    0  502  0.32889093943E+01 -0.84158295148E+01 -0.34111397501E+02  0.35534531809E+02  0.41800000000E+01 0. -1.
        -11    1    4    4    0    0  0.96340181767E+01 -0.39324427805E+02  0.13123892879E+02  0.42561267518E+02  0.00000000000E+00 0.  1.
         11    1    4    4    0    0  0.33843686204E+02  0.50787072704E+02  0.84925922897E+01  0.61618552187E+02  0.00000000000E+00 0. -1.
</event>
<event>
 8    1  0.6945825E-009  0.5848833E+02  0.7561462E-02  0.1404287E+00
          2   -1    0    0  501    0  0.00000000000E+00  0.00000000000E+00  0.23638897430E+03  0.23638897430E+03  0.00000000000E+00 0. -1.
         -2   -1    0    0    0  501 -0.00000000000E+00 -0.00000000000E+00 -0.76928836219E+02  0.76928836219E+02  0.00000000000E+00 0.  1.
         25    2    1    2    0    0  0.23567927859E+01 -0.55545209217E+02  0.20060413520E+02  0.13834952191E+03  0.12508934920E+03 0.  0.
         23    2    1    2    0    0 -0.23567927859E+01  0.55545209217E+02  0.13939972456E+03  0.17496828860E+03  0.89948841414E+02 0.  0.
          5    1    3    3  502    0 -0.26645403562E+01 -0.29091999955E+02 -0.52840371717E+02  0.60522900789E+02  0.41800000000E+01 0.  1.
         -5    1    3    3    0  502  0.50213331421E+01 -0.26453209262E+02  0.72900785238E+02  0.77826621121E+02  0.41800000000E+01 0.  1.
        -11    1    4    4    0    0  0.10366676307E+02  0.21405363952E+02 -0.64452491545E+01  0.24641404591E+02  0.00000000000E+00 0.  1.
         11    1    4    4    0    0 -0.12723469093E+02  0.34139845265E+02  0.14584497371E+03  0.15032688401E+03  0.00000000000E+00 0. -1.
</event>
<event>
 8    1  0.6945825E-009  0.1249966E+03  0.7561462E-02  0.1235075E+00
          3   -1    0    0  501    0  0.00000000000E+00  0.00000000000E+00  0.84313364523E+02  0.84313364523E+02  0.00000000000E+00 0. -1.
         -3   -1    0    0    0  501 -0.00000000000E+00 -0.00000000000E+00 -0.20882414142E+03  0.20882414142E+03  0.00000000000E+00 0.  1.
         25    2    1    2    0    0  0.26027397854E+02 -0.73389360964E+02 -0.64727780027E+02  0.16093646435E+03  0.12508971304E+03 0.  0.
         23    2    1    2    0    0 -0.26027397854E+02  0.73389360964E+02 -0.59782996868E+02  0.13220104159E+03  0.88541995350E+02 0.  0.
          5    1    3    3  502    0 -0.45194149508E+02 -0.92612469414E+01 -0.20924200381E+01  0.46369520876E+02  0.41800000000E+01 0.  1.
         -5    1    3    3    0  502  0.71221547362E+02 -0.64128114023E+02 -0.62635359989E+02  0.11456694348E+03  0.41800000000E+01 0.  1.
        -11    1    4    4    0    0  0.21374960800E+02  0.51039683486E+02 -0.57416310453E+02  0.79740648013E+02  0.00000000000E+00 0.  1.
         11    1    4    4    0    0 -0.47402358654E+02  0.22349677478E+02 -0.23666864146E+01  0.52460393574E+02  0.00000000000E+00 0. -1.
</event>
<event>
 8    1  0.6945825E-009  0.1483594E+03  0.7561462E-02  0.1202504E+00
         -3   -1    0    0    0  501 -0.00000000000E+00  0.00000000000E+00  0.45642865141E+03  0.45642865141E+03  0.00000000000E+00 0.  1.
          3   -1    0    0  501    0  0.00000000000E+00 -0.00000000000E+00 -0.64005367763E+02  0.64005367763E+02  0.00000000000E+00 0. -1.
         25    2    1    2    0    0  0.81323202290E+02 -0.90667338595E+02  0.12874560235E+03  0.21692417419E+03  0.12508652088E+03 0.  0.
         23    2    1    2    0    0 -0.81323202290E+02  0.90667338595E+02  0.26367768129E+03  0.30350984498E+03  0.88081081206E+02 0.  0.
          5    1    3    3  502    0 -0.96295992322E+01  0.25141553583E+02  0.18713761218E+02  0.33053050644E+02  0.41800000000E+01 0.  1.
         -5    1    3    3    0  502  0.90952801523E+02 -0.11580889218E+03  0.11003184113E+03  0.18387112355E+03  0.41800000000E+01 0.  1.
        -11    1    4    4    0    0 -0.28559010853E+02  0.25303547706E+02  0.18336170137E+03  0.18728961572E+03  0.00000000000E+00 0.  1.
         11    1    4    4    0    0 -0.52764191437E+02  0.65363790889E+02  0.80315979926E+02  0.11622022926E+03  0.00000000000E+00 0. -1.
</event>
<event>
 8    1  0.6945825E-009  0.1406075E+03  0.7561462E-02  0.1212514E+00
          1   -1    0    0  501    0  0.00000000000E+00  0.00000000000E+00  0.46858428339E+03  0.46858428339E+03  0.00000000000E+00 0. -1.
         -1   -1    0    0    0  501 -0.00000000000E+00 -0.00000000000E+00 -0.53064474918E+02  0.53064474918E+02  0.00000000000E+00 0.  1.
         25    2    1    2    0    0 -0.10897385416E+03 -0.32536584781E+02  0.22009807309E+03  0.27753272776E+03  0.12508925997E+03 0.  0.
         23    2    1    2    0    0  0.10897385416E+03  0.32536584781E+02  0.19542173538E+03  0.24411603055E+03  0.92027449559E+02 0.  0.
          5    1    3    3  502    0 -0.82379882792E+02 -0.59010437454E+02  0.71188680788E+02  0.12391116774E+03  0.41800000000E+01 0. -1.
         -5    1    3    3    0  502 -0.26593971365E+02  0.26473852672E+02  0.14890939230E+03  0.15362156003E+03  0.41800000000E+01 0. -1.
        -11    1    4    4    0    0  0.36429635520E+02  0.55109996055E+02  0.12045652376E+03  0.13738269223E+03  0.00000000000E+00 0.  1.
         11    1    4    4    0    0  0.72544218637E+02 -0.22573411274E+02  0.74965211620E+02  0.10673333831E+03  0.00000000000E+00 0. -1.
</event>
<event>
 8    1  0.6945825E-009  0.1656646E+03  0.7561462E-02  0.1182446E+00
         -2   -1    0    0    0  501 -0.00000000000E+00  0.00000000000E+00  0.75365822755E+02  0.75365822755E+02  0.00000000000E+00 0.  1.
          2   -1    0    0  501    0  0.00000000000E+00 -0.00000000000E+00 -0.44697430611E+03  0.44697430611E+03  0.00000000000E+00 0. -1.
         25    2    1    2    0    0 -0.97390132048E+02  0.10338859082E+03 -0.13359766596E+03  0.23167028784E+03  0.12509495348E+03 0.  0.
         23    2    1    2    0    0  0.97390132048E+02 -0.10338859082E+03 -0.23801081740E+03  0.29066984103E+03  0.87554375986E+02 0.  0.
          5    1    3    3  502    0 -0.11480261971E+02 -0.21495972323E+02 -0.56250485504E+02  0.61444794413E+02  0.41800000000E+01 0.  1.
         -5    1    3    3    0  502 -0.85909870076E+02  0.12488456314E+03 -0.77347180454E+02  0.17022549342E+03  0.41800000000E+01 0.  1.
        -11    1    4    4    0    0  0.15183946014E+02 -0.60238602665E+02 -0.15160889889E+03  0.16384291163E+03  0.00000000000E+00 0. -1.
         11    1    4    4    0    0  0.82206186034E+02 -0.43149988152E+02 -0.86401918504E+02  0.12682692940E+03  0.00000000000E+00 0.  1.
</event>
<event>
 8    1  0.6945825E-009  0.2417960E+03  0.7561462E-02  0.1118602E+00
         -1   -1    0    0    0  501 -0.00000000000E+00  0.00000000000E+00  0.60658389365E+02  0.60658389365E+02  0.00000000000E+00 0.  1.
          1   -1    0    0  501    0  0.00000000000E+00 -0.00000000000E+00 -0.15509923810E+04  0.15509923810E+04  0.00000000000E+00 0. -1.
         25    2    1    2    0    0  0.20890164280E+03  0.59397999812E+02 -0.12482125038E+04  0.12731258905E+04  0.12508820680E+03 0.  0.
         23    2    1    2    0    0 -0.20890164280E+03 -0.59397999812E+02 -0.24212148776E+03  0.33852487987E+03  0.93852334574E+02 0.  0.
          5    1    3    3  502    0  0.48347223029E+02 -0.36098588552E+02 -0.40236547241E+03  0.40688574300E+03  0.41800000000E+01 0. -1.
         -5    1    3    3    0  502  0.16055441978E+03  0.95496588363E+02 -0.84584703144E+03  0.86624014747E+03  0.41800000000E+01 0. -1.
        -11    1    4    4    0    0 -0.12133288295E+03 -0.81220632353E+02 -0.15833761541E+03  0.21538166138E+03  0.00000000000E+00 0.  1.
         11    1    4    4    0    0 -0.87568759851E+02  0.21822632541E+02 -0.83783872354E+02  0.12314321849E+03  0.00000000000E+00 0. -1.
</event>
<event>
 8    1  0.6945825E-009  0.1217312E+03  0.7561462E-02  0.1240268E+00
          1   -1    0    0  501    0  0.00000000000E+00  0.00000000000E+00  0.10691982661E+03  0.10691982661E+03  0.00000000000E+00 0. -1.
         -1   -1    0    0    0  501 -0.00000000000E+00 -0.00000000000E+00 -0.19194694857E+03  0.19194694857E+03  0.00000000000E+00 0.  1.
         25    2    1    2    0    0  0.64169204741E+02  0.60031514302E+02 -0.77810393713E+02  0.17153731992E+03  0.12509646362E+03 0.  0.
         23    2    1    2    0    0 -0.64169204741E+02 -0.60031514302E+02 -0.72167282446E+01  0.12732945526E+03  0.91865333310E+02 0.  0.
          5    1    3    3  502    0  0.20002599229E+02 -0.38919953454E+02 -0.28668586882E+02  0.52480730050E+02  0.41800000000E+01 0. -1.
         -5    1    3    3    0  502  0.44166605512E+02  0.98951467756E+02 -0.49141806832E+02  0.11905658987E+03  0.41800000000E+01 0. -1.
        -11    1    4    4    0    0 -0.15904405263E+02 -0.30724208947E+02 -0.46924571843E+02  0.58299593179E+02  0.00000000000E+00 0.  1.
         11    1    4    4    0    0 -0.48264799478E+02 -0.29307305355E+02  0.39707843599E+02  0.69029862082E+02  0.00000000000E+00 0. -1.
</event>
<event>
 8    1  0.6945825E-009  0.1124569E+03  0.7561462E-02  0.1256087E+00
         -1   -1    0    0    0  501 -0.00000000000E+00  0.00000000000E+00  0.33648791223E+02  0.33648791223E+02  0.00000000000E+00 0.  1.
          1   -1    0    0  501    0  0.00000000000E+00 -0.00000000000E+00 -0.40589293365E+03  0.40589293365E+03  0.00000000000E+00 0. -1.
         25    2    1    2    0    0 -0.91178295411E+01  0.22509695811E+02 -0.15247403524E+03  0.19871018197E+03  0.12509030248E+03 0.  0.
         23    2    1    2    0    0  0.91178295411E+01 -0.22509695811E+02 -0.21977010718E+03  0.24083154290E+03  0.95452138917E+02 0.  0.
          5    1    3    3  502    0 -0.52899891367E+02  0.52112436529E+02 -0.91334180423E+02  0.11778586274E+03  0.41800000000E+01 0.  1.
         -5    1    3    3    0  502  0.43782061825E+02 -0.29602740718E+02 -0.61139854821E+02  0.80924319233E+02  0.41800000000E+01 0.  1.
        -11    1    4    4    0    0  0.46702332034E+02  0.10079572615E+02 -0.12456323875E+03  0.13341179127E+03  0.00000000000E+00 0. -1.
         11    1    4    4    0    0 -0.37584502492E+02 -0.32589268425E+02 -0.95206868431E+02  0.10741975163E+03  0.00000000000E+00 0.  1.
</event>
<event>
 8    1  0.6945825E-009  0.1451892E+03  0.7561462E-02  0.1206512E+00
         -2   -1    0    0    0  501 -0.00000000000E+00  0.00000000000E+00  0.31091183298E+02  0.31091183298E+02  0.00000000000E+00 0.  1.
          2   -1    0    0  501    0  0.00000000000E+00 -0.00000000000E+00 -0.10463529245E+04  0.10463529245E+04  0.00000000000E+00 0. -1.
         25    2    1    2    0    0  0.84020682111E+02 -0.59946109733E+02 -0.82642684327E+03  0.84218839705E+03  0.12508780014E+03 0.  0.
         23    2    1    2    0    0 -0.84020682111E+02  0.59946109733E+02 -0.18883489792E+03  0.23525571074E+03  0.95045355857E+02 0.  0.
          5    1    3    3  502    0 -0.20323121584E+01 -0.74511802308E+02 -0.36345417180E+03  0.37104251290E+03  0.41800000000E+01 0.  1.
         -5    1    3    3    0  502  0.86052994269E+02  0.14565692575E+02 -0.46297267147E+03  0.47114588415E+03  0.41800000000E+01 0.  1.
        -11    1    4    4    0    0 -0.94961696970E+02  0.35178420407E+02 -0.99744287155E+02  0.14214136616E+03  0.00000000000E+00 0.  1.
         11    1    4    4    0    0  0.10941014859E+02  0.24767689326E+02 -0.89090610760E+02  0.93114344579E+02  0.00000000000E+00 0. -1.
</event>
<event>
 8    1  0.6945825E-009  0.2065270E+03  0.7561462E-02  0.1144346E+00
         -1   -1    0    0    0  501 -0.00000000000E+00  0.00000000000E+00  0.77548425983E+03  0.77548425983E+03  0.00000000000E+00 0.  1.
          1   -1    0    0  501    0  0.00000000000E+00 -0.00000000000E+00 -0.67246270355E+02  0.67246270355E+02  0.00000000000E+00 0. -1.
         25    2    1    2    0    0  0.82950653397E+02  0.16696434965E+03  0.50614130121E+03  0.55370044810E+03  0.12508902618E+03 0.  0.
         23    2    1    2    0    0 -0.82950653397E+02 -0.16696434965E+03  0.20209668826E+03  0.28903008209E+03  0.89092154495E+02 0.  0.
          5    1    3    3  502    0  0.43664153022E+02  0.17478609326E+03  0.36713515413E+03  0.40897729821E+03  0.41800000000E+01 0. -1.
         -5    1    3    3    0  502  0.39286500375E+02 -0.78217436017E+01  0.13900614709E+03  0.14472314989E+03  0.41800000000E+01 0. -1.
        -11    1    4    4    0    0 -0.43531177981E+02 -0.13493020691E+03  0.95478874612E+02  0.17093080381E+03  0.00000000000E+00 0. -1.
         11    1    4    4    0    0 -0.39419475416E+02 -0.32034142743E+02  0.10661781365E+03  0.11809927828E+03  0.00000000000E+00 0.  1.
</event>
<event>
 8    1  0.6945825E-009  0.1075263E+03  0.7561462E-02  0.1265220E+00
          1   -1    0    0  501    0  0.00000000000E+00  0.00000000000E+00  0.91495626697E+02  0.91495626697E+02  0.00000000000E+00 0. -1.
         -1   -1    0    0    0  501 -0.00000000000E+00 -0.00000000000E+00 -0.16600587975E+03  0.16600587975E+03  0.00000000000E+00 0.  1.
         25    2    1    2    0    0 -0.55307952296E+02 -0.97238101744E+01 -0.50583176006E+02  0.14613505599E+03  0.12507307793E+03 0.  0.
         23    2    1    2    0    0  0.55307952296E+02  0.97238101744E+01 -0.23927077045E+02  0.11136645045E+03  0.93147513113E+02 0.  0.
          5    1    3    3  502    0  0.37804696193E+02  0.14440240070E+02 -0.12140344686E+02  0.42456753957E+02  0.41800000000E+01 0. -1.
         -5    1    3    3    0  502 -0.93112648489E+02 -0.24164050244E+02 -0.38442831320E+02  0.10367830203E+03  0.41800000000E+01 0. -1.
        -11    1    4    4    0    0  0.41417220591E+01  0.24481137962E+02  0.27698526294E+02  0.37197961455E+02  0.00000000000E+00 0. -1.
         11    1    4    4    0    0  0.51166230237E+02 -0.14757327788E+02 -0.51625603340E+02  0.74168488998E+02  0.00000000000E+00 0.  1.
</event>
<event>
 8    1  0.6945825E-009  0.1043284E+03  0.7561462E-02  0.1271449E+00
         -3   -1    0    0    0  501 -0.00000000000E+00  0.00000000000E+00  0.12041112104E+03  0.12041112104E+03  0.00000000000E+00 0.  1.
          3   -1    0    0  501    0  0.00000000000E+00 -0.00000000000E+00 -0.11613469349E+03  0.11613469349E+03  0.00000000000E+00 0. -1.
         25    2    1    2    0    0 -0.37093278648E+01 -0.64854818534E+01  0.50260418304E+02  0.13501573764E+03  0.12508924484E+03 0.  0.
         23    2    1    2    0    0  0.37093278648E+01  0.64854818534E+01 -0.45983990754E+02  0.10153007690E+03  0.90210911321E+02 0.  0.
          5    1    3    3  502    0  0.43215156336E+02  0.39460562331E+02  0.31482516892E+02  0.66583083335E+02  0.41800000000E+01 0. -1.
         -5    1    3    3    0  502 -0.46924484200E+02 -0.45946044184E+02  0.18777901412E+02  0.68432654304E+02  0.41800000000E+01 0. -1.
        -11    1    4    4    0    0  0.19753795300E+02 -0.34728791423E+02 -0.40624460532E+02  0.56979366230E+02  0.00000000000E+00 0.  1.
         11    1    4    4    0    0 -0.16044467435E+02  0.41214273276E+02 -0.53595302220E+01  0.44550710669E+02  0.00000000000E+00 0. -1.
</event>
<event>
 8    1  0.6945825E-009  0.1414290E+03  0.7561462E-02  0.1211419E+00
         -1   -1    0    0    0  501 -0.00000000000E+00  0.00000000000E+00  0.78845496981E+03  0.78845496981E+03  0.00000000000E+00 0.  1.
          1   -1    0    0  501    0  0.00000000000E+00 -0.00000000000E+00 -0.27749526347E+02  0.27749526347E+02  0.00000000000E+00 0. -1.
         25    2    1    2    0    0  0.93795430813E+02  0.15579053597E+02  0.49921260976E+03  0.52335631192E+03  0.12509320418E+03 0.  0.
         23    2    1    2    0    0 -0.93795430813E+02 -0.15579053597E+02  0.26149283370E+03  0.29284818423E+03  0.91330538046E+02 0.  0.
          5    1    3    3  502    0  0.36050236922E+02  0.68664919263E+02  0.22008137320E+03  0.23338331978E+03  0.41800000000E+01 0.  1.
         -5    1    3    3    0  502  0.57745193891E+02 -0.53085865667E+02  0.27913123656E+03  0.28997299215E+03  0.41800000000E+01 0.  1.
        -11    1    4    4    0    0 -0.73964147016E+01 -0.36914439535E+02  0.44342068920E+02  0.58168736214E+02  0.00000000000E+00 0.  1.
         11    1    4    4    0    0 -0.86399016111E+02  0.21335385938E+02  0.21715076478E+03  0.23467944802E+03  0.00000000000E+00 0. -1.
</event>
<event>
 8    1  0.6945825E-009  0.1684387E+03  0.7561462E-02  0.1179486E+00
          1   -1    0    0  501    0  0.00000000000E+00  0.00000000000E+00  0.17180278869E+04  0.17180278869E+04  0.00000000000E+00 0. -1.
         -1   -1    0    0    0  501 -0.00000000000E+00 -0.00000000000E+00 -0.24201157881E+02  0.24201157881E+02  0.00000000000E+00 0.  1.
         25    2    1    2    0    0  0.97250541728E+01  0.13051773147E+03  0.13602985649E+04  0.13722930426E+04  0.12508618660E+03 0.  0.
         23    2    1    2    0    0 -0.97250541728E+01 -0.13051773147E+03  0.33352816410E+03  0.36993600220E+03  0.92098613306E+02 0.  0.
          5    1    3    3  502    0 -0.42843048241E+02  0.73182014445E+01  0.46116496093E+03  0.46322745648E+03  0.41800000000E+01 0. -1.
         -5    1    3    3    0  502  0.52568102414E+02  0.12319953002E+03  0.89913360401E+03  0.90906558611E+03  0.41800000000E+01 0. -1.
        -11    1    4    4    0    0 -0.49759540707E+02 -0.58459415964E+02  0.14204292011E+03  0.16146116053E+03  0.00000000000E+00 0.  1.
         11    1    4    4    0    0  0.40034486534E+02 -0.72058315501E+02  0.19148524399E+03  0.20847484167E+03  0.00000000000E+00 0. -1.
</event>
<event>
 8    1  0.6945825E-009  0.7558003E+02  0.7561462E-02  0.1342084E+00
         -1   -1    0    0    0  501 -0.00000000000E+00  0.00000000000E+00  0.54245112034E+03  0.54245112034E+03  0.00000000000E+00 0.  1.
          1   -1    0    0  501    0  0.00000000000E+00 -0.00000000000E+00 -0.21892407405E+02  0.21892407405E+02  0.00000000000E+00 0. -1.
         25    2    1    2    0    0  0.12736518059E+02 -0.13063452913E+02  0.32171778534E+03  0.34566501685E+03  0.12509635395E+03 0.  0.
         23    2    1    2    0    0 -0.12736518059E+02  0.13063452913E+02  0.19884092759E+03  0.21867851090E+03  0.89161112310E+02 0.  0.
          5    1    3    3  502    0 -0.31088633880E+02 -0.16358731439E+02  0.19809950672E+02  0.40546489324E+02  0.41800000000E+01 0.  1.
         -5    1    3    3    0  502  0.43825151939E+02  0.32952785264E+01  0.30190783467E+03  0.30511852753E+03  0.41800000000E+01 0.  1.
        -11    1    4    4    0    0 -0.39350412399E+02 -0.47111931464E+01  0.17318190473E+03  0.17765872459E+03  0.00000000000E+00 0.  1.
         11    1    4    4    0    0  0.26613894340E+02  0.17774646059E+02  0.25659022861E+02  0.41019786307E+02  0.00000000000E+00 0. -1.
</event>
<event>
 8    1  0.6945825E-009  0.7592002E+02  0.7561462E-02  0.1341045E+00
         -1   -1    0    0    0  501 -0.00000000000E+00  0.00000000000E+00  0.69879365272E+03  0.69879365272E+03  0.00000000000E+00 0.  1.
          1   -1    0    0  501    0  0.00000000000E+00 -0.00000000000E+00 -0.20702767085E+02  0.20702767085E+02  0.00000000000E+00 0. -1.
         25    2    1    2    0    0  0.37618730325E+02  0.25032431247E+02  0.26959576444E+03  0.30060975396E+03  0.12507020623E+03 0.  0.
         23    2    1    2    0    0 -0.37618730325E+02 -0.25032431247E+02  0.40849512119E+03  0.41888666584E+03  0.80969026764E+02 0.  0.
          5    1    3    3  502    0  0.33790526676E+02  0.38574907857E+02  0.28017130316E+02  0.58585452122E+02  0.41800000000E+01 0. -1.
         -5    1    3    3    0  502  0.38282036497E+01 -0.13542476610E+02  0.24157863412E+03  0.24202430184E+03  0.41800000000E+01 0. -1.
        -11    1    4    4    0    0 -0.21536743161E+02 -0.50888341640E+02  0.33177024509E+03  0.33634052706E+03  0.00000000000E+00 0.  1.
         11    1    4    4    0    0 -0.16081987164E+02  0.25855910393E+02  0.76724876106E+02  0.82546138776E+02  0.00000000000E+00 0. -1.
</event>
<event>
 8    1  0.6945825E-009  0.1672309E+03  0.7561462E-02  0.1180767E+00
          1   -1    0    0  501    0  0.00000000000E+00  0.00000000000E+00  0.70021748738E+03  0.70021748738E+03  0.00000000000E+00 0. -1.
         -1   -1    0    0    0  501 -0.00000000000E+00 -0.00000000000E+00 -0.49707075245E+02  0.49707075245E+02  0.00000000000E+00 0.  1.
         25    2    1    2    0    0 -0.12544350816E+03  0.44853258522E+02  0.48707581352E+03  0.52022935910E+03  0.12509136425E+03 0.  0.
         23    2    1    2    0    0  0.12544350816E+03 -0.44853258522E+02  0.16343459861E+03  0.22969520352E+03  0.91110537034E+02 0.  0.
          5    1    3    3  502    0 -0.74534672157E+02  0.81969422551E+02  0.22740172416E+03  0.25298897237E+03  0.41800000000E+01 0. -1.
         -5    1    3    3    0  502 -0.50908836006E+02 -0.37116164030E+02  0.25967408936E+03  0.26724038673E+03  0.41800000000E+01 0. -1.
        -11    1    4    4    0    0 -0.14113356108E+02 -0.92055453629E+00  0.80689200945E+01  0.16283172688E+02  0.00000000000E+00 0. -1.
         11    1    4    4    0    0  0.13955686427E+03 -0.43932703985E+02  0.15536567851E+03  0.21341203083E+03  0.00000000000E+00 0.  1.
</event>
<event>
 8    1  0.6945825E-009  0.1124830E+03  0.7561462E-02  0.1256040E+00
          1   -1    0    0  501    0  0.00000000000E+00  0.00000000000E+00  0.30292867418E+03  0.30292867418E+03  0.00000000000E+00 0. -1.
         -1   -1    0    0    0  501 -0.00000000000E+00 -0.00000000000E+00 -0.57081222698E+02  0.57081222698E+02  0.00000000000E+00 0.  1.
         25    2    1    2    0    0  0.65074855500E+02  0.18763459694E+02  0.17948518524E+03  0.22901427741E+03  0.12508318553E+03 0.  0.
         23    2    1    2    0    0 -0.65074855500E+02 -0.18763459694E+02  0.66362266246E+02  0.13099561947E+03  0.90383060914E+02 0.  0.
          5    1    3    3  502    0  0.29553315595E+00  0.54939278302E+02  0.12580087235E+03  0.13733806291E+03  0.41800000000E+01 0. -1.
         -5    1    3    3    0  502  0.64779322344E+02 -0.36175818608E+02  0.53684312890E+02  0.91676214504E+02  0.41800000000E+01 0. -1.
        -11    1    4    4    0    0 -0.22289217509E+01  0.21043522555E+02  0.50746792243E+02  0.54982132158E+02  0.00000000000E+00 0. -1.
         11    1    4    4    0    0 -0.62845933749E+02 -0.39806982248E+02  0.15615474003E+02  0.76013487309E+02  0.00000000000E+00 0.  1.
</event>
<event>
 8    1  0.6945825E-009  0.7761608E+02  0.7561462E-02  0.1335956E+00
         -2   -1    0    0    0  501 -0.00000000000E+00  0.00000000000E+00  0.34934799764E+02  0.34934799764E+02  0.00000000000E+00 0. -1.
          2   -1    0    0  501    0  0.00000000000E+00 -0.00000000000E+00 -0.66780075007E+03  0.66780075007E+03  0.00000000000E+00 0.  1.
         25    2    1    2    0    0  0.48998527219E+02  0.22152963312E+02 -0.55266280732E+03  0.56918805263E+03  0.12508897318E+03 0.  0.
         23    2    1    2    0    0 -0.48998527219E+02 -0.22152963312E+02 -0.80203142986E+02  0.13354749720E+03  0.92253891035E+02 0.  0.
          5    1    3    3  502    0  0.50745171921E+02  0.14614448487E+02 -0.77102162767E+02  0.93546087472E+02  0.41800000000E+01 0. -1.
         -5    1    3    3    0  502 -0.17466447026E+01  0.75385148241E+01 -0.47556064455E+03  0.47564196516E+03  0.41800000000E+01 0. -1.
        -11    1    4    4    0    0 -0.58091330849E+02  0.10968117554E+02 -0.16832226754E+02  0.61467277311E+02  0.00000000000E+00 0. -1.
         11    1    4    4    0    0  0.90928036302E+01 -0.33121080866E+02 -0.63370916232E+02  0.72080219892E+02  0.00000000000E+00 0.  1.
</event>
<event>
 8    1  0.6945825E-009  0.9808509E+02  0.7561462E-02  0.1284375E+00
         -1   -1    0    0    0  501 -0.00000000000E+00  0.00000000000E+00  0.20273851705E+02  0.20273851705E+02  0.00000000000E+00 0.  1.
          1   -1    0    0  501    0  0.00000000000E+00 -0.00000000000E+00 -0.60250488352E+03  0.60250488352E+03  0.00000000000E+00 0. -1.
         25    2    1    2    0    0 -0.15672187723E+02  0.14245928499E+02 -0.31823342406E+03  0.34259133420E+03  0.12509095146E+03 0.  0.
         23    2    1    2    0    0  0.15672187723E+02 -0.14245928499E+02 -0.26399760776E+03  0.28018740102E+03  0.91442215864E+02 0.  0.
          5    1    3    3  502    0 -0.25105130268E+02  0.62076131897E+02 -0.24854274021E+03  0.25743869139E+03  0.41800000000E+01 0. -1.
         -5    1    3    3    0  502  0.94329425455E+01 -0.47830203398E+02 -0.69690683850E+02  0.85152642810E+02  0.41800000000E+01 0. -1.
        -11    1    4    4    0    0  0.99260532982E+01 -0.46418151977E+02 -0.77753420828E+02  0.91097562083E+02  0.00000000000E+00 0.  1.
         11    1    4    4    0    0  0.57461344248E+01  0.32172223478E+02 -0.18624418693E+03  0.18908983894E+03  0.00000000000E+00 0. -1.
</event>
<event>
 8    1  0.6945825E-009  0.1013211E+03  0.7561462E-02  0.1277542E+00
         -1   -1    0    0    0  501 -0.00000000000E+00  0.00000000000E+00  0.15712848480E+03  0.15712848480E+03  0.00000000000E+00 0.  1.
          1   -1    0    0  501    0  0.00000000000E+00 -0.00000000000E+00 -0.10461438428E+03  0.10461438428E+03  0.00000000000E+00 0. -1.
         25    2    1    2    0    0  0.60283119079E+02  0.59892983682E+01  0.61061857260E+02  0.15180590316E+03  0.12508619301E+03 0.  0.
         23    2    1    2    0    0 -0.60283119079E+02 -0.59892983682E+01 -0.85477567380E+01  0.10993696591E+03  0.91340824321E+02 0.  0.
          5    1    3    3  502    0 -0.14642164243E+02  0.12473124656E+02  0.72943963494E+02  0.75553067593E+02  0.41800000000E+01 0.  1.
         -5    1    3    3    0  502  0.74925283322E+02 -0.64838262883E+01 -0.11882106235E+02  0.76252835572E+02  0.41800000000E+01 0.  1.
        -11    1    4    4    0    0 -0.14139680796E+02  0.40038730068E+02 -0.13546066006E+02  0.44570465363E+02  0.00000000000E+00 0.  1.
         11    1    4    4    0    0 -0.46143438283E+02 -0.46028028436E+02  0.49983092680E+01  0.65366500547E+02  0.00000000000E+00 0. -1.
</event>
<event>
 8    1  0.6945825E-009  0.8215930E+02  0.7561462E-02  0.1323033E+00
         -2   -1    0    0    0  501 -0.00000000000E+00  0.00000000000E+00  0.46414592062E+02  0.46414592062E+02  0.00000000000E+00 0.  1.
          2   -1    0    0  501    0  0.00000000000E+00 -0.00000000000E+00 -0.26417413611E+03  0.26417413611E+03  0.00000000000E+00 0. -1.
         25    2    1    2    0    0 -0.70251326239E+01  0.19407167042E+02 -0.95423680655E+02  0.15868048655E+03  0.12509127611E+03 0.  0.
         23    2    1    2    0    0  0.70251326239E+01 -0.19407167042E+02 -0.12233586339E+03  0.15190824162E+03  0.87658768991E+02 0.  0.
          5    1    3    3  502    0  0.55847560071E+02 -0.10289229991E+02 -0.47170591396E+02  0.73941566878E+02  0.41800000000E+01 0.  1.
         -5    1    3    3    0  502 -0.62872692695E+02  0.29696397033E+02 -0.48253089260E+02  0.84738919668E+02  0.41800000000E+01 0.  1.
        -11    1    4    4    0    0 -0.12609873754E+02 -0.61688564375E+01  0.10149758398E+02  0.17322854885E+02  0.00000000000E+00 0.  1.
         11    1    4    4    0    0  0.19635006378E+02 -0.13238310604E+02 -0.13248562179E+03  0.13458538674E+03  0.00000000000E+00 0. -1.
</event>
<event>
 8    1  0.6945825E-009  0.8370860E+02  0.7561462E-02  0.1318845E+00
          1   -1    0    0  501    0  0.00000000000E+00  0.00000000000E+00  0.33642828315E+03  0.33642828315E+03  0.00000000000E+00 0. -1.
         -1   -1    0    0    0  501 -0.00000000000E+00 -0.00000000000E+00 -0.36346985377E+02  0.36346985377E+02  0.00000000000E+00 0.  1.
         25    2    1    2    0    0 -0.17220628902E+02 -0.25511753312E+01  0.19605611885E+03  0.23321245334E+03  0.12508792148E+03 0.  0.
         23    2    1    2    0    0  0.17220628902E+02  0.25511753312E+01  0.10402517893E+03  0.13956281519E+03  0.91397390428E+02 0.  0.
          5    1    3    3  502    0 -0.49562032757E+02 -0.32975695017E+02  0.42375588363E+02  0.73191218339E+02  0.41800000000E+01 0. -1.
         -5    1    3    3    0  502  0.32341403855E+02  0.30424519686E+02  0.15368053048E+03  0.16002123500E+03  0.41800000000E+01 0. -1.
        -11    1    4    4    0    0 -0.21724240019E+02  0.92736990655E+01 -0.45176735178E+01  0.24048980702E+02  0.00000000000E+00 0.  1.
         11    1    4    4    0    0  0.38944868922E+02 -0.67225237343E+01  0.10854285245E+03  0.11551383449E+03  0.00000000000E+00 0. -1.
</event>
<event>
 8    1  0.6945825E-009  0.2009871E+03  0.7561462E-02  0.1148909E+00
         -2   -1    0    0    0  501 -0.00000000000E+00  0.00000000000E+00  0.32432133094E+02  0.32432133094E+02  0.00000000000E+00 0.  1.
          2   -1    0    0  501    0  0.00000000000E+00 -0.00000000000E+00 -0.15352124253E+04  0.15352124253E+04  0.00000000000E+00 0. -1.
         25    2    1    2    0    0 -0.51200253621E+02  0.17806031623E+03 -0.98628903961E+03  0.10113065913E+04  0.12509200552E+03 0.  0.
         23    2    1    2    0    0  0.51200253621E+02 -0.17806031623E+03 -0.51649125259E+03  0.55633796705E+03  0.91770242401E+02 0.  0.
          5    1    3    3  502    0 -0.42819426273E+02  0.19260968659E+03 -0.79085328583E+03  0.81510636529E+03  0.41800000000E+01 0. -1.
         -5    1    3    3    0  502 -0.83808273484E+01 -0.14549370357E+02 -0.19543575378E+03  0.19620022604E+03  0.41800000000E+01 0. -1.
        -11    1    4    4    0    0  0.23117261852E+01 -0.52823206369E+02 -0.57733456826E+02  0.78286571301E+02  0.00000000000E+00 0.  1.
         11    1    4    4    0    0  0.48888527436E+02 -0.12523710986E+03 -0.45875779576E+03  0.47805139574E+03  0.00000000000E+00 0. -1.
</event>
<event>
 8    1  0.6945825E-009  0.1109540E+03  0.7561462E-02  0.1258813E+00
          2   -1    0    0  501    0  0.00000000000E+00  0.00000000000E+00  0.49129453632E+03  0.49129453632E+03  0.00000000000E+00 0.  1.
         -2   -1    0    0    0  501 -0.00000000000E+00 -0.00000000000E+00 -0.29312462132E+02  0.29312462132E+02  0.00000000000E+00 0. -1.
         25    2    1    2    0    0 -0.16682491935E+02 -0.36112375374E+02  0.19177297381E+03  0.23239750571E+03  0.12509723412E+03 0.  0.
         23    2    1    2    0    0  0.16682491935E+02  0.36112375374E+02  0.27020910038E+03  0.28820949274E+03  0.92029042075E+02 0.  0.
          5    1    3    3  502    0 -0.28249768101E-01 -0.82041688677E+02  0.11595355533E+03  0.14210397205E+03  0.41800000000E+01 0. -1.
         -5    1    3    3    0  502 -0.16654242167E+02  0.45929313303E+02  0.75819418477E+02  0.90293533660E+02  0.41800000000E+01 0. -1.
        -11    1    4    4    0    0  0.49772553435E+02  0.17493187431E+02  0.92480759858E+02  0.10647069844E+03  0.00000000000E+00 0. -1.
         11    1    4    4    0    0 -0.33090061501E+02  0.18619187943E+02  0.17772834052E+03  0.18173879430E+03  0.00000000000E+00 0.  1.
</event>
<event>
 8    1  0.6945825E-009  0.1129522E+03  0.7561462E-02  0.1255199E+00
         -1   -1    0    0    0  501 -0.00000000000E+00  0.00000000000E+00  0.49061169595E+02  0.49061169595E+02  0.00000000000E+00 0.  1.
          1   -1    0    0  501    0  0.00000000000E+00 -0.00000000000E+00 -0.33683891428E+03  0.33683891428E+03  0.00000000000E+00 0. -1.
         25    2    1    2    0    0  0.14209622134E+02 -0.69746332015E+02 -0.16116926969E+03  0.21607757482E+03  0.12509005019E+03 0.  0.
         23    2    1    2    0    0 -0.14209622134E+02  0.69746332015E+02 -0.12660847500E+03  0.16982250906E+03  0.87997241153E+02 0.  0.
          5    1    3    3  502    0  0.56948746038E+00 -0.90769745568E+02 -0.53492112232E+02  0.10544358443E+03  0.41800000000E+01 0.  1.
         -5    1    3    3    0  502  0.13640134673E+02  0.21023413553E+02 -0.10767715746E+03  0.11063399039E+03  0.41800000000E+01 0.  1.
        -11    1    4    4    0    0  0.34056574983E+02  0.41576739311E+02 -0.41044359756E+02  0.67624810677E+02  0.00000000000E+00 0.  1.
         11    1    4    4    0    0 -0.48266197117E+02  0.28169592704E+02 -0.85564115239E+02  0.10219769838E+03  0.00000000000E+00 0. -1.
</event>
<event>
 8    1  0.6945825E-009  0.2298863E+03  0.7561462E-02  0.1126720E+00
         -1   -1    0    0    0  501 -0.00000000000E+00  0.00000000000E+00  0.91143295124E+02  0.91143295124E+02  0.00000000000E+00 0.  1.
          1   -1    0    0  501    0  0.00000000000E+00 -0.00000000000E+00 -0.67468151392E+03  0.67468151392E+03  0.00000000000E+00 0. -1.
         25    2    1    2    0    0 -0.21611660846E+03 -0.52792203881E+02 -0.31031017059E+03  0.40178725747E+03  0.12508874070E+03 0.  0.
         23    2    1    2    0    0  0.21611660846E+03  0.52792203881E+02 -0.27322804821E+03  0.36403755157E+03  0.91522496615E+02 0.  0.
          5    1    3    3  502    0 -0.67837800090E+02 -0.51404049201E+02 -0.41552506741E+02  0.94807313071E+02  0.41800000000E+01 0.  1.
         -5    1    3    3    0  502 -0.14827880837E+03 -0.13881546800E+01 -0.26875766385E+03  0.30697994440E+03  0.41800000000E+01 0.  1.
        -11    1    4    4    0    0  0.13332574829E+03  0.11851101612E+02 -0.97775154309E+02  0.16575941773E+03  0.00000000000E+00 0.  1.
         11    1    4    4    0    0  0.82790860167E+02  0.40941102269E+02 -0.17545289390E+03  0.19827813384E+03  0.00000000000E+00 0. -1.
</event>
<event>
 8    1  0.6945825E-009  0.4194833E+03  0.7561462E-02  0.1037235E+00
          2   -1    0    0  501    0  0.00000000000E+00  0.00000000000E+00  0.53904322798E+03  0.53904322798E+03  0.00000000000E+00 0.  1.
         -2   -1    0    0    0  501 -0.00000000000E+00 -0.00000000000E+00 -0.62257456729E+03  0.62257456729E+03  0.00000000000E+00 0. -1.
         25    2    1    2    0    0 -0.29265977529E+03 -0.28737728272E+03  0.35321639297E+03  0.55555988604E+03  0.12509804162E+03 0.  0.
         23    2    1    2    0    0  0.29265977529E+03  0.28737728272E+03 -0.43674773228E+03  0.60605790922E+03  0.91225878883E+02 0.  0.
          5    1    3    3  502    0 -0.24090536994E+03 -0.28968105226E+03  0.31333882122E+03  0.49005020007E+03  0.41800000000E+01 0. -1.
         -5    1    3    3    0  502 -0.51754405354E+02  0.23037695397E+01  0.39877571756E+02  0.65509685977E+02  0.41800000000E+01 0. -1.
        -11    1    4    4    0    0  0.52295383770E+02  0.54502690794E+02 -0.35213493510E+02  0.83338710049E+02  0.00000000000E+00 0.  1.
         11    1    4    4    0    0  0.24036439152E+03  0.23287459193E+03 -0.40153423877E+03  0.52271919917E+03  0.00000000000E+00 0. -1.
</event>
<event>
 8    1  0.6945825E-009  0.1271299E+03  0.7561462E-02  0.1231778E+00
          1   -1    0    0  501    0  0.00000000000E+00  0.00000000000E+00  0.16799319948E+03  0.16799319948E+03  0.00000000000E+00 0. -1.
         -1   -1    0    0    0  501 -0.00000000000E+00 -0.00000000000E+00 -0.12974708833E+03  0.12974708833E+03  0.00000000000E+00 0.  1.
         25    2    1    2    0    0  0.97298799378E+02  0.97176307483E+01  0.21421262693E+02  0.16021211417E+03  0.12509021674E+03 0.  0.
         23    2    1    2    0    0 -0.97298799378E+02 -0.97176307483E+01  0.16824848456E+02  0.13752817363E+03  0.95233577629E+02 0.  0.
          5    1    3    3  502    0 -0.95160024728E+00  0.48711650565E+02 -0.98845499058E+01  0.49888948381E+02  0.41800000000E+01 0.  1.
         -5    1    3    3    0  502  0.98250399626E+02 -0.38994019816E+02  0.31305812599E+02  0.11032316579E+03  0.41800000000E+01 0.  1.
        -11    1    4    4    0    0 -0.60360443308E+02  0.31855821440E+01 -0.37086185565E+02  0.70914851827E+02  0.00000000000E+00 0.  1.
         11    1    4    4    0    0 -0.36938356071E+02 -0.12903212892E+02  0.53911034021E+02  0.66613321801E+02  0.00000000000E+00 0. -1.
</event>
<event>
 8    1  0.6945825E-009  0.1198443E+03  0.7561462E-02  0.1243354E+00
         -2   -1    0    0    0  501 -0.00000000000E+00  0.00000000000E+00  0.31857814279E+03  0.31857814279E+03  0.00000000000E+00 0.  1.
          2   -1    0    0  501    0  0.00000000000E+00 -0.00000000000E+00 -0.63382571973E+02  0.63382571973E+02  0.00000000000E+00 0. -1.
         25    2    1    2    0    0  0.51260773541E+02  0.53761398105E+02  0.21184335068E+03  0.25698883254E+03  0.12509076703E+03 0.  0.
         23    2    1    2    0    0 -0.51260773541E+02 -0.53761398105E+02  0.43352220134E+02  0.12497188221E+03  0.90667532907E+02 0.  0.
          5    1    3    3  502    0  0.51547132929E+02 -0.25501933217E+02  0.13369785276E+03  0.14560234800E+03  0.41800000000E+01 0. -1.
         -5    1    3    3    0  502 -0.28635938786E+00  0.79263331322E+02  0.78145497920E+02  0.11138648454E+03  0.41800000000E+01 0. -1.
        -11    1    4    4    0    0  0.72647220634E+01 -0.42420708577E+02  0.48850151371E+02  0.65104761667E+02  0.00000000000E+00 0.  1.
         11    1    4    4    0    0 -0.58525495605E+02 -0.11340689528E+02 -0.54979312361E+01  0.59867120547E+02  0.00000000000E+00 0. -1.
</event>
<event>
 8    1  0.6945825E-009  0.2957467E+03  0.7561462E-02  0.1087386E+00
         -2   -1    0    0    0  501 -0.00000000000E+00  0.00000000000E+00  0.25294617332E+03  0.25294617332E+03  0.00000000000E+00 0.  1.
          2   -1    0    0  501    0  0.00000000000E+00 -0.00000000000E+00 -0.51562484660E+03  0.51562484660E+03  0.00000000000E+00 0. -1.
         25    2    1    2    0    0 -0.22009124582E+03  0.18536176451E+03  0.68102790619E+02  0.32106402006E+03  0.12507987312E+03 0.  0.
         23    2    1    2    0    0  0.22009124582E+03 -0.18536176451E+03 -0.33078146390E+03  0.44750699986E+03  0.89705060254E+02 0.  0.
          5    1    3    3  502    0 -0.78485596406E+02  0.12938503987E+03 -0.63437052622E+01  0.15151961055E+03  0.41800000000E+01 0. -1.
         -5    1    3    3    0  502 -0.14160564941E+03  0.55976724644E+02  0.74446495881E+02  0.16954440951E+03  0.41800000000E+01 0. -1.
        -11    1    4    4    0    0  0.16273978796E+03 -0.13953453689E+03 -0.29803499962E+03  0.36712257704E+03  0.00000000000E+00 0. -1.
         11    1    4    4    0    0  0.57351457859E+02 -0.45827227622E+02 -0.32746464279E+02  0.80384422824E+02  0.00000000000E+00 0.  1.
</event>
<event>
 8    1  0.6945825E-009  0.1111533E+03  0.7561462E-02  0.1258449E+00
         -1   -1    0    0    0  501 -0.00000000000E+00  0.00000000000E+00  0.31492365434E+02  0.31492365434E+02  0.00000000000E+00 0.  1.
          1   -1    0    0  501    0  0.00000000000E+00 -0.00000000000E+00 -0.57968940389E+03  0.57968940389E+03  0.00000000000E+00 0. -1.
         25    2    1    2    0    0 -0.57229329330E+02  0.55700537784E+02 -0.32762789766E+03  0.35967399788E+03  0.12509036487E+03 0.  0.
         23    2    1    2    0    0  0.57229329330E+02 -0.55700537784E+02 -0.22056914080E+03  0.25150777144E+03  0.90706489173E+02 0.  0.
          5    1    3    3  502    0 -0.87676858231E+02  0.55646022360E+02 -0.17136417073E+03  0.20041672257E+03  0.41800000000E+01 0. -1.
         -5    1    3    3    0  502  0.30447528901E+02  0.54515424125E-01 -0.15626372693E+03  0.15925727532E+03  0.41800000000E+01 0. -1.
        -11    1    4    4    0    0  0.48461381252E+02 -0.22727875216E+02 -0.37668537734E+02  0.65452123874E+02  0.00000000000E+00 0.  1.
         11    1    4    4    0    0  0.87679480780E+01 -0.32972662568E+02 -0.18290060306E+03  0.18605564757E+03  0.00000000000E+00 0. -1.
</event>
<event>
 8    1  0.6945825E-009  0.1405230E+03  0.7561462E-02  0.1212627E+00
         -2   -1    0    0    0  501 -0.00000000000E+00  0.00000000000E+00  0.19244928730E+02  0.19244928730E+02  0.00000000000E+00 0.  1.
          2   -1    0    0  501    0  0.00000000000E+00 -0.00000000000E+00 -0.15285527863E+04  0.15285527863E+04  0.00000000000E+00 0. -1.
         25    2    1    2    0    0  0.11018999877E+03  0.70135826122E+02 -0.88710451476E+03  0.90535232986E+03  0.12509017202E+03 0.  0.
         23    2    1    2    0    0 -0.11018999877E+03 -0.70135826122E+02 -0.62220334284E+03  0.64244538520E+03  0.92402398200E+02 0.  0.
          5    1    3    3  502    0  0.41851141094E+02  0.46779064763E+02 -0.12612913776E+03  0.14094619790E+03  0.41800000000E+01 0.  1.
         -5    1    3    3    0  502  0.68338857672E+02  0.23356761358E+02 -0.76097537700E+03  0.76440613195E+03  0.41800000000E+01 0.  1.
        -11    1    4    4    0    0 -0.17682317939E+01 -0.30205705038E+02 -0.48058745772E+02  0.56790442027E+02  0.00000000000E+00 0.  1.
         11    1    4    4    0    0 -0.10842176697E+03 -0.39930121084E+02 -0.57414459707E+03  0.58565494318E+03  0.00000000000E+00 0. -1.
</event>
<event>
 8    1  0.6945825E-009  0.1003985E+03  0.7561462E-02  0.1279460E+00
         -2   -1    0    0    0  501 -0.00000000000E+00  0.00000000000E+00  0.43298572962E+02  0.43298572962E+02  0.00000000000E+00 0. -1.
          2   -1    0    0  501    0  0.00000000000E+00 -0.00000000000E+00 -0.31286419926E+03  0.31286419926E+03  0.00000000000E+00 0.  1.
         25    2    1    2    0    0 -0.32238139392E+02 -0.78552194042E+01 -0.19374363427E+03  0.23299008217E+03  0.12508709152E+03 0.  0.
         23    2    1    2    0    0  0.32238139392E+02  0.78552194042E+01 -0.75821992028E+02  0.12317269006E+03  0.91222447881E+02 0.  0.
          5    1    3    3  502    0 -0.68893043179E+02  0.25978168350E+02 -0.14718729972E+03  0.16462894712E+03  0.41800000000E+01 0.  1.
         -5    1    3    3    0  502  0.36654903787E+02 -0.33833387754E+02 -0.46556334548E+02  0.68361135048E+02  0.41800000000E+01 0.  1.
        -11    1    4    4    0    0  0.37504670532E+02  0.33818709585E+02 -0.81689034474E+02  0.96038553628E+02  0.00000000000E+00 0.  1.
         11    1    4    4    0    0 -0.52665311406E+01 -0.25963490181E+02  0.58670424462E+01  0.27134136428E+02  0.00000000000E+00 0. -1.
</event>
<event>
 8    1  0.6945825E-009  0.1005300E+03  0.7561462E-02  0.1279185E+00
         -2   -1    0    0    0  501 -0.00000000000E+00  0.00000000000E+00  0.62699109896E+02  0.62699109896E+02  0.00000000000E+00 0.  1.
          2   -1    0    0  501    0  0.00000000000E+00 -0.00000000000E+00 -0.20850158867E+03  0.20850158867E+03  0.00000000000E+00 0. -1.
         25    2    1    2    0    0 -0.72126523846E+01  0.19459256739E+02 -0.11312790623E+03  0.16993069189E+03  0.12509129407E+03 0.  0.
         23    2    1    2    0    0  0.72126523846E+01 -0.19459256739E+02 -0.32674572549E+02  0.10127000668E+03  0.93580454876E+02 0.  0.
          5    1    3    3  502    0 -0.53982498467E+02 -0.44122543544E+01 -0.10277281499E+03  0.11624672912E+03  0.41800000000E+01 0.  1.
         -5    1    3    3    0  502  0.46769846082E+02  0.23871511094E+02 -0.10355091239E+02  0.53683962773E+02  0.41800000000E+01 0.  1.
        -11    1    4    4    0    0 -0.18927353455E+02  0.31522371716E+02 -0.22427107517E+02  0.43068315256E+02  0.00000000000E+00 0. -1.
         11    1    4    4    0    0  0.26140005840E+02 -0.50981628455E+02 -0.10247465031E+02  0.58201691425E+02  0.00000000000E+00 0.  1.
</event>
<event>
 8    1  0.6945825E-009  0.1423604E+03  0.7561462E-02  0.1210188E+00
         -2   -1    0    0    0  501 -0.00000000000E+00  0.00000000000E+00  0.42027146789E+02  0.42027146789E+02  0.00000000000E+00 0.  1.
          2   -1    0    0  501    0  0.00000000000E+00 -0.00000000000E+00 -0.70787320096E+03  0.70787320096E+03  0.00000000000E+00 0. -1.
         25    2    1    2    0    0  0.62377580138E+02 -0.10744963122E+03 -0.24728460257E+03  0.30370225980E+03  0.12509597191E+03 0.  0.
         23    2    1    2    0    0 -0.62377580138E+02  0.10744963122E+03 -0.41856145160E+03  0.44619808795E+03  0.91992712577E+02 0.  0.
          5    1    3    3  502    0  0.25072265210E+02 -0.88566677402E+02 -0.24484734947E+03  0.26161110789E+03  0.41800000000E+01 0.  1.
         -5    1    3    3    0  502  0.37305314928E+02 -0.18882953817E+02 -0.24372530993E+01  0.42091151913E+02  0.41800000000E+01 0.  1.
        -11    1    4    4    0    0 -0.84861370850E+00 -0.14204270575E+02 -0.79362835108E+02  0.80628413380E+02  0.00000000000E+00 0. -1.
         11    1    4    4    0    0 -0.61528966429E+02  0.12165390179E+03 -0.33919861649E+03  0.36556967457E+03  0.00000000000E+00 0.  1.
</event>
<event>
 8    1  0.6945825E-009  0.9913644E+02  0.7561462E-02  0.1282122E+00
          1   -1    0    0  501    0  0.00000000000E+00  0.00000000000E+00  0.10012083881E+02  0.10012083881E+02  0.00000000000E+00 0. -1.
         -1   -1    0    0    0  501 -0.00000000000E+00 -0.00000000000E+00 -0.12572959824E+04  0.12572959824E+04  0.00000000000E+00 0.  1.
         25    2    1    2    0    0  0.26694298061E+01  0.26482723320E+02 -0.78962359526E+03  0.79991377798E+03  0.12509264377E+03 0.  0.
         23    2    1    2    0    0 -0.26694298061E+01 -0.26482723320E+02 -0.45766030330E+03  0.46739428834E+03  0.91082419076E+02 0.  0.
          5    1    3    3  502    0  0.20562023549E+02 -0.34879424344E+02 -0.56134253731E+03  0.56281638893E+03  0.41800000000E+01 0.  1.
         -5    1    3    3    0  502 -0.17892593743E+02  0.61362147664E+02 -0.22828105795E+03  0.23709738905E+03  0.41800000000E+01 0.  1.
        -11    1    4    4    0    0  0.37112632322E+02 -0.36958361021E+02 -0.29493232148E+03  0.29954689479E+03  0.00000000000E+00 0.  1.
         11    1    4    4    0    0 -0.39782062128E+02  0.10475637701E+02 -0.16272798182E+03  0.16784739354E+03  0.00000000000E+00 0. -1.
</event>
<event>
 8    1  0.6945825E-009  0.2299510E+03  0.7561462E-02  0.1126674E+00
          2   -1    0    0  501    0  0.00000000000E+00  0.00000000000E+00  0.24814977726E+03  0.24814977726E+03  0.00000000000E+00 0. -1.
         -2   -1    0    0    0  501 -0.00000000000E+00 -0.00000000000E+00 -0.56714373738E+03  0.56714373738E+03  0.00000000000E+00 0.  1.
         25    2    1    2    0    0 -0.21162571669E+03 -0.41552658009E+02  0.14936427760E+03  0.29063570440E+03  0.12508939961E+03 0.  0.
         23    2    1    2    0    0  0.21162571669E+03  0.41552658009E+02 -0.46835823772E+03  0.52465781025E+03  0.96924257369E+02 0.  0.
          5    1    3    3  502    0 -0.82655083463E+02  0.38816115469E+02  0.87405903935E+02  0.12647457486E+03  0.41800000000E+01 0.  1.
         -5    1    3    3    0  502 -0.12897063322E+03 -0.80368773477E+02  0.61958373663E+02  0.16416112954E+03  0.41800000000E+01 0.  1.
        -11    1    4    4    0    0  0.90602945130E+02  0.27212907580E+02 -0.10463147284E+03  0.14105736816E+03  0.00000000000E+00 0.  1.
         11    1    4    4    0    0  0.12102277156E+03  0.14339750429E+02 -0.36372676488E+03  0.38360044209E+03  0.00000000000E+00 0. -1.
</event>
<event>
 8    1  0.6945825E-009  0.1068419E+03  0.7561462E-02  0.1266532E+00
         -2   -1    0    0    0  501 -0.00000000000E+00  0.00000000000E+00  0.11993856162E+03  0.11993856162E+03  0.00000000000E+00 0.  1.
          2   -1    0    0  501    0  0.00000000000E+00 -0.00000000000E+00 -0.29533116144E+03  0.29533116144E+03  0.00000000000E+00 0. -1.
         25    2    1    2    0    0 -0.56486911802E+01  0.76686184781E+02  0.53535346002E+02  0.15629032472E+03  0.12509178103E+03 0.  0.
         23    2    1    2    0    0  0.56486911802E+01 -0.76686184781E+02 -0.22892794583E+03  0.25897939834E+03  0.93539541025E+02 0.  0.
          5    1    3    3  502    0  0.26358741549E+02  0.91203517177E+02  0.69231302307E+02  0.11757257512E+03  0.41800000000E+01 0.  1.
         -5    1    3    3    0  502 -0.32007432729E+02 -0.14517332395E+02 -0.15695956305E+02  0.38717749600E+02  0.41800000000E+01 0.  1.
        -11    1    4    4    0    0 -0.11366396713E+02 -0.12660348101E+02  0.34347154531E+01  0.17357322908E+02  0.00000000000E+00 0. -1.
         11    1    4    4    0    0  0.17015087894E+02 -0.64025836681E+02 -0.23236266128E+03  0.24162207543E+03  0.00000000000E+00 0.  1.
</event>
<event>
 8    1  0.6945825E-009  0.1018923E+03  0.7561462E-02  0.1276366E+00
         -3   -1    0    0    0  501 -0.00000000000E+00  0.00000000000E+00  0.79237297283E+02  0.79237297283E+02  0.00000000000E+00 0.  1.
          3   -1    0    0  501    0  0.00000000000E+00 -0.00000000000E+00 -0.17889915725E+03  0.17889915725E+03  0.00000000000E+00 0. -1.
         25    2    1    2    0    0 -0.29494253755E+02 -0.28391892216E+02 -0.27548972772E+02  0.13446875175E+03  0.12508752435E+03 0.  0.
         23    2    1    2    0    0  0.29494253755E+02  0.28391892216E+02 -0.72112887197E+02  0.12366770278E+03  0.91746507640E+02 0.  0.
          5    1    3    3  502    0  0.18269617507E+02 -0.49587507539E+02  0.26420635568E+02  0.59230247438E+02  0.41800000000E+01 0. -1.
         -5    1    3    3    0  502 -0.47763871262E+02  0.21195615323E+02 -0.53969608339E+02  0.75238504312E+02  0.41800000000E+01 0. -1.
        -11    1    4    4    0    0 -0.23745280008E+02  0.37452932170E+02 -0.20100252364E+02  0.48688608482E+02  0.00000000000E+00 0.  1.
         11    1    4    4    0    0  0.53239533763E+02 -0.90610399541E+01 -0.52012634832E+02  0.74979094303E+02  0.00000000000E+00 0. -1.
</event>
<event>
 8    1  0.6945825E-009  0.1079834E+03  0.7561462E-02  0.1264350E+00
          2   -1    0    0  501    0  0.00000000000E+00  0.00000000000E+00  0.33582576878E+03  0.33582576878E+03  0.00000000000E+00 0. -1.
         -2   -1    0    0    0  501 -0.00000000000E+00 -0.00000000000E+00 -0.45942485569E+02  0.45942485569E+02  0.00000000000E+00 0.  1.
         25    2    1    2    0    0 -0.52414106087E+02  0.39801522433E+01  0.13712994062E+03  0.19291063283E+03  0.12508721564E+03 0.  0.
         23    2    1    2    0    0  0.52414106087E+02 -0.39801522433E+01  0.15275334258E+03  0.18885762151E+03  0.97829123498E+02 0.  0.
          5    1    3    3  502    0  0.72006025004E+01 -0.46636653290E+02  0.89453696170E+02  0.10122382262E+03  0.41800000000E+01 0.  1.
         -5    1    3    3    0  502 -0.59614708587E+02  0.50616805534E+02  0.47676244455E+02  0.91686810217E+02  0.41800000000E+01 0.  1.
        -11    1    4    4    0    0  0.66800249970E+00  0.28939057481E+02  0.11088079884E+03  0.11459697564E+03  0.00000000000E+00 0. -1.
         11    1    4    4    0    0  0.51746103587E+02 -0.32919209724E+02  0.41872543742E+02  0.74260645868E+02  0.00000000000E+00 0.  1.
</event>
<event>
 8    1  0.6945825E-009  0.1022483E+03  0.7561462E-02  0.1275638E+00
          1   -1    0    0  501    0  0.00000000000E+00  0.00000000000E+00  0.44367718351E+02  0.44367718351E+02  0.00000000000E+00 0. -1.
         -1   -1    0    0    0  501 -0.00000000000E+00 -0.00000000000E+00 -0.29781981062E+03  0.29781981062E+03  0.00000000000E+00 0.  1.
         25    2    1    2    0    0  0.10660791586E+01 -0.40592825798E+02 -0.14927081812E+03  0.19894311942E+03  0.12509066150E+03 0.  0.
         23    2    1    2    0    0 -0.10660791586E+01  0.40592825798E+02 -0.10418127415E+03  0.14324440955E+03  0.89533842491E+02 0.  0.
          5    1    3    3  502    0  0.47862533391E+02 -0.46802024251E+02 -0.35922663321E+02  0.76086540969E+02  0.41800000000E+01 0.  1.
         -5    1    3    3    0  502 -0.46796454232E+02  0.62091984530E+01 -0.11334815479E+03  0.12285657845E+03  0.41800000000E+01 0.  1.
        -11    1    4    4    0    0 -0.40656079857E+02  0.18142824658E+02 -0.80375799351E+02  0.91882250937E+02  0.00000000000E+00 0.  1.
         11    1    4    4    0    0  0.39590000698E+02  0.22450001140E+02 -0.23805474801E+02  0.51362158609E+02  0.00000000000E+00 0. -1.
</event>
<event>
 8    1  0.6945825E-009  0.8991914E+02  0.7561462E-02  0.1303048E+00
         -2   -1    0    0    0  501 -0.00000000000E+00  0.00000000000E+00  0.58255275886E+03  0.58255275886E+03  0.00000000000E+00 0. -1.
          2   -1    0    0  501    0  0.00000000000E+00 -0.00000000000E+00 -0.21655878975E+02  0.21655878975E+02  0.00000000000E+00 0.  1.
         25    2    1    2    0    0 -0.63563182552E+01 -0.30635322411E+02  0.33429409177E+03  0.35829478167E+03  0.12507471774E+03 0.  0.
         23    2    1    2    0    0  0.63563182552E+01  0.30635322411E+02  0.22660278811E+03  0.24591385617E+03  0.90254503004E+02 0.  0.
          5    1    3    3  502    0 -0.49957464093E+02 -0.18656668083E+02  0.60480917886E+02  0.80741769307E+02  0.41800000000E+01 0.  1.
         -5    1    3    3    0  502  0.43601145838E+02 -0.11978654328E+02  0.27381317388E+03  0.27755301236E+03  0.41800000000E+01 0.  1.
        -11    1    4    4    0    0 -0.33178131774E+02  0.43487818661E+01  0.16381428989E+03  0.16719695542E+03  0.00000000000E+00 0. -1.
         11    1    4    4    0    0  0.39534450030E+02  0.26286540545E+02  0.62788498228E+02  0.78716900744E+02  0.00000000000E+00 0.  1.
</event>
<event>
 8    1  0.6945825E-009  0.1408761E+03  0.7561462E-02  0.1212155E+00
          2   -1    0    0  501    0  0.00000000000E+00  0.00000000000E+00  0.51913937803E+03  0.51913937803E+03  0.00000000000E+00 0. -1.
         -2   -1    0    0    0  501 -0.00000000000E+00 -0.00000000000E+00 -0.47271512475E+02  0.47271512475E+02  0.00000000000E+00 0.  1.
         25    2    1    2    0    0 -0.90285174481E+02  0.59326112640E+02  0.20082943895E+03  0.26009891513E+03  0.12509189314E+03 0.  0.
         23    2    1    2    0    0  0.90285174481E+02 -0.59326112640E+02  0.27103842661E+03  0.30631197538E+03  0.93242679022E+02 0.  0.
          5    1    3    3  502    0 -0.10826578219E+03  0.74967406890E+02  0.19478451496E+03  0.23515967204E+03  0.41800000000E+01 0. -1.
         -5    1    3    3    0  502  0.17980607712E+02 -0.15641294250E+02  0.60449239945E+01  0.24939243084E+02  0.41800000000E+01 0. -1.
        -11    1    4    4    0    0  0.59125463021E+02 -0.37870385557E+00  0.20140160720E+03  0.20990133677E+03  0.00000000000E+00 0. -1.
         11    1    4    4    0    0  0.31159711460E+02 -0.58947408784E+02  0.69636819412E+02  0.96410638616E+02  0.00000000000E+00 0.  1.
</event>
<event>
 8    1  0.6945825E-009  0.8123346E+02  0.7561462E-02  0.1325587E+00
          1   -1    0    0  501    0  0.00000000000E+00  0.00000000000E+00  0.55079150211E+03  0.55079150211E+03  0.00000000000E+00 0. -1.
         -1   -1    0    0    0  501 -0.00000000000E+00 -0.00000000000E+00 -0.28356343199E+02  0.28356343199E+02  0.00000000000E+00 0.  1.
         25    2    1    2    0    0 -0.12199893747E+02 -0.58635761757E+00  0.43085586364E+03  0.44881349204E+03  0.12509034408E+03 0.  0.
         23    2    1    2    0    0  0.12199893747E+02  0.58635761757E+00  0.91579295270E+02  0.13033435326E+03  0.91929837899E+02 0.  0.
          5    1    3    3  502    0  0.13742069813E+02  0.47265387916E+02  0.82141177721E+02  0.95851483322E+02  0.41800000000E+01 0. -1.
         -5    1    3    3    0  502 -0.25941963560E+02 -0.47851745534E+02  0.34871468592E+03  0.35296200872E+03  0.41800000000E+01 0. -1.
        -11    1    4    4    0    0  0.27646391735E+02 -0.18989181991E+02  0.98829715550E+02  0.10436582144E+03  0.00000000000E+00 0. -1.
         11    1    4    4    0    0 -0.15446497988E+02  0.19575539609E+02 -0.72504202799E+01  0.25968531828E+02  0.00000000000E+00 0.  1.
</event>
<event>
 8    1  0.6945825E-009  0.2592924E+03  0.7561462E-02  0.1107569E+00
          2   -1    0    0  501    0  0.00000000000E+00  0.00000000000E+00  0.75192731874E+02  0.75192731874E+02  0.00000000000E+00 0. -1.
         -2   -1    0    0    0  501 -0.00000000000E+00 -0.00000000000E+00 -0.10054883462E+04  0.10054883462E+04  0.00000000000E+00 0.  1.
         25    2    1    2    0    0 -0.22302904414E+03 -0.10291491320E+03 -0.36353883658E+03  0.45622472543E+03  0.12508829081E+03 0.  0.
         23    2    1    2    0    0  0.22302904414E+03  0.10291491320E+03 -0.56675677774E+03  0.62445635264E+03  0.91646371181E+02 0.  0.
          5    1    3    3  502    0 -0.77931844199E+02 -0.99956317863E+02 -0.13293340095E+03  0.18372098222E+03  0.41800000000E+01 0. -1.
         -5    1    3    3    0  502 -0.14509719994E+03 -0.29585953410E+01 -0.23060543564E+03  0.27250374321E+03  0.41800000000E+01 0. -1.
        -11    1    4    4    0    0  0.53027143036E+02  0.34887298864E+02 -0.67387477715E+02  0.92574692402E+02  0.00000000000E+00 0. -1.
         11    1    4    4    0    0  0.17000190110E+03  0.68027614340E+02 -0.49936930002E+03  0.53188166024E+03  0.00000000000E+00 0.  1.
</event>
<event>
 8    1  0.6945825E-009  0.1143421E+03  0.7561462E-02  0.1252734E+00
         -2   -1    0    0    0  501 -0.00000000000E+00  0.00000000000E+00  0.11819807533E+03  0.11819807533E+03  0.00000000000E+00 0.  1.
          2   -1    0    0  501    0  0.00000000000E+00 -0.00000000000E+00 -0.42840644943E+03  0.42840644943E+03  0.00000000000E+00 0. -1.
         25    2    1    2    0    0 -0.15138635432E+02  0.41534912607E+02  0.71755931084E+02  0.15083348566E+03  0.12508996564E+03 0.  0.
         23    2    1    2    0    0  0.15138635432E+02 -0.41534912607E+02 -0.38196430518E+03  0.39577103911E+03  0.93721170039E+02 0.  0.
          5    1    3    3  502    0 -0.62362400599E+02  0.46869247760E+02  0.66946848277E+02  0.10288414984E+03  0.41800000000E+01 0.  1.
         -5    1    3    3    0  502  0.47223765167E+02 -0.53343351533E+01  0.48090828065E+01  0.47949335820E+02  0.41800000000E+01 0.  1.
        -11    1    4    4    0    0  0.40869782139E+01  0.30097288805E+02 -0.13597243209E+03  0.13932355319E+03  0.00000000000E+00 0.  1.
         11    1    4    4    0    0  0.11051657218E+02 -0.71632201412E+02 -0.24599187309E+03  0.25644748591E+03  0.00000000000E+00 0. -1.
</event>
<event>
 8    1  0.6945825E-009  0.1229863E+03  0.7561462E-02  0.1238250E+00
         -2   -1    0    0    0  501 -0.00000000000E+00  0.00000000000E+00  0.10420149728E+02  0.10420149728E+02  0.00000000000E+00 0.  1.
          2   -1    0    0  501    0  0.00000000000E+00 -0.00000000000E+00 -0.19713931204E+04  0.19713931204E+04  0.00000000000E+00 0. -1.
         25    2    1    2    0    0  0.60977490533E+02  0.16773495561E+02 -0.15578375551E+04  0.15641302522E+04  0.12508394489E+03 0.  0.
         23    2    1    2    0    0 -0.60977490533E+02 -0.16773495561E+02 -0.40313541551E+03  0.41768301786E+03  0.89114172093E+02 0.  0.
          5    1    3    3  502    0 -0.52351041888E+01 -0.46750378247E+02 -0.62480392138E+03  0.62658632027E+03  0.41800000000E+01 0.  1.
         -5    1    3    3    0  502  0.66212594722E+02  0.63523873808E+02 -0.93303363376E+03  0.93754393197E+03  0.41800000000E+01 0.  1.
        -11    1    4    4    0    0 -0.61131187113E+02  0.24325345660E+02 -0.28837333799E+03  0.29578358058E+03  0.00000000000E+00 0. -1.
         11    1    4    4    0    0  0.15369658007E+00 -0.41098841221E+02 -0.11476207752E+03  0.12189943728E+03  0.00000000000E+00 0.  1.
</event>
<event>
 8    1  0.6945825E-009  0.1122586E+03  0.7561462E-02  0.1256444E+00
         -2   -1    0    0    0  501 -0.00000000000E+00  0.00000000000E+00  0.37365999851E+02  0.37365999851E+02  0.00000000000E+00 0.  1.
          2   -1    0    0  501    0  0.00000000000E+00 -0.00000000000E+00 -0.39023094454E+03  0.39023094454E+03  0.00000000000E+00 0. -1.
         25    2    1    2    0    0  0.20251371618E+02 -0.33232148705E+02 -0.26585265041E+03  0.29637601376E+03  0.12508643429E+03 0.  0.
         23    2    1    2    0    0 -0.20251371618E+02  0.33232148705E+02 -0.87012294277E+02  0.13122093063E+03  0.90184807587E+02 0.  0.
          5    1    3    3  502    0  0.18354456884E+02  0.45825445866E+02 -0.13010745567E+03  0.13922025714E+03  0.41800000000E+01 0.  1.
         -5    1    3    3    0  502  0.18969147345E+01 -0.79057594571E+02 -0.13574519474E+03  0.15715575662E+03  0.41800000000E+01 0.  1.
        -11    1    4    4    0    0  0.23141511999E+01  0.60413525100E+02 -0.68404394272E+02  0.91292444739E+02  0.00000000000E+00 0. -1.
         11    1    4    4    0    0 -0.22565522818E+02 -0.27181376395E+02 -0.18607900005E+02  0.39928485889E+02  0.00000000000E+00 0.  1.
</event>
<event>
 8    1  0.6945825E-009  0.1613020E+03  0.7561462E-02  0.1187235E+00
         -1   -1    0    0    0  501 -0.00000000000E+00  0.00000000000E+00  0.40575959990E+02  0.40575959990E+02  0.00000000000E+00 0.  1.
          1   -1    0    0  501    0  0.00000000000E+00 -0.00000000000E+00 -0.74317594921E+03  0.74317594921E+03  0.00000000000E+00 0. -1.
         25    2    1    2    0    0  0.13459520070E+03  0.15018326511E+02 -0.37747338106E+03  0.42008952976E+03  0.12509053290E+03 0.  0.
         23    2    1    2    0    0 -0.13459520070E+03 -0.15018326511E+02 -0.32512660816E+03  0.36366237944E+03  0.90562667270E+02 0.  0.
          5    1    3    3  502    0 -0.13777246103E+02  0.11938310350E+02 -0.13120820481E+03  0.13253452823E+03  0.41800000000E+01 0.  1.
         -5    1    3    3    0  502  0.14837244681E+03  0.30800161612E+01 -0.24626517625E+03  0.28755500153E+03  0.41800000000E+01 0.  1.
        -11    1    4    4    0    0 -0.75608861418E+01 -0.26811346420E+02 -0.24552399457E+02  0.37132675842E+02  0.00000000000E+00 0.  1.
         11    1    4    4    0    0 -0.12703431456E+03  0.11793019909E+02 -0.30057420870E+03  0.32652970360E+03  0.00000000000E+00 0. -1.
</event>
<event>
 8    1  0.6945825E-009  0.1809154E+03  0.7561462E-02  0.1166920E+00
          1   -1    0    0  501    0  0.00000000000E+00  0.00000000000E+00  0.10969732252E+03  0.10969732252E+03  0.00000000000E+00 0. -1.
         -1   -1    0    0    0  501 -0.00000000000E+00 -0.00000000000E+00 -0.34682645339E+03  0.34682645339E+03  0.00000000000E+00 0.  1.
         25    2    1    2    0    0  0.56019214309E+02 -0.15359011222E+03 -0.11585768011E+03  0.23621680974E+03  0.12508918507E+03 0.  0.
         23    2    1    2    0    0 -0.56019214309E+02  0.15359011222E+03 -0.12127145076E+03  0.22030696617E+03  0.84263394372E+02 0.  0.
          5    1    3    3  502    0  0.74429741502E+02 -0.11875058290E+03 -0.32511622637E+02  0.14393041849E+03  0.41800000000E+01 0. -1.
         -5    1    3    3    0  502 -0.18410527193E+02 -0.34839529317E+02 -0.83346057470E+02  0.92286391252E+02  0.41800000000E+01 0. -1.
        -11    1    4    4    0    0 -0.46751163865E+02  0.24895618514E+02 -0.50316559730E+02  0.73056275070E+02  0.00000000000E+00 0.  1.
         11    1    4    4    0    0 -0.92680504432E+01  0.12869449370E+03 -0.70954891028E+02  0.14725069110E+03  0.00000000000E+00 0. -1.
</event>
<event>
 8    1  0.6945825E-009  0.1413739E+03  0.7561462E-02  0.1211492E+00
          3   -1    0    0  501    0  0.00000000000E+00  0.00000000000E+00  0.23847121964E+03  0.23847121964E+03  0.00000000000E+00 0. -1.
         -3   -1    0    0    0  501 -0.00000000000E+00 -0.00000000000E+00 -0.16754671007E+03  0.16754671007E+03  0.00000000000E+00 0.  1.
         25    2    1    2    0    0 -0.16093508810E+02  0.90679239820E+02  0.17929107698E+03  0.23722494962E+03  0.12509460771E+03 0.  0.
         23    2    1    2    0    0  0.16093508810E+02 -0.90679239820E+02 -0.10836656741E+03  0.16879298009E+03  0.90917719042E+02 0.  0.
          5    1    3    3  502    0 -0.41434171853E+02 -0.16743733661E+02  0.52636135135E+02  0.69174983455E+02  0.41800000000E+01 0.  1.
         -5    1    3    3    0  502  0.25340663043E+02  0.10742297348E+03  0.12665494184E+03  0.16804996616E+03  0.41800000000E+01 0.  1.
        -11    1    4    4    0    0 -0.11099937970E+02 -0.98494960044E+02 -0.71006436349E+02  0.12192776460E+03  0.00000000000E+00 0. -1.
         11    1    4    4    0    0  0.27193446780E+02  0.78157202231E+01 -0.37360131061E+02  0.46865215494E+02  0.00000000000E+00 0.  1.
</event>
<event>
 8    1  0.6945825E-009  0.1182482E+03  0.7561462E-02  0.1246015E+00
         -1   -1    0    0    0  501 -0.00000000000E+00  0.00000000000E+00  0.31055211728E+02  0.31055211728E+02  0.00000000000E+00 0.  1.
          1   -1    0    0  501    0  0.00000000000E+00 -0.00000000000E+00 -0.55521767229E+03  0.55521767229E+03  0.00000000000E+00 0. -1.
         25    2    1    2    0    0  0.74511092460E+02 -0.76120469181E+01 -0.32261258496E+03  0.35402854489E+03  0.12508990552E+03 0.  0.
         23    2    1    2    0    0 -0.74511092460E+02  0.76120469181E+01 -0.20154987560E+03  0.23224433913E+03  0.87779465394E+02 0.  0.
          5    1    3    3  502    0 -0.25969854606E+02  0.12205743609E+02 -0.15398418149E+03  0.15669082320E+03  0.41800000000E+01 0. -1.
         -5    1    3    3    0  502  0.10048094707E+03 -0.19817790527E+02 -0.16862840347E+03  0.19733772169E+03  0.41800000000E+01 0. -1.
        -11    1    4    4    0    0  0.10700907800E+02  0.16133103840E+02 -0.87534927933E+02  0.89650153795E+02  0.00000000000E+00 0. -1.
         11    1    4    4    0    0 -0.85212000259E+02 -0.85210569221E+01 -0.11401494767E+03  0.14259418533E+03  0.00000000000E+00 0.  1.
</event>
<event>
 8    1  0.6945825E-009  0.2318382E+03  0.7561462E-02  0.1125353E+00
         -2   -1    0    0    0  501 -0.00000000000E+00  0.00000000000E+00  0.77219913270E+02  0.77219913270E+02  0.00000000000E+00 0.  1.
          2   -1    0    0  501    0  0.00000000000E+00 -0.00000000000E+00 -0.92384512881E+03  0.92384512881E+03  0.00000000000E+00 0. -1.
         25    2    1    2    0    0  0.10182852633E+03  0.18390080298E+03 -0.20232923238E+03  0.31744809715E+03  0.12509045525E+03 0.  0.
         23    2    1    2    0    0 -0.10182852633E+03 -0.18390080298E+03 -0.64429598316E+03  0.68361694493E+03  0.89589393193E+02 0.  0.
          5    1    3    3  502    0 -0.26814099776E+02  0.11557035476E+02 -0.23217901749E+02  0.37538039073E+02  0.41800000000E+01 0.  1.
         -5    1    3    3    0  502  0.12864262611E+03  0.17234376751E+03 -0.17911133063E+03  0.27991005808E+03  0.41800000000E+01 0.  1.
        -11    1    4    4    0    0 -0.62950610626E+01 -0.70585733536E+02 -0.30903360759E+03  0.31705479683E+03  0.00000000000E+00 0.  1.
         11    1    4    4    0    0 -0.95533465272E+02 -0.11331506945E+03 -0.33526237557E+03  0.36656214810E+03  0.00000000000E+00 0. -1.
</event>
<event>
 8    1  0.6945825E-009  0.1139206E+03  0.7561462E-02  0.1253477E+00
         -1   -1    0    0    0  501 -0.00000000000E+00  0.00000000000E+00  0.18272318117E+02  0.18272318117E+02  0.00000000000E+00 0.  1.
          1   -1    0    0  501    0  0.00000000000E+00 -0.00000000000E+00 -0.10712429544E+04  0.10712429544E+04  0.00000000000E+00 0. -1.
         25    2    1    2    0    0  0.46737891044E+02  0.73378336822E+02 -0.65518590955E+03  0.67267037398E+03  0.12509214673E+03 0.  0.
         23    2    1    2    0    0 -0.46737891044E+02 -0.73378336822E+02 -0.39778472671E+03  0.41684489852E+03  0.89208574959E+02 0.  0.
          5    1    3    3  502    0 -0.19920538733E+02  0.42177882733E+02 -0.48433909155E+03  0.48659801650E+03  0.41800000000E+01 0.  1.
         -5    1    3    3    0  502  0.66658429777E+02  0.31200454089E+02 -0.17084681800E+03  0.18607235748E+03  0.41800000000E+01 0.  1.
        -11    1    4    4    0    0  0.11210072421E+02 -0.37489949480E+02 -0.55918011569E+02  0.68249439950E+02  0.00000000000E+00 0.  1.
         11    1    4    4    0    0 -0.57947963466E+02 -0.35888387342E+02 -0.34186671514E+03  0.34859545857E+03  0.00000000000E+00 0. -1.
</event>
<event>
 8    1  0.6945825E-009  0.8719013E+02  0.7561462E-02  0.1309802E+00
         -1   -1    0    0    0  501 -0.00000000000E+00  0.00000000000E+00  0.34305704940E+02  0.34305704940E+02  0.00000000000E+00 0.  1.
          1   -1    0    0  501    0  0.00000000000E+00 -0.00000000000E+00 -0.39766230140E+03  0.39766230140E+03  0.00000000000E+00 0. -1.
         25    2    1    2    0    0  0.12377984734E+02  0.81210111852E+01 -0.28491797981E+03  0.31152008134E+03  0.12508933022E+03 0.  0.
         23    2    1    2    0    0 -0.12377984734E+02 -0.81210111852E+01 -0.78438616652E+02  0.12044792500E+03  0.90199338828E+02 0.  0.
          5    1    3    3  502    0 -0.42341385027E+02 -0.94329699126E+01 -0.22187196396E+03  0.22611150921E+03  0.41800000000E+01 0. -1.
         -5    1    3    3    0  502  0.54719369760E+02  0.17553981098E+02 -0.63046015853E+02  0.85408572136E+02  0.41800000000E+01 0. -1.
        -11    1    4    4    0    0  0.23050679209E+02 -0.24942553343E+02 -0.13890909042E+01  0.33991092257E+02  0.00000000000E+00 0.  1.
         11    1    4    4    0    0 -0.35428663943E+02  0.16821542158E+02 -0.77049525748E+02  0.86456832740E+02  0.00000000000E+00 0. -1.
</event>
<event>
 8    1  0.6945825E-009  0.1196589E+03  0.7561462E-02  0.1243661E+00
         -1   -1    0    0    0  501 -0.00000000000E+00  0.00000000000E+00  0.20526751029E+03  0.20526751029E+03  0.00000000000E+00 0.  1.
          1   -1    0    0  501    0  0.00000000000E+00 -0.00000000000E+00 -0.11798579888E+03  0.11798579888E+03  0.00000000000E+00 0. -1.
         25    2    1    2    0    0  0.52772684346E+02 -0.74564151158E+02 -0.18459383889E+02  0.15599636752E+03  0.12509735798E+03 0.  0.
         23    2    1    2    0    0 -0.52772684346E+02  0.74564151158E+02  0.10574109530E+03  0.16725694165E+03  0.91918096390E+02 0.  0.
          5    1    3    3  502    0 -0.31704098738E+02 -0.46212127052E+02 -0.33656875311E+02  0.65505482359E+02  0.41800000000E+01 0. -1.
         -5    1    3    3    0  502  0.84476783083E+02 -0.28352024106E+02  0.15197491422E+02  0.90490885157E+02  0.41800000000E+01 0. -1.
        -11    1    4    4    0    0 -0.11870227307E+01  0.15291645409E+02 -0.16125168786E+02  0.22254539103E+02  0.00000000000E+00 0. -1.
         11    1    4    4    0    0 -0.51585661615E+02  0.59272505749E+02  0.12186626409E+03  0.14500240255E+03  0.00000000000E+00 0.  1.
</event>
<event>
 8    1  0.6945825E-009  0.1623096E+03  0.7561462E-02  0.1186114E+00
          1   -1    0    0  501    0  0.00000000000E+00  0.00000000000E+00  0.45326247903E+03  0.45326247903E+03  0.00000000000E+00 0. -1.
         -1   -1    0    0    0  501 -0.00000000000E+00 -0.00000000000E+00 -0.82953870824E+02  0.82953870824E+02  0.00000000000E+00 0.  1.
         25    2    1    2    0    0 -0.22915842613E+02  0.15386837214E+03  0.13373501881E+03  0.24027778152E+03  0.12509094791E+03 0.  0.
         23    2    1    2    0    0  0.22915842613E+02 -0.15386837214E+03  0.23657358940E+03  0.29593856834E+03  0.86092747892E+02 0.  0.
          5    1    3    3  502    0 -0.32296583471E+02  0.14427639689E+03  0.51142774145E+02  0.15649857427E+03  0.41800000000E+01 0.  1.
         -5    1    3    3    0  502  0.93807408582E+01  0.95919752531E+01  0.82592244661E+02  0.83779207244E+02  0.41800000000E+01 0.  1.
        -11    1    4    4    0    0  0.19542080763E+02 -0.17446212039E+02  0.43044880437E+01  0.26547916159E+02  0.00000000000E+00 0.  1.
         11    1    4    4    0    0  0.33737618496E+01 -0.13642216010E+03  0.23226910136E+03  0.26939065218E+03  0.00000000000E+00 0. -1.
</event>
<event>
 8    1  0.6945825E-009  0.1210719E+03  0.7561462E-02  0.1241339E+00
          3   -1    0    0  501    0  0.00000000000E+00  0.00000000000E+00  0.23794791542E+03  0.23794791542E+03  0.00000000000E+00 0. -1.
         -3   -1    0    0    0  501 -0.00000000000E+00 -0.00000000000E+00 -0.76529632166E+02  0.76529632166E+02  0.00000000000E+00 0.  1.
         25    2    1    2    0    0  0.68705530985E+02  0.37384055903E+02  0.63687732044E+02  0.16069067207E+03  0.12508935707E+03 0.  0.
         23    2    1    2    0    0 -0.68705530985E+02 -0.37384055903E+02  0.97730551210E+02  0.15378687552E+03  0.89337141313E+02 0.  0.
          5    1    3    3  502    0  0.30617685671E+02 -0.45321646749E+02  0.35264177802E+02  0.65211417528E+02  0.41800000000E+01 0. -1.
         -5    1    3    3    0  502  0.38087845315E+02  0.82705702653E+02  0.28423554242E+02  0.95479254541E+02  0.41800000000E+01 0. -1.
        -11    1    4    4    0    0 -0.67343534428E+02 -0.49732177489E+02  0.36532052318E+02  0.91340199002E+02  0.00000000000E+00 0.  1.
         11    1    4    4    0    0 -0.13619965574E+01  0.12348121586E+02  0.61198498892E+02  0.62446676516E+02  0.00000000000E+00 0. -1.
</event>
<event>
 8    1  0.6945825E-009  0.1078598E+03  0.7561462E-02  0.1264585E+00
          1   -1    0    0  501    0  0.00000000000E+00  0.00000000000E+00  0.59264350839E+03  0.59264350839E+03  0.00000000000E+00 0. -1.
         -1   -1    0    0    0  501 -0.00000000000E+00 -0.00000000000E+00 -0.36471051157E+02  0.36471051157E+02  0.00000000000E+00 0.  1.
         25    2    1    2    0    0  0.28835539874E+02  0.78621909060E+02  0.41383441388E+03  0.44036150110E+03  0.12508571701E+03 0.  0.
         23    2    1    2    0    0 -0.28835539874E+02 -0.78621909060E+02  0.14233804336E+03  0.18875305844E+03  0.91404078364E+02 0.  0.
          5    1    3    3  502    0  0.34914757784E+02  0.32769562754E+02  0.36952069274E+02  0.60628478274E+02  0.41800000000E+01 0. -1.
         -5    1    3    3    0  502 -0.60792179102E+01  0.45852346306E+02  0.37688234460E+03  0.37973302283E+03  0.41800000000E+01 0. -1.
        -11    1    4    4    0    0 -0.54067747387E+02 -0.20455348221E+02  0.87792955277E+02  0.10511586738E+03  0.00000000000E+00 0.  1.
         11    1    4    4    0    0  0.25232207513E+02 -0.58166560840E+02  0.54545088079E+02  0.83637191066E+02  0.00000000000E+00 0. -1.
</event>
<event>
 8    1  0.6945825E-009  0.1549328E+03  0.7561462E-02  0.1194539E+00
          1   -1    0    0  501    0  0.00000000000E+00  0.00000000000E+00  0.24141657662E+03  0.24141657662E+03  0.00000000000E+00 0. -1.
         -1   -1    0    0    0  501 -0.00000000000E+00 -0.00000000000E+00 -0.11404192485E+03  0.11404192485E+03  0.00000000000E+00 0.  1.
         25    2    1    2    0    0  0.81468227922E+02 -0.75119397013E+02  0.76098515697E+01  0.16728773689E+03  0.12508909267E+03 0.  0.
         23    2    1    2    0    0 -0.81468227922E+02  0.75119397013E+02  0.11976480020E+03  0.18817076457E+03  0.93726374639E+02 0.  0.
          5    1    3    3  502    0 -0.21547460372E+02 -0.58752042626E+02  0.34735240466E+01  0.62814276486E+02  0.41800000000E+01 0.  1.
         -5    1    3    3    0  502  0.10301568829E+03 -0.16367354388E+02  0.41363275230E+01  0.10447346041E+03  0.41800000000E+01 0.  1.
        -11    1    4    4    0    0 -0.97697442354E+02  0.79488032063E+02  0.11536196521E+03  0.17079672275E+03  0.00000000000E+00 0. -1.
         11    1    4    4    0    0  0.16229214432E+02 -0.43686350493E+01  0.44028349896E+01  0.17374041822E+02  0.00000000000E+00 0.  1.
</event>
<event>
 8    1  0.6945825E-009  0.1060439E+03  0.7561462E-02  0.1268076E+00
         -2   -1    0    0    0  501 -0.00000000000E+00  0.00000000000E+00  0.52374085804E+02  0.52374085804E+02  0.00000000000E+00 0.  1.
          2   -1    0    0  501    0  0.00000000000E+00 -0.00000000000E+00 -0.33142779319E+03  0.33142779319E+03  0.00000000000E+00 0. -1.
         25    2    1    2    0    0 -0.69797844693E+02 -0.51939072982E+00 -0.19792766107E+03  0.24433057450E+03  0.12510020676E+03 0.  0.
         23    2    1    2    0    0  0.69797844693E+02  0.51939072982E+00 -0.81126046325E+02  0.13947130449E+03  0.89436013410E+02 0.  0.
          5    1    3    3  502    0 -0.51721394495E+02  0.59288287582E+02 -0.90560584353E+02  0.12003705899E+03  0.41800000000E+01 0.  1.
         -5    1    3    3    0  502 -0.18076450198E+02 -0.59807678312E+02 -0.10736707671E+03  0.12429351551E+03  0.41800000000E+01 0.  1.
        -11    1    4    4    0    0  0.30023940490E+02 -0.52814040110E+01 -0.92748516478E+02  0.97630003276E+02  0.00000000000E+00 0. -1.
         11    1    4    4    0    0  0.39773904203E+02  0.58007947408E+01  0.11622470153E+02  0.41841301218E+02  0.00000000000E+00 0.  1.
</event>
<event>
 8    1  0.6945825E-009  0.1004998E+03  0.7561462E-02  0.1279248E+00
         -2   -1    0    0    0  501 -0.00000000000E+00  0.00000000000E+00  0.32808648358E+02  0.32808648358E+02  0.00000000000E+00 0.  1.
          2   -1    0    0  501    0  0.00000000000E+00 -0.00000000000E+00 -0.57427215645E+03  0.57427215645E+03  0.00000000000E+00 0. -1.
         25    2    1    2    0    0  0.39398791930E+02  0.18888724722E+02 -0.46655585196E+03  0.48500605566E+03  0.12508981695E+03 0.  0.
         23    2    1    2    0    0 -0.39398791930E+02 -0.18888724722E+02 -0.74907656127E+02  0.12207474914E+03  0.85918791332E+02 0.  0.
          5    1    3    3  502    0 -0.15108236547E+02 -0.28696729210E+02 -0.31837932401E+03  0.32005410080E+03  0.41800000000E+01 0.  1.
         -5    1    3    3    0  502  0.54507028477E+02  0.47585453932E+02 -0.14817652795E+03  0.16495195486E+03  0.41800000000E+01 0.  1.
        -11    1    4    4    0    0  0.20830851928E+02 -0.28010605052E+02 -0.21044219552E+02  0.40759999558E+02  0.00000000000E+00 0. -1.
         11    1    4    4    0    0 -0.60229643857E+02  0.91218803295E+01 -0.53863436575E+02  0.81314749582E+02  0.00000000000E+00 0.  1.
</event>
<event>
 8    1  0.6945825E-009  0.7796132E+02  0.7561462E-02  0.1334939E+00
          1   -1    0    0  501    0  0.00000000000E+00  0.00000000000E+00  0.35557796659E+03  0.35557796659E+03  0.00000000000E+00 0. -1.
         -1   -1    0    0    0  501 -0.00000000000E+00 -0.00000000000E+00 -0.36317009339E+02  0.36317009339E+02  0.00000000000E+00 0.  1.
         25    2    1    2    0    0  0.55590462537E+00 -0.32065506061E+02  0.19205689387E+03  0.23142523557E+03  0.12507311250E+03 0.  0.
         23    2    1    2    0    0 -0.55590462537E+00  0.32065506061E+02  0.12720406339E+03  0.16046974036E+03  0.92418386264E+02 0.  0.
          5    1    3    3  502    0 -0.22013421366E+02 -0.32106812757E+01  0.19321497063E+03  0.19453636285E+03  0.41800000000E+01 0. -1.
         -5    1    3    3    0  502  0.22569325991E+02 -0.28854824785E+02 -0.11580767646E+01  0.36888872724E+02  0.41800000000E+01 0. -1.
        -11    1    4    4    0    0 -0.45473400512E+02  0.10897965924E+02  0.48187766629E+02  0.67146531318E+02  0.00000000000E+00 0.  1.
         11    1    4    4    0    0  0.44917495887E+02  0.21167540137E+02  0.79016296758E+02  0.93323209040E+02  0.00000000000E+00 0. -1.
</event>
<event>
 8    1  0.6945825E-009  0.1144317E+03  0.7561462E-02  0.1252576E+00
          2   -1    0    0  501    0  0.00000000000E+00  0.00000000000E+00  0.27019703734E+03  0.27019703734E+03  0.00000000000E+00 0. -1.
         -2   -1    0    0    0  501 -0.00000000000E+00 -0.00000000000E+00 -0.72066807339E+02  0.72066807339E+02  0.00000000000E+00 0.  1.
         25    2    1    2    0    0  0.49852508680E+02  0.57201597716E+02  0.55632248642E+02  0.15652872693E+03  0.12509596261E+03 0.  0.
         23    2    1    2    0    0 -0.49852508680E+02 -0.57201597716E+02  0.14249798136E+03  0.18573511775E+03  0.91839881703E+02 0.  0.
          5    1    3    3  502    0  0.84069304734E+02  0.52998615180E+02  0.11142533452E+02  0.10009060726E+03  0.41800000000E+01 0. -1.
         -5    1    3    3    0  502 -0.34216796053E+02  0.42029825360E+01  0.44489715189E+02  0.56438119671E+02  0.41800000000E+01 0. -1.
        -11    1    4    4    0    0  0.10194304926E+02 -0.23950660023E+02  0.10364375684E+03  0.10686246441E+03  0.00000000000E+00 0. -1.
         11    1    4    4    0    0 -0.60046813607E+02 -0.33250937694E+02  0.38854224522E+02  0.78872653341E+02  0.00000000000E+00 0.  1.
</event>
<event>
 8    1  0.6945825E-009  0.4196126E+03  0.7561462E-02  0.1037192E+00
          1   -1    0    0  501    0  0.00000000000E+00  0.00000000000E+00  0.21422968432E+03  0.21422968432E+03  0.00000000000E+00 0. -1.
         -1   -1    0    0    0  501 -0.00000000000E+00 -0.00000000000E+00 -0.89014752595E+03  0.89014752595E+03  0.00000000000E+00 0.  1.
         25    2    1    2    0    0 -0.23448005012E+02 -0.41466005717E+03 -0.24257496162E+03  0.49697539251E+03  0.12509658988E+03 0.  0.
         23    2    1    2    0    0  0.23448005012E+02  0.41466005717E+03 -0.43334288002E+03  0.60740181776E+03  0.93049151575E+02 0.  0.
          5    1    3    3  502    0 -0.45545258687E+02 -0.12139000030E+03 -0.27511746828E+02  0.13260569888E+03  0.41800000000E+01 0. -1.
         -5    1    3    3    0  502  0.22097253675E+02 -0.29327005688E+03 -0.21506321479E+03  0.36436969363E+03  0.41800000000E+01 0. -1.
        -11    1    4    4    0    0  0.98017403859E+01  0.12079038908E+03 -0.70208015798E+02  0.14005555216E+03  0.00000000000E+00 0.  1.
         11    1    4    4    0    0  0.13646264626E+02  0.29386966809E+03 -0.36313486422E+03  0.46734626560E+03  0.00000000000E+00 0. -1.
</event>
<event>
 8    1  0.6945825E-009  0.1648353E+03  0.7561462E-02  0.1183343E+00
         -1   -1    0    0    0  501 -0.00000000000E+00  0.00000000000E+00  0.13011409462E+03  0.13011409462E+03  0.00000000000E+00 0.  1.
          1   -1    0    0  501    0  0.00000000000E+00 -0.00000000000E+00 -0.26553780175E+03  0.26553780175E+03  0.00000000000E+00 0. -1.
         25    2    1    2    0    0  0.46790097765E+02  0.14192185625E+03 -0.44138568243E+02  0.19981702902E+03  0.12508998900E+03 0.  0.
         23    2    1    2    0    0 -0.46790097765E+02 -0.14192185625E+03 -0.91285138888E+02  0.19583486735E+03  0.87676634046E+02 0.  0.
          5    1    3    3  502    0  0.36076378446E+02  0.15494744390E+03 -0.65657504551E+02  0.17215863544E+03  0.41800000000E+01 0.  1.
         -5    1    3    3    0  502  0.10713719319E+02 -0.13025587649E+02  0.21518936308E+02  0.27658393574E+02  0.41800000000E+01 0.  1.
        -11    1    4    4    0    0 -0.49063113429E+02 -0.10225960263E+03 -0.10424259292E+03  0.15404782896E+03  0.00000000000E+00 0. -1.
         11    1    4    4    0    0  0.22730156642E+01 -0.39662253626E+02  0.12957454027E+02  0.41787038394E+02  0.00000000000E+00 0.  1.
</event>
<event>
 8    1  0.6945825E-009  0.1485974E+03  0.7561462E-02  0.1202207E+00
         -1   -1    0    0    0  501 -0.00000000000E+00  0.00000000000E+00  0.48208729035E+02  0.48208729035E+02  0.00000000000E+00 0.  1.
          1   -1    0    0  501    0  0.00000000000E+00 -0.00000000000E+00 -0.72491669096E+03  0.72491669096E+03  0.00000000000E+00 0. -1.
         25    2    1    2    0    0 -0.13436278327E+03 -0.21218741806E+02 -0.21485157551E+03  0.28339256146E+03  0.12508617774E+03 0.  0.
         23    2    1    2    0    0  0.13436278327E+03  0.21218741806E+02 -0.46185638642E+03  0.48973285853E+03  0.89573202016E+02 0.  0.
          5    1    3    3  502    0 -0.65162362494E+02  0.13060218222E+02 -0.19128373956E+03  0.20254294410E+03  0.41800000000E+01 0. -1.
         -5    1    3    3    0  502 -0.69200420778E+02 -0.34278960027E+02 -0.23567835952E+02  0.80849617364E+02  0.41800000000E+01 0. -1.
        -11    1    4    4    0    0  0.12296828634E+03 -0.66609853650E+01 -0.28705563337E+03  0.31235637471E+03  0.00000000000E+00 0.  1.
         11    1    4    4    0    0  0.11394496928E+02  0.27879727171E+02 -0.17480075305E+03  0.17737648382E+03  0.00000000000E+00 0. -1.
</event>
<event>
 8    1  0.6945825E-009  0.1048545E+03  0.7561462E-02  0.1270406E+00
         -1   -1    0    0    0  501 -0.00000000000E+00  0.00000000000E+00  0.79054366803E+02  0.79054366803E+02  0.00000000000E+00 0.  1.
          1   -1    0    0  501    0  0.00000000000E+00 -0.00000000000E+00 -0.25386177024E+03  0.25386177024E+03  0.00000000000E+00 0. -1.
         25    2    1    2    0    0 -0.16215759623E+02 -0.87734178503E+02 -0.68690933101E+02  0.16828994551E+03  0.12507127780E+03 0.  0.
         23    2    1    2    0    0  0.16215759623E+02  0.87734178503E+02 -0.10611647033E+03  0.16462619153E+03  0.88774099403E+02 0.  0.
          5    1    3    3  502    0 -0.31851694518E+01 -0.52955301540E+02 -0.10403179522E+03  0.11685245433E+03  0.41800000000E+01 0.  1.
         -5    1    3    3    0  502 -0.13030590171E+02 -0.34778876963E+02  0.35340862123E+02  0.51437491177E+02  0.41800000000E+01 0.  1.
        -11    1    4    4    0    0  0.34738984049E+02  0.93479397350E+02 -0.10557003833E+03  0.14522474904E+03  0.00000000000E+00 0. -1.
         11    1    4    4    0    0 -0.18523224427E+02 -0.57452188476E+01 -0.54643200518E+00  0.19401442490E+02  0.00000000000E+00 0.  1.
</event>
<event>
 8    1  0.6945825E-009  0.1306258E+03  0.7561462E-02  0.1226530E+00
         -2   -1    0    0    0  501 -0.00000000000E+00  0.00000000000E+00  0.24388152963E+02  0.24388152963E+02  0.00000000000E+00 0.  1.
          2   -1    0    0  501    0  0.00000000000E+00 -0.00000000000E+00 -0.73644222351E+03  0.73644222351E+03  0.00000000000E+00 0. -1.
         25    2    1    2    0    0  0.25923313104E+02  0.71260972138E+02 -0.34074895194E+03  0.37081978504E+03  0.12508924980E+03 0.  0.
         23    2    1    2    0    0 -0.25923313104E+02 -0.71260972138E+02 -0.37130511861E+03  0.39001059143E+03  0.92144592973E+02 0.  0.
          5    1    3    3  502    0  0.72362484767E+02  0.68199875833E+02 -0.22850722220E+03  0.24923999531E+03  0.41800000000E+01 0.  1.
         -5    1    3    3    0  502 -0.46439171663E+02  0.30610963048E+01 -0.11224172974E+03  0.12157978972E+03  0.41800000000E+01 0.  1.
        -11    1    4    4    0    0  0.16501693002E+02 -0.70670199692E+02 -0.28123240836E+03  0.29044491820E+03  0.00000000000E+00 0. -1.
         11    1    4    4    0    0 -0.42425006106E+02 -0.59077244620E+00 -0.90072710249E+02  0.99565673235E+02  0.00000000000E+00 0.  1.
</event>
<event>
 8    1  0.6945825E-009  0.1411048E+03  0.7561462E-02  0.1211850E+00
         -2   -1    0    0    0  501 -0.00000000000E+00  0.00000000000E+00  0.18186068890E+02  0.18186068890E+02  0.00000000000E+00 0. -1.
          2   -1    0    0  501    0  0.00000000000E+00 -0.00000000000E+00 -0.11998660307E+04  0.11998660307E+04  0.00000000000E+00 0.  1.
         25    2    1    2    0    0 -0.40972120642E+01  0.93891096068E+02 -0.49317950446E+03  0.51740467673E+03  0.12509696568E+03 0.  0.
         23    2    1    2    0    0  0.40972120642E+01 -0.93891096068E+02 -0.68850045732E+03  0.70064742282E+03  0.89675003823E+02 0.  0.
          5    1    3    3  502    0  0.12209107586E+02  0.12036139619E+03 -0.33638177577E+03  0.35749978947E+03  0.41800000000E+01 0.  1.
         -5    1    3    3    0  502 -0.16306319651E+02 -0.26470300124E+02 -0.15679772869E+03  0.15990488726E+03  0.41800000000E+01 0.  1.
        -11    1    4    4    0    0 -0.29793382940E+02 -0.91025562157E+02 -0.49506924431E+03  0.50424880297E+03  0.00000000000E+00 0.  1.
         11    1    4    4    0    0  0.33890595004E+02 -0.28655339114E+01 -0.19343121302E+03  0.19639861986E+03  0.00000000000E+00 0. -1.
</event>
<event>
 8    1  0.6945825E-009  0.1287454E+03  0.7561462E-02  0.1229329E+00
         -1   -1    0    0    0  501 -0.00000000000E+00  0.00000000000E+00  0.28571328393E+02  0.28571328393E+02  0.00000000000E+00 0.  1.
          1   -1    0    0  501    0  0.00000000000E+00 -0.00000000000E+00 -0.87025007362E+03  0.87025007362E+03  0.00000000000E+00 0. -1.
         25    2    1    2    0    0 -0.41830904652E+02 -0.10479574088E+03 -0.49980843340E+03  0.52743447689E+03  0.12508671162E+03 0.  0.
         23    2    1    2    0    0  0.41830904652E+02  0.10479574088E+03 -0.34187031183E+03  0.37138692513E+03  0.91219329919E+02 0.  0.
          5    1    3    3  502    0 -0.20281235648E+02 -0.54813643065E+02 -0.58626122438E+02  0.82887626445E+02  0.41800000000E+01 0.  1.
         -5    1    3    3    0  502 -0.21549669004E+02 -0.49982097819E+02 -0.44118231096E+03  0.44454685044E+03  0.41800000000E+01 0.  1.
        -11    1    4    4    0    0 -0.24011996161E+02  0.60117975837E+02 -0.13430138807E+03  0.14908926794E+03  0.00000000000E+00 0.  1.
         11    1    4    4    0    0  0.65842900813E+02  0.44677765048E+02 -0.20756892377E+03  0.22229765719E+03  0.00000000000E+00 0. -1.
</event>
<event>
 8    1  0.6945825E-009  0.1223986E+03  0.7561462E-02  0.1239192E+00
         -1   -1    0    0    0  501 -0.00000000000E+00  0.00000000000E+00  0.82958411972E+02  0.82958411972E+02  0.00000000000E+00 0.  1.
          1   -1    0    0  501    0  0.00000000000E+00 -0.00000000000E+00 -0.21984291224E+03  0.21984291224E+03  0.00000000000E+00 0. -1.
         25    2    1    2    0    0  0.49011272496E+02  0.63471688054E+02 -0.75360424485E+02  0.16660551667E+03  0.12508974615E+03 0.  0.
         23    2    1    2    0    0 -0.49011272496E+02 -0.63471688054E+02 -0.61524075787E+02  0.13619580754E+03  0.91287053157E+02 0.  0.
          5    1    3    3  502    0  0.84356104952E+01  0.81112771566E+02 -0.88348001178E+02  0.12030495812E+03  0.41800000000E+01 0. -1.
         -5    1    3    3    0  502  0.40575662001E+02 -0.17641083512E+02  0.12987576694E+02  0.46300558556E+02  0.41800000000E+01 0. -1.
        -11    1    4    4    0    0 -0.55860921523E+02 -0.10182554136E+01 -0.14506196493E+02  0.57722691674E+02  0.00000000000E+00 0.  1.
         11    1    4    4    0    0  0.68496490268E+01 -0.62453432641E+02 -0.47017879294E+02  0.78473115866E+02  0.00000000000E+00 0. -1.
</event>
<event>
 8    1  0.6945825E-009  0.7645941E+02  0.7561462E-02  0.1339410E+00
         -2   -1    0    0    0  501 -0.00000000000E+00  0.00000000000E+00  0.30707019421E+02  0.30707019421E+02  0.00000000000E+00 0.  1.
          2   -1    0    0  501    0  0.00000000000E+00 -0.00000000000E+00 -0.41915504355E+03  0.41915504355E+03  0.00000000000E+00 0. -1.
         25    2    1    2    0    0 -0.38643472521E+02  0.14316603475E+02 -0.25571904651E+03  0.28764403249E+03  0.12509426675E+03 0.  0.
         23    2    1    2    0    0  0.38643472521E+02 -0.14316603475E+02 -0.13272897762E+03  0.16221803049E+03  0.83662565174E+02 0.  0.
          5    1    3    3  502    0 -0.28230740703E+01  0.55570367242E+02 -0.50575467634E+02  0.75308603685E+02  0.41800000000E+01 0. -1.
         -5    1    3    3    0  502 -0.35820398451E+02 -0.41253763766E+02 -0.20514357888E+03  0.21233542880E+03  0.41800000000E+01 0. -1.
        -11    1    4    4    0    0  0.24531577671E+02 -0.40254885926E+01 -0.14079988119E+03  0.14297765351E+03  0.00000000000E+00 0. -1.
         11    1    4    4    0    0  0.14111894850E+02 -0.10291114883E+02  0.80709035662E+01  0.19240376976E+02  0.00000000000E+00 0.  1.
</event>
<event>
 8    1  0.6945825E-009  0.1243644E+03  0.7561462E-02  0.1236066E+00
         -1   -1    0    0    0  501 -0.00000000000E+00  0.00000000000E+00  0.36619434401E+02  0.36619434401E+02  0.00000000000E+00 0.  1.
          1   -1    0    0  501    0  0.00000000000E+00 -0.00000000000E+00 -0.57210542609E+03  0.57210542609E+03  0.00000000000E+00 0. -1.
         25    2    1    2    0    0  0.93089741392E+02 -0.64507168147E+01 -0.27540478894E+03  0.31654907506E+03  0.12509279536E+03 0.  0.
         23    2    1    2    0    0 -0.93089741392E+02  0.64507168147E+01 -0.26008120274E+03  0.29217578543E+03  0.94958653468E+02 0.  0.
          5    1    3    3  502    0  0.38083429101E+02  0.41097926873E+02 -0.37015177493E+02  0.67282857625E+02  0.41800000000E+01 0. -1.
         -5    1    3    3    0  502  0.55006312292E+02 -0.47548643688E+02 -0.23838961145E+03  0.24926621744E+03  0.41800000000E+01 0. -1.
        -11    1    4    4    0    0 -0.32104880776E+02  0.39057814068E+02 -0.17699904091E+03  0.18407850687E+03  0.00000000000E+00 0. -1.
         11    1    4    4    0    0 -0.60984860617E+02 -0.32607097253E+02 -0.83082161838E+02  0.10809727856E+03  0.00000000000E+00 0.  1.
</event>
<event>
 8    1  0.6945825E-009  0.1341741E+03  0.7561462E-02  0.1221390E+00
         -3   -1    0    0    0  501 -0.00000000000E+00  0.00000000000E+00  0.32817548995E+02  0.32817548995E+02  0.00000000000E+00 0.  1.
          3   -1    0    0  501    0  0.00000000000E+00 -0.00000000000E+00 -0.67443743848E+03  0.67443743848E+03  0.00000000000E+00 0. -1.
         25    2    1    2    0    0  0.16171982377E+02  0.94279042169E+02 -0.43665163933E+03  0.46417863253E+03  0.12508828066E+03 0.  0.
         23    2    1    2    0    0 -0.16171982377E+02 -0.94279042169E+02 -0.20496825016E+03  0.24307635495E+03  0.89017189105E+02 0.  0.
          5    1    3    3  502    0 -0.33117113720E+02 -0.44280530652E+01 -0.20276562432E+03  0.20554250577E+03  0.41800000000E+01 0. -1.
         -5    1    3    3    0  502  0.49289096097E+02  0.98707095234E+02 -0.23388601501E+03  0.25863612675E+03  0.41800000000E+01 0. -1.
        -11    1    4    4    0    0  0.31232379626E+02 -0.23523943902E+02 -0.32963664308E+02  0.51141378926E+02  0.00000000000E+00 0.  1.
         11    1    4    4    0    0 -0.47404362003E+02 -0.70755098267E+02 -0.17200458585E+03  0.19193497602E+03  0.00000000000E+00 0. -1.
</event>
<event>
 8    1  0.6945825E-009  0.1717153E+03  0.7561462E-02  0.1176071E+00
         -1   -1    0    0    0  501 -0.00000000000E+00  0.00000000000E+00  0.51437800677E+02  0.51437800677E+02  0.00000000000E+00 0.  1.
          1   -1    0    0  501    0  0.00000000000E+00 -0.00000000000E+00 -0.59099190863E+03  0.59099190863E+03  0.00000000000E+00 0. -1.
         25    2    1    2    0    0  0.94350481867E+02  0.98028020029E+02 -0.27315852903E+03  0.32981006130E+03  0.12509032104E+03 0.  0.
         23    2    1    2    0    0 -0.94350481867E+02 -0.98028020029E+02 -0.26639557892E+03  0.31261964800E+03  0.90845658710E+02 0.  0.
          5    1    3    3  502    0  0.73941046037E+02  0.12561678811E+03 -0.24547384101E+03  0.28552011271E+03  0.41800000000E+01 0.  1.
         -5    1    3    3    0  502  0.20409435830E+02 -0.27588768086E+02 -0.27684688020E+02  0.44289948591E+02  0.41800000000E+01 0.  1.
        -11    1    4    4    0    0 -0.99545782552E+01 -0.74859382235E+02 -0.11055381282E+03  0.13388489932E+03  0.00000000000E+00 0.  1.
         11    1    4    4    0    0 -0.84395903611E+02 -0.23168637794E+02 -0.15584176610E+03  0.17873474867E+03  0.00000000000E+00 0. -1.
</event>
<event>
 8    1  0.6945825E-009  0.2179947E+03  0.7561462E-02  0.1135387E+00
          2   -1    0    0  501    0  0.00000000000E+00  0.00000000000E+00  0.16720604552E+03  0.16720604552E+03  0.00000000000E+00 0.  1.
         -2   -1    0    0    0  501 -0.00000000000E+00 -0.00000000000E+00 -0.31822800125E+03  0.31822800125E+03  0.00000000000E+00 0. -1.
         25    2    1    2    0    0  0.16685800886E+03  0.11577950548E+03 -0.63998517653E+02  0.24695962547E+03  0.12508699909E+03 0.  0.
         23    2    1    2    0    0 -0.16685800886E+03 -0.11577950548E+03 -0.87023438079E+02  0.23847442130E+03  0.89724477317E+02 0.  0.
          5    1    3    3  502    0 -0.78818697149E+01 -0.11970272056E+02  0.10220863407E+02  0.18092808850E+02  0.41800000000E+01 0. -1.
         -5    1    3    3    0  502  0.17473987858E+03  0.12774977754E+03 -0.74219381060E+02  0.22886681662E+03  0.41800000000E+01 0. -1.
        -11    1    4    4    0    0 -0.14884414340E+03 -0.11169077959E+03 -0.43374724530E+02  0.19107793174E+03  0.00000000000E+00 0.  1.
         11    1    4    4    0    0 -0.18013865456E+02 -0.40887258925E+01 -0.43648713549E+02  0.47396489559E+02  0.00000000000E+00 0. -1.
</event>
<event>
 8    1  0.6945825E-009  0.1104799E+03  0.7561462E-02  0.1259684E+00
         -1   -1    0    0    0  501 -0.00000000000E+00  0.00000000000E+00  0.17971501795E+02  0.17971501795E+02  0.00000000000E+00 0.  1.
          1   -1    0    0  501    0  0.00000000000E+00 -0.00000000000E+00 -0.73393399562E+03  0.73393399562E+03  0.00000000000E+00 0. -1.
         25    2    1    2    0    0 -0.20117504777E+02 -0.17208709226E+02 -0.49673831495E+03  0.51292979402E+03  0.12508863413E+03 0.  0.
         23    2    1    2    0    0  0.20117504777E+02  0.17208709226E+02 -0.21922417888E+03  0.23897570340E+03  0.91374463255E+02 0.  0.
          5    1    3    3  502    0 -0.60078860738E+02 -0.48140591804E+02 -0.30680313731E+03  0.31634257309E+03  0.41800000000E+01 0.  1.
         -5    1    3    3    0  502  0.39961355961E+02  0.30931882578E+02 -0.18993517764E+03  0.19658722093E+03  0.41800000000E+01 0.  1.
        -11    1    4    4    0    0  0.48016392829E+02 -0.15223572252E+02 -0.94005710049E+02  0.10665085398E+03  0.00000000000E+00 0.  1.
         11    1    4    4    0    0 -0.27898888052E+02  0.32432281478E+02 -0.12521846883E+03  0.13232484942E+03  0.00000000000E+00 0. -1.
</event>
<event>
 8    1  0.6945825E-009  0.1216364E+03  0.7561462E-02  0.1240422E+00
         -2   -1    0    0    0  501 -0.00000000000E+00  0.00000000000E+00  0.20061365352E+03  0.20061365352E+03  0.00000000000E+00 0.  1.
          2   -1    0    0  501    0  0.00000000000E+00 -0.00000000000E+00 -0.10190027282E+03  0.10190027282E+03  0.00000000000E+00 0. -1.
         25    2    1    2    0    0  0.15954133921E+01 -0.72615867417E+02  0.11295876363E+03  0.18352757520E+03  0.12508828495E+03 0.  0.
         23    2    1    2    0    0 -0.15954133921E+01  0.72615867417E+02 -0.14245382939E+02  0.11898635114E+03  0.93162284636E+02 0.  0.
          5    1    3    3  502    0  0.47164174766E+02 -0.77372370939E+02  0.44479332163E+02  0.10102884022E+03  0.41800000000E+01 0.  1.
         -5    1    3    3    0  502 -0.45568761373E+02  0.47565035220E+01  0.68479431469E+02  0.82498734979E+02  0.41800000000E+01 0.  1.
        -11    1    4    4    0    0 -0.39034849164E+02  0.26615965410E+02  0.19082526234E+02  0.50953624713E+02  0.00000000000E+00 0.  1.
         11    1    4    4    0    0  0.37439435772E+02  0.45999902008E+02 -0.33327909173E+02  0.68032726430E+02  0.00000000000E+00 0. -1.
</event>
<event>
 8    1  0.6945825E-009  0.1231091E+03  0.7561462E-02  0.1238054E+00
          1   -1    0    0  501    0  0.00000000000E+00  0.00000000000E+00  0.83834511865E+03  0.83834511865E+03  0.00000000000E+00 0.  1.
         -1   -1    0    0    0  501 -0.00000000000E+00 -0.00000000000E+00 -0.18519694778E+02  0.18519694778E+02  0.00000000000E+00 0. -1.
         25    2    1    2    0    0  0.58228882952E+02  0.16067040074E+02  0.44468321278E+03  0.46587438868E+03  0.12508810382E+03 0.  0.
         23    2    1    2    0    0 -0.58228882952E+02 -0.16067040074E+02  0.37514221110E+03  0.39099042475E+03  0.92157913990E+02 0.  0.
          5    1    3    3  502    0 -0.30174898967E+02  0.36927309332E+02  0.14464112977E+03  0.15235707901E+03  0.41800000000E+01 0. -1.
         -5    1    3    3    0  502  0.88403781919E+02 -0.20860269258E+02  0.30004208300E+03  0.31351730967E+03  0.41800000000E+01 0. -1.
        -11    1    4    4    0    0 -0.78143535343E+01  0.34880335898E+02  0.16912780181E+03  0.17286386348E+03  0.00000000000E+00 0.  1.
         11    1    4    4    0    0 -0.50414529418E+02 -0.50947375972E+02  0.20601440929E+03  0.21812656126E+03  0.00000000000E+00 0. -1.
</event>
<event>
 8    1  0.6945825E-009  0.9009356E+02  0.7561462E-02  0.1302625E+00
          1   -1    0    0  501    0  0.00000000000E+00  0.00000000000E+00  0.90409693152E+02  0.90409693152E+02  0.00000000000E+00 0. -1.
         -1   -1    0    0    0  501 -0.00000000000E+00 -0.00000000000E+00 -0.13851716527E+03  0.13851716527E+03  0.00000000000E+00 0.  1.
         25    2    1    2    0    0  0.16114431691E+02  0.27971583751E+02 -0.30530024320E+02  0.13274748152E+03  0.12509087520E+03 0.  0.
         23    2    1    2    0    0 -0.16114431691E+02 -0.27971583751E+02 -0.17577447796E+02  0.96179376905E+02  0.88878689597E+02 0.  0.
          5    1    3    3  502    0 -0.24306311629E+02  0.36587416687E+02  0.34206206877E+02  0.55829856115E+02  0.41800000000E+01 0. -1.
         -5    1    3    3    0  502  0.40420743320E+02 -0.86158329364E+01 -0.64736231198E+02  0.76917625402E+02  0.41800000000E+01 0. -1.
        -11    1    4    4    0    0  0.35979433610E+02 -0.21792549385E+02 -0.91389069707E+01  0.43045957676E+02  0.00000000000E+00 0. -1.
         11    1    4    4    0    0 -0.52093865301E+02 -0.61790343658E+01 -0.84385408256E+01  0.53133419229E+02  0.00000000000E+00 0.  1.
</event>
<event>
 8    1  0.6945825E-009  0.1265922E+03  0.7561462E-02  0.1232602E+00
          2   -1    0    0  501    0  0.00000000000E+00  0.00000000000E+00  0.23415942710E+03  0.23415942710E+03  0.00000000000E+00 0. -1.
         -2   -1    0    0    0  501 -0.00000000000E+00 -0.00000000000E+00 -0.10430701513E+03  0.10430701513E+03  0.00000000000E+00 0.  1.
         25    2    1    2    0    0  0.32345205466E+01 -0.10936941580E+03  0.44251485698E+02  0.17198472815E+03  0.12509365090E+03 0.  0.
         23    2    1    2    0    0 -0.32345205466E+01  0.10936941580E+03  0.85600926274E+02  0.16648171408E+03  0.91741546246E+02 0.  0.
          5    1    3    3  502    0  0.12760013270E+01 -0.11416572042E+03 -0.12421065945E+02  0.11492256166E+03  0.41800000000E+01 0.  1.
         -5    1    3    3    0  502  0.19585192196E+01  0.47963046179E+01  0.56672551643E+02  0.57062166496E+02  0.41800000000E+01 0.  1.
        -11    1    4    4    0    0  0.33488993343E+02  0.30577448331E+02  0.12673122541E+01  0.45366277144E+02  0.00000000000E+00 0.  1.
         11    1    4    4    0    0 -0.36723513889E+02  0.78791967472E+02  0.84333614020E+02  0.12111543694E+03  0.00000000000E+00 0. -1.
</event>
<event>
 8    1  0.6945825E-009  0.1627428E+03  0.7561462E-02  0.1185634E+00
          1   -1    0    0  501    0  0.00000000000E+00  0.00000000000E+00  0.11835177772E+04  0.11835177772E+04  0.00000000000E+00 0. -1.
         -1   -1    0    0    0  501 -0.00000000000E+00 -0.00000000000E+00 -0.50073853270E+02  0.50073853270E+02  0.00000000000E+00 0.  1.
         25    2    1    2    0    0 -0.12235811752E+03  0.58714649732E+02  0.10117602848E+04  0.10284577676E+04  0.12509031501E+03 0.  0.
         23    2    1    2    0    0  0.12235811752E+03 -0.58714649732E+02  0.12168363913E+03  0.20513386283E+03  0.94096092540E+02 0.  0.
          5    1    3    3  502    0 -0.13097825169E+03  0.23544945151E+02  0.57655571575E+03  0.59172935758E+03  0.41800000000E+01 0.  1.
         -5    1    3    3    0  502  0.86201341739E+01  0.35169704581E+02  0.43520456901E+03  0.43672841003E+03  0.41800000000E+01 0.  1.
        -11    1    4    4    0    0  0.59011550325E+02 -0.69991473662E+02  0.36913642537E+02  0.98710619806E+02  0.00000000000E+00 0.  1.
         11    1    4    4    0    0  0.63346567191E+02  0.11276823930E+02  0.84769996592E+02  0.10642324302E+03  0.00000000000E+00 0. -1.
</event>
<event>
 8    1  0.6945825E-009  0.1887614E+03  0.7561462E-02  0.1159583E+00
          2   -1    0    0  501    0  0.00000000000E+00  0.00000000000E+00  0.48338572846E+03  0.48338572846E+03  0.00000000000E+00 0. -1.
         -2   -1    0    0    0  501 -0.00000000000E+00 -0.00000000000E+00 -0.81572797076E+02  0.81572797076E+02  0.00000000000E+00 0.  1.
         25    2    1    2    0    0 -0.88721947286E+02  0.13533558301E+03  0.25041401218E+03  0.32332980968E+03  0.12509070457E+03 0.  0.
         23    2    1    2    0    0  0.88721947286E+02 -0.13533558301E+03  0.15139891920E+03  0.24162871586E+03  0.96309395344E+02 0.  0.
          5    1    3    3  502    0 -0.50126288142E+02 -0.67602802444E+01  0.32386060897E+02  0.60205277944E+02  0.41800000000E+01 0.  1.
         -5    1    3    3    0  502 -0.38595659144E+02  0.14209586326E+03  0.21802795128E+03  0.26312453173E+03  0.41800000000E+01 0.  1.
        -11    1    4    4    0    0  0.60749563041E+02 -0.13857631254E+03  0.95187567640E+02  0.17875843152E+03  0.00000000000E+00 0.  1.
         11    1    4    4    0    0  0.27972384245E+02  0.32407295246E+01  0.56211351563E+02  0.62870284338E+02  0.00000000000E+00 0. -1.
</event>
<event>
 8    1  0.6945825E-009  0.1382090E+03  0.7561462E-02  0.1215759E+00
         -2   -1    0    0    0  501 -0.00000000000E+00  0.00000000000E+00  0.89012389259E+02  0.89012389259E+02  0.00000000000E+00 0.  1.
          2   -1    0    0  501    0  0.00000000000E+00 -0.00000000000E+00 -0.40066188317E+03  0.40066188317E+03  0.00000000000E+00 0. -1.
         25    2    1    2    0    0  0.10198969831E+03  0.69640296728E+02 -0.28454130078E+03  0.33445810901E+03  0.12508719097E+03 0.  0.
         23    2    1    2    0    0 -0.10198969831E+03 -0.69640296728E+02 -0.27108193134E+02  0.15521616342E+03  0.90030737871E+02 0.  0.
          5    1    3    3  502    0  0.13479141144E+02  0.80676144494E+01  0.11138274165E+02  0.19705511926E+02  0.41800000000E+01 0. -1.
         -5    1    3    3    0  502  0.88510557168E+02  0.61572682278E+02 -0.29567957494E+03  0.31475259708E+03  0.41800000000E+01 0. -1.
        -11    1    4    4    0    0 -0.22787610737E+01 -0.50719159593E+02 -0.15389734371E+02  0.53051577035E+02  0.00000000000E+00 0.  1.
         11    1    4    4    0    0 -0.99710937238E+02 -0.18921137134E+02 -0.11718458763E+02  0.10216458638E+03  0.00000000000E+00 0. -1.
</event>
<event>
 8    1  0.6945825E-009  0.1079958E+03  0.7561462E-02  0.1264327E+00
          1   -1    0    0  501    0  0.00000000000E+00  0.00000000000E+00  0.32218037395E+03  0.32218037395E+03  0.00000000000E+00 0. -1.
         -1   -1    0    0    0  501 -0.00000000000E+00 -0.00000000000E+00 -0.42124161623E+02  0.42124161623E+02  0.00000000000E+00 0.  1.
         25    2    1    2    0    0  0.52016088004E+01  0.39406005749E+02  0.17913683771E+03  0.22207426814E+03  0.12508830449E+03 0.  0.
         23    2    1    2    0    0 -0.52016088004E+01 -0.39406005749E+02  0.10091937461E+03  0.14223026743E+03  0.92004558469E+02 0.  0.
          5    1    3    3  502    0  0.64338038488E+02  0.10696191974E+02  0.86974859614E+02  0.10879287809E+03  0.41800000000E+01 0. -1.
         -5    1    3    3    0  502 -0.59136429687E+02  0.28709813775E+02  0.92161978100E+02  0.11328139004E+03  0.41800000000E+01 0. -1.
        -11    1    4    4    0    0 -0.18810339826E+01  0.22596890333E+02  0.68559804883E+02  0.72212219098E+02  0.00000000000E+00 0. -1.
         11    1    4    4    0    0 -0.33205748178E+01 -0.62002896081E+02  0.32359569729E+02  0.70018048335E+02  0.00000000000E+00 0.  1.
</event>
<event>
 8    1  0.6945825E-009  0.1194564E+03  0.7561462E-02  0.1243996E+00
         -2   -1    0    0    0  501 -0.00000000000E+00  0.00000000000E+00  0.27383431113E+02  0.27383431113E+02  0.00000000000E+00 0.  1.
          2   -1    0    0  501    0  0.00000000000E+00 -0.00000000000E+00 -0.79544285723E+03  0.79544285723E+03  0.00000000000E+00 0. -1.
         25    2    1    2    0    0 -0.33118293733E+02  0.74111820286E+02 -0.57447157017E+03  0.59351033354E+03  0.12509015866E+03 0.  0.
         23    2    1    2    0    0  0.33118293733E+02 -0.74111820286E+02 -0.19358785595E+03  0.22931595481E+03  0.92304744591E+02 0.  0.
          5    1    3    3  502    0 -0.50405252024E+02  0.99973557587E+02 -0.50497278843E+03  0.51725273426E+03  0.41800000000E+01 0. -1.
         -5    1    3    3    0  502  0.17286958291E+02 -0.25861737302E+02 -0.69498781742E+02  0.76257599273E+02  0.41800000000E+01 0. -1.
        -11    1    4    4    0    0  0.29904120859E+02 -0.10351533441E+02 -0.74163546796E+01  0.32502507683E+02  0.00000000000E+00 0.  1.
         11    1    4    4    0    0  0.32141728740E+01 -0.63760286845E+02 -0.18617150127E+03  0.19681344713E+03  0.00000000000E+00 0. -1.
</event>
<event>
 8    1  0.6945825E-009  0.1244422E+03  0.7561462E-02  0.1235944E+00
         -2   -1    0    0    0  501 -0.00000000000E+00  0.00000000000E+00  0.28540372981E+02  0.28540372981E+02  0.00000000000E+00 0.  1.
          2   -1    0    0  501    0  0.00000000000E+00 -0.00000000000E+00 -0.56545585944E+03  0.56545585944E+03  0.00000000000E+00 0. -1.
         25    2    1    2    0    0 -0.48117485298E+02 -0.42348483941E+02 -0.26257491743E+03  0.29782729516E+03  0.12508726553E+03 0.  0.
         23    2    1    2    0    0  0.48117485298E+02  0.42348483941E+02 -0.27434056904E+03  0.29616893726E+03  0.91348810049E+02 0.  0.
          5    1    3    3  502    0 -0.15516092961E+01 -0.80205479484E+02 -0.14557627768E+03  0.16626861235E+03  0.41800000000E+01 0. -1.
         -5    1    3    3    0  502 -0.46565876002E+02  0.37856995543E+02 -0.11699863975E+03  0.13155868281E+03  0.41800000000E+01 0. -1.
        -11    1    4    4    0    0  0.68657909435E+02  0.51583081100E+02 -0.18384289703E+03  0.20291114698E+03  0.00000000000E+00 0. -1.
         11    1    4    4    0    0 -0.20540424137E+02 -0.92345971591E+01 -0.90497672011E+02  0.93257790280E+02  0.00000000000E+00 0.  1.
</event>
<event>
 8    1  0.6945825E-009  0.8291713E+02  0.7561462E-02  0.1320971E+00
          2   -1    0    0  501    0  0.00000000000E+00  0.00000000000E+00  0.15823770966E+03  0.15823770966E+03  0.00000000000E+00 0. -1.
         -2   -1    0    0    0  501 -0.00000000000E+00 -0.00000000000E+00 -0.12452168330E+03  0.12452168330E+03  0.00000000000E+00 0.  1.
         25    2    1    2    0    0 -0.65275919436E+01 -0.59011439629E+02 -0.47711978871E+02  0.14645660836E+03  0.12509254870E+03 0.  0.
         23    2    1    2    0    0  0.65275919436E+01  0.59011439629E+02  0.81428005230E+02  0.13630278460E+03  0.91776737736E+02 0.  0.
          5    1    3    3  502    0 -0.49037463507E+01 -0.64000424662E+02  0.28210605989E+02  0.70238250088E+02  0.41800000000E+01 0. -1.
         -5    1    3    3    0  502 -0.16238455929E+01  0.49889850331E+01 -0.75922584860E+02  0.76218358274E+02  0.41800000000E+01 0. -1.
        -11    1    4    4    0    0 -0.25163871684E+02  0.57853863678E+02  0.18353826775E+02  0.65705044996E+02  0.00000000000E+00 0.  1.
         11    1    4    4    0    0  0.31691463628E+02  0.11575759507E+01  0.63074178455E+02  0.70597739601E+02  0.00000000000E+00 0. -1.
</event>
<event>
 8    1  0.6945825E-009  0.7588712E+02  0.7561462E-02  0.1341146E+00
          2   -1    0    0  501    0  0.00000000000E+00  0.00000000000E+00  0.21779769486E+03  0.21779769486E+03  0.00000000000E+00 0. -1.
         -2   -1    0    0    0  501 -0.00000000000E+00 -0.00000000000E+00 -0.69421457491E+02  0.69421457491E+02  0.00000000000E+00 0.  1.
         25    2    1    2    0    0 -0.34965619640E+02 -0.25270563717E+02  0.53241536950E+02  0.14264580948E+03  0.12510783252E+03 0.  0.
         23    2    1    2    0    0  0.34965619640E+02  0.25270563717E+02  0.95134700422E+02  0.14457334288E+03  0.99948208084E+02 0.  0.
          5    1    3    3  502    0 -0.24966318391E+02  0.67470837443E+01 -0.37538901880E+02  0.45776432227E+02  0.41800000000E+01 0. -1.
         -5    1    3    3    0  502 -0.99993012498E+01 -0.32017647462E+02  0.90780438830E+02  0.96869377249E+02  0.41800000000E+01 0. -1.
        -11    1    4    4    0    0  0.58648794067E+02  0.21671432832E+01  0.94787766523E+02  0.11148586564E+03  0.00000000000E+00 0. -1.
         11    1    4    4    0    0 -0.23683174427E+02  0.23103420434E+02  0.34693389880E+00  0.33087477236E+02  0.00000000000E+00 0.  1.
</event>
<event>
 8    1  0.6945825E-009  0.1108468E+03  0.7561462E-02  0.1259010E+00
         -2   -1    0    0    0  501 -0.00000000000E+00  0.00000000000E+00  0.20505256413E+03  0.20505256413E+03  0.00000000000E+00 0.  1.
          2   -1    0    0  501    0  0.00000000000E+00 -0.00000000000E+00 -0.90950978276E+02  0.90950978276E+02  0.00000000000E+00 0. -1.
         25    2    1    2    0    0 -0.55882194215E+02  0.49985037160E+02  0.26237455362E+02  0.14818316950E+03  0.12509406097E+03 0.  0.
         23    2    1    2    0    0  0.55882194215E+02 -0.49985037160E+02  0.87864130496E+02  0.14782037291E+03  0.92246591529E+02 0.  0.
          5    1    3    3  502    0 -0.16758727333E+02  0.65690430388E+02  0.62586758873E+02  0.92361584940E+02  0.41800000000E+01 0. -1.
         -5    1    3    3    0  502 -0.39123466881E+02 -0.15705393228E+02 -0.36349303512E+02  0.55821584562E+02  0.41800000000E+01 0. -1.
        -11    1    4    4    0    0 -0.93869163866E+01 -0.44975296431E+02  0.62605335664E+02  0.77655132103E+02  0.00000000000E+00 0.  1.
         11    1    4    4    0    0  0.65269110601E+02 -0.50097407292E+01  0.25258794832E+02  0.70165240805E+02  0.00000000000E+00 0. -1.
</event>
<event>
 8    1  0.6945825E-009  0.1859574E+03  0.7561462E-02  0.1162159E+00
         -1   -1    0    0    0  501 -0.00000000000E+00  0.00000000000E+00  0.21394536954E+03  0.21394536954E+03  0.00000000000E+00 0.  1.
          1   -1    0    0  501    0  0.00000000000E+00 -0.00000000000E+00 -0.21063100342E+03  0.21063100342E+03  0.00000000000E+00 0. -1.
         25    2    1    2    0    0 -0.12801251178E+03 -0.12051752128E+03 -0.46494372161E+02  0.22072736800E+03  0.12508864150E+03 0.  0.
         23    2    1    2    0    0  0.12801251178E+03  0.12051752128E+03  0.49808738280E+02  0.20384900496E+03  0.90342848663E+02 0.  0.
          5    1    3    3  502    0 -0.12144918657E+03 -0.62999732476E+02 -0.74980770854E+02  0.15607196933E+03  0.41800000000E+01 0. -1.
         -5    1    3    3    0  502 -0.65633252077E+01 -0.57517788805E+02  0.28486398693E+02  0.64655398671E+02  0.41800000000E+01 0. -1.
        -11    1    4    4    0    0  0.18017312425E+02  0.27825856100E+02  0.50018501670E+02  0.60006269040E+02  0.00000000000E+00 0. -1.
         11    1    4    4    0    0  0.10999519936E+03  0.92691665182E+02 -0.20976339028E+00  0.14384273592E+03  0.00000000000E+00 0.  1.
</event>
<event>
 8    1  0.6945825E-009  0.2108796E+03  0.7561462E-02  0.1140871E+00
         -1   -1    0    0    0  501 -0.00000000000E+00  0.00000000000E+00  0.58001614303E+03  0.58001614303E+03  0.00000000000E+00 0.  1.
          1   -1    0    0  501    0  0.00000000000E+00 -0.00000000000E+00 -0.14644101709E+03  0.14644101709E+03  0.00000000000E+00 0. -1.
         25    2    1    2    0    0 -0.28649547471E+02 -0.18623166953E+03 -0.20334441018E+02  0.22707861927E+03  0.12509267977E+03 0.  0.
         23    2    1    2    0    0  0.28649547471E+02  0.18623166953E+03  0.45390956696E+03  0.49937854085E+03  0.88555072007E+02 0.  0.
          5    1    3    3  502    0  0.39494902442E+02 -0.12908336842E+03 -0.27249075664E+02  0.13777644155E+03  0.41800000000E+01 0.  1.
         -5    1    3    3    0  502 -0.68144449913E+02 -0.57148301108E+02  0.69146346462E+01  0.89302177721E+02  0.41800000000E+01 0.  1.
        -11    1    4    4    0    0  0.47393425863E+02  0.12772721443E+03  0.37752466499E+03  0.40135427093E+03  0.00000000000E+00 0.  1.
         11    1    4    4    0    0 -0.18743878392E+02  0.58504455100E+02  0.76384901969E+02  0.98024269916E+02  0.00000000000E+00 0. -1.
</event>
<event>
 8    1  0.6945825E-009  0.1253353E+03  0.7561462E-02  0.1234546E+00
          1   -1    0    0  501    0  0.00000000000E+00  0.00000000000E+00  0.31169530004E+03  0.31169530004E+03  0.00000000000E+00 0. -1.
         -1   -1    0    0    0  501 -0.00000000000E+00 -0.00000000000E+00 -0.75241847672E+02  0.75241847672E+02  0.00000000000E+00 0.  1.
         25    2    1    2    0    0  0.91586299755E+02  0.31299421328E+02  0.18368807536E+03  0.24239833300E+03  0.12509172129E+03 0.  0.
         23    2    1    2    0    0 -0.91586299755E+02 -0.31299421328E+02  0.52765377012E+02  0.14453881471E+03  0.93485720134E+02 0.  0.
          5    1    3    3  502    0  0.10803139445E+03 -0.68777700119E+01  0.93883702057E+02  0.14335169277E+03  0.41800000000E+01 0.  1.
         -5    1    3    3    0  502 -0.16445094693E+02  0.38177191340E+02  0.89804373304E+02  0.99046640239E+02  0.41800000000E+01 0.  1.
        -11    1    4    4    0    0 -0.69104892202E+02 -0.35501866121E+02 -0.94399843226E+01  0.78262263756E+02  0.00000000000E+00 0.  1.
         11    1    4    4    0    0 -0.22481407553E+02  0.42024447926E+01  0.62205361335E+02  0.66276550956E+02  0.00000000000E+00 0. -1.
</event>
<event>
 8    1  0.6945825E-009  0.7372922E+02  0.7561462E-02  0.1347852E+00
          1   -1    0    0  501    0  0.00000000000E+00  0.00000000000E+00  0.25772621461E+03  0.25772621461E+03  0.00000000000E+00 0. -1.
         -1   -1    0    0    0  501 -0.00000000000E+00 -0.00000000000E+00 -0.53987415785E+02  0.53987415785E+02  0.00000000000E+00 0.  1.
         25    2    1    2    0    0 -0.43453968142E+02  0.11181837534E+02  0.98737409437E+02  0.16555582379E+03  0.12508546651E+03 0.  0.
         23    2    1    2    0    0  0.43453968142E+02 -0.11181837534E+02  0.10500138939E+03  0.14615780661E+03  0.91233392022E+02 0.  0.
          5    1    3    3  502    0 -0.25019069194E+01 -0.78883136394E+01 -0.28765205199E+02  0.30222416522E+02  0.41800000000E+01 0.  1.
         -5    1    3    3    0  502 -0.40952061223E+02  0.19070151173E+02  0.12750261464E+03  0.13533340727E+03  0.41800000000E+01 0.  1.
        -11    1    4    4    0    0 -0.19138895203E+02 -0.22149778151E+02  0.64419245140E+02  0.70758385554E+02  0.00000000000E+00 0. -1.
         11    1    4    4    0    0  0.62592863345E+02  0.10967940617E+02  0.40582144253E+02  0.75399421054E+02  0.00000000000E+00 0.  1.
</event>
<event>
 8    1  0.6945825E-009  0.1279921E+03  0.7561462E-02  0.1230466E+00
         -2   -1    0    0    0  501 -0.00000000000E+00  0.00000000000E+00  0.13262667226E+03  0.13262667226E+03  0.00000000000E+00 0.  1.
          2   -1    0    0  501    0  0.00000000000E+00 -0.00000000000E+00 -0.15539640849E+03  0.15539640849E+03  0.00000000000E+00 0. -1.
         25    2    1    2    0    0  0.74034542682E+02 -0.54369959511E+02 -0.32017807567E+02  0.15845645150E+03  0.12508437558E+03 0.  0.
         23    2    1    2    0    0 -0.74034542682E+02  0.54369959511E+02  0.92480713344E+01  0.12956662924E+03  0.90910827639E+02 0.  0.
          5    1    3    3  502    0  0.10013660221E+03 -0.37770084455E+02  0.83481573089E+01  0.10742943039E+03  0.41800000000E+01 0.  1.
         -5    1    3    3    0  502 -0.26102059532E+02 -0.16599875056E+02 -0.40365964875E+02  0.51027021116E+02  0.41800000000E+01 0.  1.
        -11    1    4    4    0    0 -0.79202455871E+02  0.18381516107E+02  0.31208836927E+02  0.87091335118E+02  0.00000000000E+00 0.  1.
         11    1    4    4    0    0  0.51679131888E+01  0.35988443404E+02 -0.21960765593E+02  0.42475294122E+02  0.00000000000E+00 0. -1.
</event>
<event>
 8    1  0.6945825E-009  0.1052477E+03  0.7561462E-02  0.1269632E+00
         -2   -1    0    0    0  501 -0.00000000000E+00  0.00000000000E+00  0.26669557802E+02  0.26669557802E+02  0.00000000000E+00 0.  1.
          2   -1    0    0  501    0  0.00000000000E+00 -0.00000000000E+00 -0.74019721636E+03  0.74019721636E+03  0.00000000000E+00 0. -1.
         25    2    1    2    0    0 -0.11535402398E+01 -0.87538143231E+02 -0.34466657211E+03  0.37697007466E+03  0.12508850501E+03 0.  0.
         23    2    1    2    0    0  0.11535402398E+01  0.87538143231E+02 -0.36886108646E+03  0.38989669951E+03  0.91086102172E+02 0.  0.
          5    1    3    3  502    0  0.20758334917E+02 -0.68543885206E+02 -0.33977537796E+03  0.34726639995E+03  0.41800000000E+01 0. -1.
         -5    1    3    3    0  502 -0.21911875157E+02 -0.18994258025E+02 -0.48911941429E+01  0.29703674705E+02  0.41800000000E+01 0. -1.
        -11    1    4    4    0    0  0.29838009677E+02  0.69339012979E+02 -0.32888291427E+03  0.33743470012E+03  0.00000000000E+00 0. -1.
         11    1    4    4    0    0 -0.28684469437E+02  0.18199130252E+02 -0.39978172182E+02  0.52461999389E+02  0.00000000000E+00 0.  1.
</event>
<event>
 8    1  0.6945825E-009  0.6168035E+02  0.7561462E-02  0.1390912E+00
         -2   -1    0    0    0  501 -0.00000000000E+00  0.00000000000E+00  0.17016607207E+03  0.17016607207E+03  0.00000000000E+00 0.  1.
          2   -1    0    0  501    0  0.00000000000E+00 -0.00000000000E+00 -0.13418380524E+03  0.13418380524E+03  0.00000000000E+00 0. -1.
         25    2    1    2    0    0  0.82065359915E+00 -0.58634667624E+01  0.12210619899E+03  0.17490510112E+03  0.12508723696E+03 0.  0.
         23    2    1    2    0    0 -0.82065359915E+00  0.58634667624E+01 -0.86123932159E+02  0.12944477619E+03  0.96454987834E+02 0.  0.
          5    1    3    3  502    0  0.42325312872E+01  0.33736898252E+02  0.12976576936E+03  0.13421147463E+03  0.41800000000E+01 0. -1.
         -5    1    3    3    0  502 -0.34118776880E+01 -0.39600365014E+02 -0.76595703652E+01  0.40693626489E+02  0.41800000000E+01 0. -1.
        -11    1    4    4    0    0  0.22418051564E+02  0.11541776903E+02  0.12371243136E+02  0.28086105226E+02  0.00000000000E+00 0.  1.
         11    1    4    4    0    0 -0.23238705163E+02 -0.56783101410E+01 -0.98495175295E+02  0.10135867097E+03  0.00000000000E+00 0. -1.
</event>
<event>
 8    1  0.6945825E-009  0.8772252E+02  0.7561462E-02  0.1308463E+00
          3   -1    0    0  501    0  0.00000000000E+00  0.00000000000E+00  0.32063441584E+02  0.32063441584E+02  0.00000000000E+00 0. -1.
         -3   -1    0    0    0  501 -0.00000000000E+00 -0.00000000000E+00 -0.42515795798E+03  0.42515795798E+03  0.00000000000E+00 0.  1.
         25    2    1    2    0    0 -0.72659916105E+01 -0.39976138283E+02 -0.25735073079E+03  0.28901160543E+03  0.12508966051E+03 0.  0.
         23    2    1    2    0    0  0.72659916105E+01  0.39976138283E+02 -0.13574378561E+03  0.16820979414E+03  0.90649176763E+02 0.  0.
          5    1    3    3  502    0  0.26040704455E+02  0.24496407920E+02 -0.17716108711E+03  0.18078084931E+03  0.41800000000E+01 0.  1.
         -5    1    3    3    0  502 -0.33306696066E+02 -0.64472546203E+02 -0.80189643679E+02  0.10823075612E+03  0.41800000000E+01 0.  1.
        -11    1    4    4    0    0  0.29855590585E+02  0.16207891957E+02 -0.61393823429E+01  0.34521646346E+02  0.00000000000E+00 0. -1.
         11    1    4    4    0    0 -0.22589598975E+02  0.23768246326E+02 -0.12960440327E+03  0.13368814780E+03  0.00000000000E+00 0.  1.
</event>
<event>
 8    1  0.6945825E-009  0.1502180E+03  0.7561462E-02  0.1200205E+00
          2   -1    0    0  501    0  0.00000000000E+00  0.00000000000E+00  0.21645174927E+03  0.21645174927E+03  0.00000000000E+00 0. -1.
         -2   -1    0    0    0  501 -0.00000000000E+00 -0.00000000000E+00 -0.12170394786E+03  0.12170394786E+03  0.00000000000E+00 0.  1.
         25    2    1    2    0    0 -0.10668865273E+03  0.48057176633E+02  0.84948336461E+02  0.19119558306E+03  0.12509024849E+03 0.  0.
         23    2    1    2    0    0  0.10668865273E+03 -0.48057176633E+02  0.97994649438E+01  0.14696011407E+03  0.88370157677E+02 0.  0.
          5    1    3    3  502    0  0.96707841671E+01  0.38173830190E+02  0.59708897994E+02  0.71647681592E+02  0.41800000000E+01 0. -1.
         -5    1    3    3    0  502 -0.11635943689E+03  0.98833464431E+01  0.25239438467E+02  0.11954790147E+03  0.41800000000E+01 0. -1.
        -11    1    4    4    0    0 -0.78098390222E+01  0.12283905456E+02  0.97762954237E+01  0.17534647730E+02  0.00000000000E+00 0. -1.
         11    1    4    4    0    0  0.11449849175E+03 -0.60341082089E+02  0.23169520118E-01  0.12942546634E+03  0.00000000000E+00 0.  1.
</event>
<event>
 8    1  0.6945825E-009  0.1436506E+03  0.7561462E-02  0.1208500E+00
         -2   -1    0    0    0  501 -0.00000000000E+00  0.00000000000E+00  0.52240374221E+02  0.52240374221E+02  0.00000000000E+00 0.  1.
          2   -1    0    0  501    0  0.00000000000E+00 -0.00000000000E+00 -0.47593610924E+03  0.47593610924E+03  0.00000000000E+00 0. -1.
         25    2    1    2    0    0 -0.69249770456E+02  0.84994478684E+02 -0.17341110716E+03  0.24028948749E+03  0.12509210046E+03 0.  0.
         23    2    1    2    0    0  0.69249770456E+02 -0.84994478684E+02 -0.25028462786E+03  0.28788699597E+03  0.90647313212E+02 0.  0.
          5    1    3    3  502    0 -0.36497110990E+02  0.11561028497E+03 -0.12604822229E+03  0.17493828582E+03  0.41800000000E+01 0.  1.
         -5    1    3    3    0  502 -0.32752659466E+02 -0.30615806289E+02 -0.47362884869E+02  0.65351201672E+02  0.41800000000E+01 0.  1.
        -11    1    4    4    0    0  0.69606658277E+02 -0.49363176662E+02 -0.23329339101E+03  0.24841017768E+03  0.00000000000E+00 0.  1.
         11    1    4    4    0    0 -0.35688782148E+00 -0.35631302022E+02 -0.16991236848E+02  0.39476818290E+02  0.00000000000E+00 0. -1.
</event>
<event>
 8    1  0.6945825E-009  0.7887834E+02  0.7561462E-02  0.1332265E+00
         -1   -1    0    0    0  501 -0.00000000000E+00  0.00000000000E+00  0.40473061357E+02  0.40473061357E+02  0.00000000000E+00 0.  1.
          1   -1    0    0  501    0  0.00000000000E+00 -0.00000000000E+00 -0.41159622085E+03  0.41159622085E+03  0.00000000000E+00 0. -1.
         25    2    1    2    0    0  0.35098480905E+02  0.39839214133E+02 -0.12733353330E+03  0.18623651521E+03  0.12510453450E+03 0.  0.
         23    2    1    2    0    0 -0.35098480905E+02 -0.39839214133E+02 -0.24378962619E+03  0.26583276699E+03  0.91731193288E+02 0.  0.
          5    1    3    3  502    0 -0.22664654041E+02  0.16595862136E+02 -0.12010236144E+03  0.12341458101E+03  0.41800000000E+01 0. -1.
         -5    1    3    3    0  502  0.57763134946E+02  0.23243351997E+02 -0.72311718614E+01  0.62821934206E+02  0.41800000000E+01 0. -1.
        -11    1    4    4    0    0 -0.14438219461E+02 -0.43621022488E+02 -0.24016234783E+03  0.24451832058E+03  0.00000000000E+00 0. -1.
         11    1    4    4    0    0 -0.20660261445E+02  0.37818083552E+01 -0.36272783607E+01  0.21314446409E+02  0.00000000000E+00 0.  1.
</event>
<event>
 8    1  0.6945825E-009  0.1855533E+03  0.7561462E-02  0.1162534E+00
          2   -1    0    0  501    0  0.00000000000E+00  0.00000000000E+00  0.69066101056E+03  0.69066101056E+03  0.00000000000E+00 0. -1.
         -2   -1    0    0    0  501 -0.00000000000E+00 -0.00000000000E+00 -0.58721638277E+02  0.58721638277E+02  0.00000000000E+00 0.  1.
         25    2    1    2    0    0  0.12828909977E+03  0.10004254340E+03  0.42364267340E+03  0.47073116882E+03  0.12509242566E+03 0.  0.
         23    2    1    2    0    0 -0.12828909977E+03 -0.10004254340E+03  0.20829669888E+03  0.27865148002E+03  0.88275302006E+02 0.  0.
          5    1    3    3  502    0  0.12091999781E+02 -0.28373382663E+02  0.81288993566E+02  0.87043886502E+02  0.41800000000E+01 0.  1.
         -5    1    3    3    0  502  0.11619709999E+03  0.12841592606E+03  0.34235367984E+03  0.38368728231E+03  0.41800000000E+01 0.  1.
        -11    1    4    4    0    0 -0.11099974433E+03 -0.67538705461E+02  0.99087601039E+02  0.16340371066E+03  0.00000000000E+00 0.  1.
         11    1    4    4    0    0 -0.17289355439E+02 -0.32503837934E+02  0.10920909784E+03  0.11524776936E+03  0.00000000000E+00 0. -1.
</event>
<event>
 8    1  0.6945825E-009  0.1425070E+03  0.7561462E-02  0.1209995E+00
         -2   -1    0    0    0  501 -0.00000000000E+00  0.00000000000E+00  0.67123152319E+02  0.67123152319E+02  0.00000000000E+00 0.  1.
          2   -1    0    0  501    0  0.00000000000E+00 -0.00000000000E+00 -0.38256935683E+03  0.38256935683E+03  0.00000000000E+00 0. -1.
         25    2    1    2    0    0 -0.16073645751E+02 -0.11405409387E+03 -0.13813829958E+03  0.21907692330E+03  0.12508321267E+03 0.  0.
         23    2    1    2    0    0  0.16073645751E+02  0.11405409387E+03 -0.17730790493E+03  0.23061558586E+03  0.92080165462E+02 0.  0.
          5    1    3    3  502    0 -0.32452789188E+02 -0.13135711908E+03 -0.82808083683E+02  0.15869003554E+03  0.41800000000E+01 0. -1.
         -5    1    3    3    0  502  0.16379143437E+02  0.17303025201E+02 -0.55330215901E+02  0.60386887753E+02  0.41800000000E+01 0. -1.
        -11    1    4    4    0    0 -0.16377863877E+02  0.19390253860E+02 -0.10270821563E+03  0.10579789189E+03  0.00000000000E+00 0. -1.
         11    1    4    4    0    0  0.32451509628E+02  0.94663840015E+02 -0.74599689297E+02  0.12481769396E+03  0.00000000000E+00 0.  1.
</event>
<event>
 8    1  0.6945825E-009  0.8647188E+02  0.7561462E-02  0.1311628E+00
          1   -1    0    0  501    0  0.00000000000E+00  0.00000000000E+00  0.10026756392E+03  0.10026756392E+03  0.00000000000E+00 0. -1.
         -1   -1    0    0    0  501 -0.00000000000E+00 -0.00000000000E+00 -0.15780989884E+03  0.15780989884E+03  0.00000000000E+00 0.  1.
         25    2    1    2    0    0 -0.35516743487E+02  0.20382223636E+02  0.16574631194E+02  0.13266561333E+03  0.12509425428E+03 0.  0.
         23    2    1    2    0    0  0.35516743487E+02 -0.20382223636E+02 -0.74116966119E+02  0.12541184943E+03  0.92509097940E+02 0.  0.
          5    1    3    3  502    0  0.30524326479E+02 -0.32915085095E+02 -0.39406805116E+01  0.45256366367E+02  0.41800000000E+01 0. -1.
         -5    1    3    3    0  502 -0.66041069966E+02  0.53297308731E+02  0.20515311705E+02  0.87409246963E+02  0.41800000000E+01 0. -1.
        -11    1    4    4    0    0  0.80608108808E+01 -0.11482351250E+02  0.21422725148E+02  0.25607698355E+02  0.00000000000E+00 0. -1.
         11    1    4    4    0    0  0.27455932606E+02 -0.88998723858E+01 -0.95539691267E+02  0.99804151071E+02  0.00000000000E+00 0.  1.
</event>
<event>
 8    1  0.6945825E-009  0.1602653E+03  0.7561462E-02  0.1188398E+00
         -2   -1    0    0    0  501 -0.00000000000E+00  0.00000000000E+00  0.12151019481E+02  0.12151019481E+02  0.00000000000E+00 0.  1.
          2   -1    0    0  501    0  0.00000000000E+00 -0.00000000000E+00 -0.23110414966E+04  0.23110414966E+04  0.00000000000E+00 0. -1.
         25    2    1    2    0    0  0.10279931496E+03 -0.67729384045E+02 -0.14574490686E+04  0.14679784536E+04  0.12509190159E+03 0.  0.
         23    2    1    2    0    0 -0.10279931496E+03  0.67729384045E+02 -0.84144140854E+03  0.85521406257E+03  0.90622735551E+02 0.  0.
          5    1    3    3  502    0  0.12016680581E+03 -0.27060090420E+02 -0.84756940663E+03  0.85648332218E+03  0.41800000000E+01 0. -1.
         -5    1    3    3    0  502 -0.17367490852E+02 -0.40669293625E+02 -0.60987966200E+03  0.61149513138E+03  0.41800000000E+01 0. -1.
        -11    1    4    4    0    0 -0.19615783450E+02 -0.22695484679E+02 -0.16512216950E+03  0.16782489341E+03  0.00000000000E+00 0.  1.
         11    1    4    4    0    0 -0.83183531510E+02  0.90424868724E+02 -0.67631923903E+03  0.68738916917E+03  0.00000000000E+00 0. -1.
</event>
<event>
 8    1  0.6945825E-009  0.1103094E+03  0.7561462E-02  0.1259998E+00
         -1   -1    0    0    0  501 -0.00000000000E+00  0.00000000000E+00  0.92777245256E+02  0.92777245256E+02  0.00000000000E+00 0.  1.
          1   -1    0    0  501    0  0.00000000000E+00 -0.00000000000E+00 -0.20849635154E+03  0.20849635154E+03  0.00000000000E+00 0. -1.
         25    2    1    2    0    0 -0.81677211310E+02  0.19022282147E+02 -0.44359939470E+02  0.15699709858E+03  0.12508905095E+03 0.  0.
         23    2    1    2    0    0  0.81677211310E+02 -0.19022282147E+02 -0.71359166813E+02  0.14427649822E+03  0.93223190162E+02 0.  0.
          5    1    3    3  502    0 -0.87055829112E+02  0.16532469829E+02  0.21060415261E+02  0.91175947661E+02  0.41800000000E+01 0. -1.
         -5    1    3    3    0  502  0.53786178019E+01  0.24898123179E+01 -0.65420354730E+02  0.65821150916E+02  0.41800000000E+01 0. -1.
        -11    1    4    4    0    0  0.73780664797E+02 -0.52310882037E+02 -0.44600800952E+02  0.10084268106E+03  0.00000000000E+00 0.  1.
         11    1    4    4    0    0  0.78965465134E+01  0.33288599890E+02 -0.26758365861E+02  0.43433817160E+02  0.00000000000E+00 0. -1.
</event>
<event>
 8    1  0.6945825E-009  0.1454184E+03  0.7561462E-02  0.1206219E+00
          1   -1    0    0  501    0  0.00000000000E+00  0.00000000000E+00  0.18395747201E+03  0.18395747201E+03  0.00000000000E+00 0. -1.
         -1   -1    0    0    0  501 -0.00000000000E+00 -0.00000000000E+00 -0.14974651572E+03  0.14974651572E+03  0.00000000000E+00 0.  1.
         25    2    1    2    0    0 -0.97990902554E+02 -0.45877971961E+02 -0.45890146100E+02  0.17164015383E+03  0.12508969424E+03 0.  0.
         23    2    1    2    0    0  0.97990902554E+02  0.45877971961E+02  0.80101102386E+02  0.16206383389E+03  0.90230229727E+02 0.  0.
          5    1    3    3  502    0 -0.15054162894E+02 -0.72497146318E+02 -0.39941565132E+02  0.84233396405E+02  0.41800000000E+01 0.  1.
         -5    1    3    3    0  502 -0.82936739660E+02  0.26619174356E+02 -0.59485809675E+01  0.87406757430E+02  0.41800000000E+01 0.  1.
        -11    1    4    4    0    0  0.53560141647E+02 -0.13571619019E+02  0.34366260049E+01  0.55359624406E+02  0.00000000000E+00 0.  1.
         11    1    4    4    0    0  0.44430760907E+02  0.59449590981E+02  0.76664476381E+02  0.10670420948E+03  0.00000000000E+00 0. -1.
</event>
<event>
 8    1  0.6945825E-009  0.1018273E+03  0.7561462E-02  0.1276500E+00
         -2   -1    0    0    0  501 -0.00000000000E+00  0.00000000000E+00  0.17018297849E+03  0.17018297849E+03  0.00000000000E+00 0.  1.
          2   -1    0    0  501    0  0.00000000000E+00 -0.00000000000E+00 -0.15558632394E+03  0.15558632394E+03  0.00000000000E+00 0. -1.
         25    2    1    2    0    0  0.62069773169E+02  0.18845940636E+02 -0.94511776560E+02  0.16966955154E+03  0.12508978612E+03 0.  0.
         23    2    1    2    0    0 -0.62069773169E+02 -0.18845940636E+02  0.10910843111E+03  0.15609975088E+03  0.90855138911E+02 0.  0.
          5    1    3    3  502    0  0.94444354544E+01 -0.49241906727E+02 -0.56046176363E+02  0.75316724730E+02  0.41800000000E+01 0. -1.
         -5    1    3    3    0  502  0.52625337715E+02  0.68087847363E+02 -0.38465600197E+02  0.94352826808E+02  0.41800000000E+01 0. -1.
        -11    1    4    4    0    0 -0.34637230532E+02 -0.13804614567E+01 -0.71363580178E+01  0.35391680075E+02  0.00000000000E+00 0. -1.
         11    1    4    4    0    0 -0.27432542637E+02 -0.17465479180E+02  0.11624478913E+03  0.12070807081E+03  0.00000000000E+00 0.  1.
</event>
<event>
 8    1  0.6945825E-009  0.9820909E+02  0.7561462E-02  0.1284108E+00
          2   -1    0    0  501    0  0.00000000000E+00  0.00000000000E+00  0.21281441869E+02  0.21281441869E+02  0.00000000000E+00 0. -1.
         -2   -1    0    0    0  501 -0.00000000000E+00 -0.00000000000E+00 -0.56117494333E+03  0.56117494333E+03  0.00000000000E+00 0.  1.
         25    2    1    2    0    0 -0.19765825448E+02 -0.55391390819E+00 -0.32176687766E+03  0.34579137348E+03  0.12508699269E+03 0.  0.
         23    2    1    2    0    0  0.19765825448E+02  0.55391390819E+00 -0.21812662380E+03  0.23666501171E+03  0.89666655362E+02 0.  0.
          5    1    3    3  502    0  0.27740607203E+02  0.39027417776E+02 -0.60468658297E+02  0.77243845467E+02  0.41800000000E+01 0. -1.
         -5    1    3    3    0  502 -0.47506432651E+02 -0.39581331684E+02 -0.26129821936E+03  0.26854752802E+03  0.41800000000E+01 0. -1.
        -11    1    4    4    0    0  0.29275768742E+02  0.37871601121E+02 -0.79592635144E+02  0.92877964965E+02  0.00000000000E+00 0.  1.
         11    1    4    4    0    0 -0.95099432940E+01 -0.37317687213E+02 -0.13853398865E+03  0.14378704675E+03  0.00000000000E+00 0. -1.
</event>
<event>
 8    1  0.6945825E-009  0.1950170E+03  0.7561462E-02  0.1154013E+00
         -1   -1    0    0    0  501 -0.00000000000E+00  0.00000000000E+00  0.28958207521E+03  0.28958207521E+03  0.00000000000E+00 0.  1.
          1   -1    0    0  501    0  0.00000000000E+00 -0.00000000000E+00 -0.15682656424E+03  0.15682656424E+03  0.00000000000E+00 0. -1.
         25    2    1    2    0    0 -0.65249335901E+02 -0.17060805004E+03  0.64832627520E+02  0.23068510896E+03  0.12509103618E+03 0.  0.
         23    2    1    2    0    0  0.65249335901E+02  0.17060805004E+03  0.67922883445E+02  0.21572353048E+03  0.92512382613E+02 0.  0.
          5    1    3    3  502    0  0.41861968652E+01 -0.26192956131E+02  0.65066709540E+02  0.70389944491E+02  0.41800000000E+01 0.  1.
         -5    1    3    3    0  502 -0.69435532767E+02 -0.14441509390E+03 -0.23408201958E+00  0.16029516447E+03  0.41800000000E+01 0.  1.
        -11    1    4    4    0    0  0.19986311571E+02  0.15303021274E+03  0.63783216160E+02  0.16699100971E+03  0.00000000000E+00 0. -1.
         11    1    4    4    0    0  0.45263024330E+02  0.17577837296E+02  0.41396672850E+01  0.48732520772E+02  0.00000000000E+00 0.  1.
</event>
<event>
 8    1  0.6945825E-009  0.6801748E+02  0.7561462E-02  0.1366967E+00
          1   -1    0    0  501    0  0.00000000000E+00  0.00000000000E+00  0.11047193290E+03  0.11047193290E+03  0.00000000000E+00 0. -1.
         -1   -1    0    0    0  501 -0.00000000000E+00 -0.00000000000E+00 -0.11247496269E+03  0.11247496269E+03  0.00000000000E+00 0.  1.
         25    2    1    2    0    0 -0.69646540800E+01  0.24061334821E+02  0.85788361478E+01  0.12786051719E+03  0.12508901305E+03 0.  0.
         23    2    1    2    0    0  0.69646540800E+01 -0.24061334821E+02 -0.10581865941E+02  0.95086378399E+02  0.91115252457E+02 0.  0.
          5    1    3    3  502    0  0.35764489886E+01  0.31986470444E+02 -0.54418377752E+02  0.63362114201E+02  0.41800000000E+01 0. -1.
         -5    1    3    3    0  502 -0.10541103069E+02 -0.79251356238E+01  0.62997213899E+02  0.64498402985E+02  0.41800000000E+01 0. -1.
        -11    1    4    4    0    0  0.49969052793E+01 -0.56763489924E+02 -0.20967675692E+02  0.60718253225E+02  0.00000000000E+00 0.  1.
         11    1    4    4    0    0  0.19677488007E+01  0.32702155104E+02  0.10385809751E+02  0.34368125174E+02  0.00000000000E+00 0. -1.
</event>
<event>
 8    1  0.6945825E-009  0.1102891E+03  0.7561462E-02  0.1260035E+00
         -1   -1    0    0    0  501 -0.00000000000E+00  0.00000000000E+00  0.12343687892E+03  0.12343687892E+03  0.00000000000E+00 0.  1.
          1   -1    0    0  501    0  0.00000000000E+00 -0.00000000000E+00 -0.10573561518E+03  0.10573561518E+03  0.00000000000E+00 0. -1.
         25    2    1    2    0    0 -0.17429753087E+02  0.31851035044E+02  0.10850270715E+01  0.13026367617E+03  0.12509661594E+03 0.  0.
         23    2    1    2    0    0  0.17429753087E+02 -0.31851035044E+02  0.16616236668E+02  0.98908817928E+02  0.90490718954E+02 0.  0.
          5    1    3    3  502    0 -0.54026749660E+02 -0.23213770020E+02  0.18460218984E+02  0.61773949868E+02  0.41800000000E+01 0.  1.
         -5    1    3    3    0  502  0.36596996573E+02  0.55064805064E+02 -0.17375191913E+02  0.68489726302E+02  0.41800000000E+01 0.  1.
        -11    1    4    4    0    0  0.32809087833E+02  0.21915305726E+02  0.17057079400E+02  0.42984425402E+02  0.00000000000E+00 0.  1.
         11    1    4    4    0    0 -0.15379334747E+02 -0.53766340770E+02 -0.44084273234E+00  0.55924392526E+02  0.00000000000E+00 0. -1.
</event>
<event>
 8    1  0.6945825E-009  0.9205322E+02  0.7561462E-02  0.1297954E+00
          3   -1    0    0  501    0  0.00000000000E+00  0.00000000000E+00  0.12517881361E+03  0.12517881361E+03  0.00000000000E+00 0. -1.
         -3   -1    0    0    0  501 -0.00000000000E+00 -0.00000000000E+00 -0.10487626297E+03  0.10487626297E+03  0.00000000000E+00 0.  1.
         25    2    1    2    0    0  0.12924961432E+01  0.29589907156E+02  0.30239605230E+02  0.13205834186E+03  0.12509092205E+03 0.  0.
         23    2    1    2    0    0 -0.12924961432E+01 -0.29589907156E+02 -0.99370545857E+01  0.97996734711E+02  0.92883700446E+02 0.  0.
          5    1    3    3  502    0 -0.45038276384E+02  0.34607701368E+02 -0.22785537680E+02  0.61341604650E+02  0.41800000000E+01 0.  1.
         -5    1    3    3    0  502  0.46330772527E+02 -0.50177942123E+01  0.53025142910E+02  0.70716737215E+02  0.41800000000E+01 0.  1.
        -11    1    4    4    0    0  0.16173188260E+02 -0.50554323286E+02 -0.32802446725E+02  0.62396411215E+02  0.00000000000E+00 0. -1.
         11    1    4    4    0    0 -0.17465684404E+02  0.20964416130E+02  0.22865392139E+02  0.35600323496E+02  0.00000000000E+00 0.  1.
</event>
<event>
 8    1  0.6945825E-009  0.1307557E+03  0.7561462E-02  0.1226339E+00
         -2   -1    0    0    0  501 -0.00000000000E+00  0.00000000000E+00  0.40644482897E+02  0.40644482897E+02  0.00000000000E+00 0.  1.
          2   -1    0    0  501    0  0.00000000000E+00 -0.00000000000E+00 -0.49229049166E+03  0.49229049166E+03  0.00000000000E+00 0. -1.
         25    2    1    2    0    0 -0.11139605899E+02 -0.88179324295E+02 -0.21753683423E+03  0.26620853773E+03  0.12508008338E+03 0.  0.
         23    2    1    2    0    0  0.11139605899E+02  0.88179324295E+02 -0.23410917453E+03  0.26672643683E+03  0.91848802121E+02 0.  0.
          5    1    3    3  502    0 -0.18875270694E+02 -0.11046570007E+03 -0.11391540711E+03  0.15985349265E+03  0.41800000000E+01 0. -1.
         -5    1    3    3    0  502  0.77356647948E+01  0.22286375773E+02 -0.10362142711E+03  0.10635504507E+03  0.41800000000E+01 0. -1.
        -11    1    4    4    0    0  0.49011766868E+02  0.35451867870E+02 -0.87349176341E+02  0.10624907922E+03  0.00000000000E+00 0.  1.
         11    1    4    4    0    0 -0.37872160968E+02  0.52727456425E+02 -0.14675999819E+03  0.16047735761E+03  0.00000000000E+00 0. -1.
</event>
<event>
 8    1  0.6945825E-009  0.1134407E+03  0.7561462E-02  0.1254328E+00
          1   -1    0    0  501    0  0.00000000000E+00  0.00000000000E+00  0.32509229014E+03  0.32509229014E+03  0.00000000000E+00 0. -1.
         -1   -1    0    0    0  501 -0.00000000000E+00 -0.00000000000E+00 -0.40806537710E+02  0.40806537710E+02  0.00000000000E+00 0.  1.
         25    2    1    2    0    0  0.19639584696E+02 -0.35598542290E+02  0.16259748239E+03  0.20913671096E+03  0.12508898070E+03 0.  0.
         23    2    1    2    0    0 -0.19639584696E+02  0.35598542290E+02  0.12168827005E+03  0.15676211689E+03  0.90074173464E+02 0.  0.
          5    1    3    3  502    0  0.70684731261E+02 -0.50576425803E+01  0.76030699995E+02  0.10401947281E+03  0.41800000000E+01 0.  1.
         -5    1    3    3    0  502 -0.51045146566E+02 -0.30540899710E+02  0.86566782393E+02  0.10511723815E+03  0.41800000000E+01 0.  1.
        -11    1    4    4    0    0 -0.84498480483E+01  0.64613763493E+02  0.64626777913E+02  0.91776678890E+02  0.00000000000E+00 0.  1.
         11    1    4    4    0    0 -0.11189736647E+02 -0.29015221203E+02  0.57061492134E+02  0.64985438001E+02  0.00000000000E+00 0. -1.
</event>
<event>
 8    1  0.6945825E-009  0.1057219E+03  0.7561462E-02  0.1268704E+00
         -1   -1    0    0    0  501 -0.00000000000E+00  0.00000000000E+00  0.14921477809E+03  0.14921477809E+03  0.00000000000E+00 0.  1.
          1   -1    0    0  501    0  0.00000000000E+00 -0.00000000000E+00 -0.17241892606E+03  0.17241892606E+03  0.00000000000E+00 0. -1.
         25    2    1    2    0    0 -0.14082177375E+02  0.10143817554E+02  0.10515905009E+03  0.16433776538E+03  0.12508905051E+03 0.  0.
         23    2    1    2    0    0  0.14082177375E+02 -0.10143817554E+02 -0.12836319806E+03  0.15729593877E+03  0.89239548320E+02 0.  0.
          5    1    3    3  502    0 -0.40498249531E+02  0.55101848579E+02  0.35320796127E+02  0.77080172360E+02  0.41800000000E+01 0.  1.
         -5    1    3    3    0  502  0.26416072156E+02 -0.44958031025E+02  0.69838253968E+02  0.87257593017E+02  0.41800000000E+01 0.  1.
        -11    1    4    4    0    0  0.40514095249E+02  0.24270403246E+02 -0.60602557738E+02  0.76831727769E+02  0.00000000000E+00 0.  1.
         11    1    4    4    0    0 -0.26431917874E+02 -0.34414220800E+02 -0.67760640320E+02  0.80464211003E+02  0.00000000000E+00 0. -1.
</event>
<event>
 8    1  0.6945825E-009  0.2148740E+03  0.7561462E-02  0.1137763E+00
          1   -1    0    0  501    0  0.00000000000E+00  0.00000000000E+00  0.69159387719E+03  0.69159387719E+03  0.00000000000E+00 0. -1.
         -1   -1    0    0    0  501 -0.00000000000E+00 -0.00000000000E+00 -0.85008441347E+02  0.85008441347E+02  0.00000000000E+00 0.  1.
         25    2    1    2    0    0 -0.12364001309E+03  0.15160711613E+03  0.16460268537E+03  0.28462831053E+03  0.12509060967E+03 0.  0.
         23    2    1    2    0    0  0.12364001309E+03 -0.15160711613E+03  0.44198275047E+03  0.49197400800E+03  0.91750217099E+02 0.  0.
          5    1    3    3  502    0 -0.70668786422E+01  0.10564219377E+03  0.63203103941E+02  0.12337876084E+03  0.41800000000E+01 0.  1.
         -5    1    3    3    0  502 -0.11657313445E+03  0.45964922356E+02  0.10139958143E+03  0.16124954969E+03  0.41800000000E+01 0.  1.
        -11    1    4    4    0    0  0.33154473895E+02 -0.20073471845E+02  0.26711959443E+02  0.47071139655E+02  0.00000000000E+00 0. -1.
         11    1    4    4    0    0  0.90485539194E+02 -0.13153364428E+03  0.41527079103E+03  0.44490286835E+03  0.00000000000E+00 0.  1.
</event>
<event>
 8    1  0.6945825E-009  0.1325801E+03  0.7561462E-02  0.1223677E+00
          2   -1    0    0  501    0  0.00000000000E+00  0.00000000000E+00  0.15059068576E+04  0.15059068576E+04  0.00000000000E+00 0.  1.
         -2   -1    0    0    0  501 -0.00000000000E+00 -0.00000000000E+00 -0.18725528426E+02  0.18725528426E+02  0.00000000000E+00 0. -1.
         25    2    1    2    0    0  0.12312202936E+03 -0.80196313009E+01  0.94145755203E+03  0.95771269967E+03  0.12509174331E+03 0.  0.
         23    2    1    2    0    0 -0.12312202936E+03  0.80196313009E+01  0.54572377715E+03  0.56691968636E+03  0.91433807937E+02 0.  0.
          5    1    3    3  502    0  0.82889769613E+01  0.17264985493E+02  0.51355438781E+03  0.51392836904E+03  0.41800000000E+01 0.  1.
         -5    1    3    3    0  502  0.11483305239E+03 -0.25284616794E+02  0.42790316421E+03  0.44378433063E+03  0.41800000000E+01 0.  1.
        -11    1    4    4    0    0 -0.10542806693E+03 -0.55913726367E+01  0.52789953139E+03  0.53835328177E+03  0.00000000000E+00 0.  1.
         11    1    4    4    0    0 -0.17693962423E+02  0.13611003938E+02  0.17824245759E+02  0.28566404592E+02  0.00000000000E+00 0. -1.
</event>
<event>
 8    1  0.6945825E-009  0.1072752E+03  0.7561462E-02  0.1265701E+00
          1   -1    0    0  501    0  0.00000000000E+00  0.00000000000E+00  0.79457516472E+02  0.79457516472E+02  0.00000000000E+00 0. -1.
         -1   -1    0    0    0  501 -0.00000000000E+00 -0.00000000000E+00 -0.21039843924E+03  0.21039843924E+03  0.00000000000E+00 0.  1.
         25    2    1    2    0    0  0.32609689791E+00  0.70305608612E+02 -0.67651383331E+02  0.15863915321E+03  0.12508671521E+03 0.  0.
         23    2    1    2    0    0 -0.32609689791E+00 -0.70305608612E+02 -0.63289539435E+02  0.13121680250E+03  0.90935683401E+02 0.  0.
          5    1    3    3  502    0  0.45795888636E+02  0.58688918990E+02  0.19557119613E+01  0.74585185107E+02  0.41800000000E+01 0. -1.
         -5    1    3    3    0  502 -0.45469791738E+02  0.11616689622E+02 -0.69607095292E+02  0.84053968101E+02  0.41800000000E+01 0. -1.
        -11    1    4    4    0    0 -0.29886010961E+02 -0.25996771256E+02  0.97744455198E+01  0.40798842534E+02  0.00000000000E+00 0.  1.
         11    1    4    4    0    0  0.29559914064E+02 -0.44308837356E+02 -0.73063984955E+02  0.90417959968E+02  0.00000000000E+00 0. -1.
</event>
<event>
 8    1  0.6945825E-009  0.9953800E+02  0.7561462E-02  0.1281270E+00
          2   -1    0    0  501    0  0.00000000000E+00  0.00000000000E+00  0.71306534261E+03  0.71306534261E+03  0.00000000000E+00 0.  1.
         -2   -1    0    0    0  501 -0.00000000000E+00 -0.00000000000E+00 -0.21636211294E+02  0.21636211294E+02  0.00000000000E+00 0. -1.
         25    2    1    2    0    0 -0.51246753938E+01 -0.19414091594E+02  0.21471610400E+03  0.24930017812E+03  0.12507759290E+03 0.  0.
         23    2    1    2    0    0  0.51246753938E+01  0.19414091594E+02  0.47671302732E+03  0.48540137579E+03  0.89196501872E+02 0.  0.
          5    1    3    3  502    0 -0.10555169076E+02  0.43230728784E+02  0.29241495903E+02  0.53412030368E+02  0.41800000000E+01 0.  1.
         -5    1    3    3    0  502  0.54304936819E+01 -0.62644820379E+02  0.18547460809E+03  0.19588814775E+03  0.41800000000E+01 0.  1.
        -11    1    4    4    0    0  0.46425940505E+02  0.18010034969E+01  0.23308860123E+03  0.23767395228E+03  0.00000000000E+00 0. -1.
         11    1    4    4    0    0 -0.41301265111E+02  0.17613088098E+02  0.24362442609E+03  0.24772742351E+03  0.00000000000E+00 0.  1.
</event>
<event>
 8    1  0.6945825E-009  0.1131685E+03  0.7561462E-02  0.1254812E+00
         -4   -1    0    0    0  501 -0.00000000000E+00  0.00000000000E+00  0.71336591110E+02  0.71336591110E+02  0.00000000000E+00 0. -1.
          4   -1    0    0  501    0  0.00000000000E+00 -0.00000000000E+00 -0.32344089551E+03  0.32344089551E+03  0.00000000000E+00 0.  1.
         25    2    1    2    0    0 -0.74016737635E+02  0.33138939690E+02 -0.48957991210E+02  0.15691028622E+03  0.12508911321E+03 0.  0.
         23    2    1    2    0    0  0.74016737635E+02 -0.33138939690E+02 -0.20314631319E+03  0.23786720041E+03  0.93465039944E+02 0.  0.
          5    1    3    3  502    0 -0.96142827075E+02 -0.24530695935E+01 -0.55447784452E+01  0.96424466379E+02  0.41800000000E+01 0.  1.
         -5    1    3    3    0  502  0.22126089440E+02  0.35592009283E+02 -0.43413212765E+02  0.60485819836E+02  0.41800000000E+01 0.  1.
        -11    1    4    4    0    0  0.33552723640E+02 -0.33606307538E+02 -0.18919373487E+03  0.19506265271E+03  0.00000000000E+00 0.  1.
         11    1    4    4    0    0  0.40464013995E+02  0.46736784810E+00 -0.13952578323E+02  0.42804547693E+02  0.00000000000E+00 0. -1.
</event>
<event>
 8    1  0.6945825E-009  0.9866299E+02  0.7561462E-02  0.1283133E+00
         -1   -1    0    0    0  501 -0.00000000000E+00  0.00000000000E+00  0.41241492242E+02  0.41241492242E+02  0.00000000000E+00 0.  1.
          1   -1    0    0  501    0  0.00000000000E+00 -0.00000000000E+00 -0.29127774294E+03  0.29127774294E+03  0.00000000000E+00 0. -1.
         25    2    1    2    0    0 -0.35433190147E+00  0.18223420369E+02 -0.12352144290E+03  0.17673745735E+03  0.12508542431E+03 0.  0.
         23    2    1    2    0    0  0.35433190147E+00 -0.18223420369E+02 -0.12651480780E+03  0.15578177783E+03  0.89049127508E+02 0.  0.
          5    1    3    3  502    0  0.57325070828E+02  0.27396781296E+02 -0.86697556918E+02  0.10756712391E+03  0.41800000000E+01 0. -1.
         -5    1    3    3    0  502 -0.57679402729E+02 -0.91733609275E+01 -0.36823885981E+02  0.69170333443E+02  0.41800000000E+01 0. -1.
        -11    1    4    4    0    0 -0.21264756507E+02 -0.39440872753E+02 -0.28288059593E+02  0.52990439027E+02  0.00000000000E+00 0.  1.
         11    1    4    4    0    0  0.21619088408E+02  0.21217452384E+02 -0.98226748209E+02  0.10279133880E+03  0.00000000000E+00 0. -1.
</event>
<event>
 8    1  0.6945825E-009  0.1185913E+03  0.7561462E-02  0.1245439E+00
         -1   -1    0    0    0  501 -0.00000000000E+00  0.00000000000E+00  0.45966724405E+02  0.45966724405E+02  0.00000000000E+00 0.  1.
          1   -1    0    0  501    0  0.00000000000E+00 -0.00000000000E+00 -0.67957832937E+03  0.67957832937E+03  0.00000000000E+00 0. -1.
         25    2    1    2    0    0 -0.25983950434E+01 -0.51297409306E+02 -0.60352414456E+03  0.61848780666E+03  0.12509035960E+03 0.  0.
         23    2    1    2    0    0  0.25983950434E+01  0.51297409306E+02 -0.30087460404E+02  0.10705724711E+03  0.88982150049E+02 0.  0.
          5    1    3    3  502    0  0.59400140303E+02 -0.11340389883E+02 -0.24038919809E+03  0.24791413850E+03  0.41800000000E+01 0. -1.
         -5    1    3    3    0  502 -0.61998535347E+02 -0.39957019423E+02 -0.36313494647E+03  0.37057366816E+03  0.41800000000E+01 0. -1.
        -11    1    4    4    0    0 -0.29011719374E+02  0.62697936159E+02 -0.18601213919E+02  0.71545204024E+02  0.00000000000E+00 0.  1.
         11    1    4    4    0    0  0.31610114417E+02 -0.11400526853E+02 -0.11486246485E+02  0.35512043088E+02  0.00000000000E+00 0. -1.
</event>
<event>
 8    1  0.6945825E-009  0.1125877E+03  0.7561462E-02  0.1255851E+00
         -2   -1    0    0    0  501 -0.00000000000E+00  0.00000000000E+00  0.53991712559E+02  0.53991712559E+02  0.00000000000E+00 0.  1.
          2   -1    0    0  501    0  0.00000000000E+00 -0.00000000000E+00 -0.29860094193E+03  0.29860094193E+03  0.00000000000E+00 0. -1.
         25    2    1    2    0    0  0.45655452650E+02 -0.25153545234E+02 -0.80539854744E+02  0.15765146020E+03  0.12510073344E+03 0.  0.
         23    2    1    2    0    0 -0.45655452650E+02  0.25153545234E+02 -0.16406937462E+03  0.19494119428E+03  0.91466870202E+02 0.  0.
          5    1    3    3  502    0 -0.10588933098E+02 -0.64867810900E+02 -0.31418703183E+02  0.72969621794E+02  0.41800000000E+01 0. -1.
         -5    1    3    3    0  502  0.56244385747E+02  0.39714265666E+02 -0.49121151561E+02  0.84681838408E+02  0.41800000000E+01 0. -1.
        -11    1    4    4    0    0  0.19302350776E+01 -0.22740589402E+02 -0.68338923341E+01  0.23823566027E+02  0.00000000000E+00 0.  1.
         11    1    4    4    0    0 -0.47585687727E+02  0.47894134636E+02 -0.15723548229E+03  0.17111762826E+03  0.00000000000E+00 0. -1.
</event>
<event>
 8    1  0.6945825E-009  0.1261778E+03  0.7561462E-02  0.1233240E+00
          2   -1    0    0  501    0  0.00000000000E+00  0.00000000000E+00  0.24791095894E+03  0.24791095894E+03  0.00000000000E+00 0. -1.
         -2   -1    0    0    0  501 -0.00000000000E+00 -0.00000000000E+00 -0.80863215004E+02  0.80863215004E+02  0.00000000000E+00 0.  1.
         25    2    1    2    0    0 -0.91777861600E+02  0.11332795346E+02  0.91588033631E+02  0.18051949428E+03  0.12508921528E+03 0.  0.
         23    2    1    2    0    0  0.91777861600E+02 -0.11332795346E+02  0.75459710302E+02  0.14825467966E+03  0.87941310164E+02 0.  0.
          5    1    3    3  502    0 -0.11090223831E+03 -0.23794784783E+02  0.54894837887E+02  0.12608098140E+03  0.41800000000E+01 0. -1.
         -5    1    3    3    0  502  0.19124376707E+02  0.35127580130E+02  0.36693195744E+02  0.54438512875E+02  0.41800000000E+01 0. -1.
        -11    1    4    4    0    0  0.49595633603E+02 -0.23293517787E+02 -0.66265091919E+01  0.55192621494E+02  0.00000000000E+00 0.  1.
         11    1    4    4    0    0  0.42182227997E+02  0.11960722441E+02  0.82086219494E+02  0.93062058170E+02  0.00000000000E+00 0. -1.
</event>
<event>
 8    1  0.6945825E-009  0.1314260E+03  0.7561462E-02  0.1225355E+00
         -2   -1    0    0    0  501 -0.00000000000E+00  0.00000000000E+00  0.21991973711E+03  0.21991973711E+03  0.00000000000E+00 0.  1.
          2   -1    0    0  501    0  0.00000000000E+00 -0.00000000000E+00 -0.11251580347E+03  0.11251580347E+03  0.00000000000E+00 0. -1.
         25    2    1    2    0    0  0.70330996993E+02  0.77966494740E+02  0.10157357900E+03  0.19232845950E+03  0.12509125047E+03 0.  0.
         23    2    1    2    0    0 -0.70330996993E+02 -0.77966494740E+02  0.58303546352E+01  0.14010708108E+03  0.92578494761E+02 0.  0.
          5    1    3    3  502    0 -0.32723918839E+02  0.27494746108E+02  0.51506307200E+02  0.67061076707E+02  0.41800000000E+01 0.  1.
         -5    1    3    3    0  502  0.10305491583E+03  0.50471748632E+02  0.50067271798E+02  0.12526738280E+03  0.41800000000E+01 0.  1.
        -11    1    4    4    0    0 -0.45396484873E+02 -0.53193026451E+02  0.48291959449E+02  0.84985011909E+02  0.00000000000E+00 0.  1.
         11    1    4    4    0    0 -0.24934512121E+02 -0.24773468290E+02 -0.42461604814E+02  0.55122069166E+02  0.00000000000E+00 0. -1.
</event>
<event>
 8    1  0.6945825E-009  0.1271216E+03  0.7561462E-02  0.1231790E+00
         -3   -1    0    0    0  501 -0.00000000000E+00  0.00000000000E+00  0.53839063189E+02  0.53839063189E+02  0.00000000000E+00 0.  1.
          3   -1    0    0  501    0  0.00000000000E+00 -0.00000000000E+00 -0.55143159510E+03  0.55143159510E+03  0.00000000000E+00 0. -1.
         25    2    1    2    0    0 -0.10282966325E+03 -0.90969574165E+01 -0.11375203700E+03  0.19810064357E+03  0.12509054633E+03 0.  0.
         23    2    1    2    0    0  0.10282966325E+03  0.90969574165E+01 -0.38384049491E+03  0.40717001472E+03  0.88301761463E+02 0.  0.
          5    1    3    3  502    0 -0.64476332625E+02 -0.36298839137E+02  0.89513513150E+00  0.74115294362E+02  0.41800000000E+01 0.  1.
         -5    1    3    3    0  502 -0.38353330627E+02  0.27201881720E+02 -0.11464717213E+03  0.12398534921E+03  0.41800000000E+01 0.  1.
        -11    1    4    4    0    0  0.81044378094E+02  0.43671416404E+02 -0.30156960408E+03  0.31530875334E+03  0.00000000000E+00 0.  1.
         11    1    4    4    0    0  0.21785285158E+02 -0.34574458988E+02 -0.82270890828E+02  0.91861261375E+02  0.00000000000E+00 0. -1.
</event>
<event>
 8    1  0.6945825E-009  0.1152523E+03  0.7561462E-02  0.1251141E+00
         -1   -1    0    0    0  501 -0.00000000000E+00  0.00000000000E+00  0.33150721379E+02  0.33150721379E+02  0.00000000000E+00 0.  1.
          1   -1    0    0  501    0  0.00000000000E+00 -0.00000000000E+00 -0.47284448881E+03  0.47284448881E+03  0.00000000000E+00 0. -1.
         25    2    1    2    0    0  0.59266494311E+02 -0.16968002459E+02 -0.25386460378E+03  0.28964742556E+03  0.12509182077E+03 0.  0.
         23    2    1    2    0    0 -0.59266494311E+02  0.16968002459E+02 -0.18582916365E+03  0.21634778463E+03  0.92051373686E+02 0.  0.
          5    1    3    3  502    0  0.18181009343E+01 -0.59449588011E+02 -0.67775503578E+02  0.90269320874E+02  0.41800000000E+01 0.  1.
         -5    1    3    3    0  502  0.57448393376E+02  0.42481585553E+02 -0.18608910020E+03  0.19937810468E+03  0.41800000000E+01 0.  1.
        -11    1    4    4    0    0 -0.49358343874E+02 -0.25600621359E+02 -0.54185406625E+02  0.77638239387E+02  0.00000000000E+00 0.  1.
         11    1    4    4    0    0 -0.99081504363E+01  0.42568623817E+02 -0.13164375703E+03  0.13870954525E+03  0.00000000000E+00 0. -1.
</event>
<event>
 8    1  0.6945825E-009  0.2019347E+03  0.7561462E-02  0.1148117E+00
         -2   -1    0    0    0  501 -0.00000000000E+00  0.00000000000E+00  0.41738651436E+02  0.41738651436E+02  0.00000000000E+00 0.  1.
          2   -1    0    0  501    0  0.00000000000E+00 -0.00000000000E+00 -0.11479600351E+04  0.11479600351E+04  0.00000000000E+00 0. -1.
         25    2    1    2    0    0  0.35255138453E+02  0.17849018836E+03 -0.41940696392E+03  0.47397437681E+03  0.12509131212E+03 0.  0.
         23    2    1    2    0    0 -0.35255138453E+02 -0.17849018836E+03 -0.68681441971E+03  0.71572430969E+03  0.86287706115E+02 0.  0.
          5    1    3    3  502    0  0.56970497610E+02  0.16978827482E+03 -0.27892885523E+03  0.33150033868E+03  0.41800000000E+01 0.  1.
         -5    1    3    3    0  502 -0.21715359157E+02  0.87019135398E+01 -0.14047810869E+03  0.14247403813E+03  0.41800000000E+01 0.  1.
        -11    1    4    4    0    0 -0.63800751253E+02 -0.12279754199E+03 -0.49327323978E+03  0.51231656352E+03  0.00000000000E+00 0.  1.
         11    1    4    4    0    0  0.28545612800E+02 -0.55692646363E+02 -0.19354117993E+03  0.20340774616E+03  0.00000000000E+00 0. -1.
</event>
<event>
 8    1  0.6945825E-009  0.1016490E+03  0.7561462E-02  0.1276866E+00
          1   -1    0    0  501    0  0.00000000000E+00  0.00000000000E+00  0.37187491851E+03  0.37187491851E+03  0.00000000000E+00 0. -1.
         -1   -1    0    0    0  501 -0.00000000000E+00 -0.00000000000E+00 -0.65490259218E+02  0.65490259218E+02  0.00000000000E+00 0.  1.
         25    2    1    2    0    0  0.76209916058E+02  0.43520721484E+02  0.67120723709E+02  0.16690875675E+03  0.12510530375E+03 0.  0.
         23    2    1    2    0    0 -0.76209916058E+02 -0.43520721484E+02  0.23926393558E+03  0.27045642098E+03  0.90539716548E+02 0.  0.
          5    1    3    3  502    0  0.59562869530E+02  0.54640097027E+02 -0.14969565277E+02  0.82309391410E+02  0.41800000000E+01 0. -1.
         -5    1    3    3    0  502  0.16647046527E+02 -0.11119375542E+02  0.82090288986E+02  0.84599365342E+02  0.41800000000E+01 0. -1.
        -11    1    4    4    0    0 -0.14972532339E+02  0.12048678008E+02  0.21516333552E+01  0.19338482166E+02  0.00000000000E+00 0.  1.
         11    1    4    4    0    0 -0.61237383719E+02 -0.55569399492E+02  0.23711230223E+03  0.25111793881E+03  0.00000000000E+00 0. -1.
</event>
<event>
 8    1  0.6945825E-009  0.2130415E+03  0.7561462E-02  0.1139180E+00
          2   -1    0    0  501    0  0.00000000000E+00  0.00000000000E+00  0.10969273304E+04  0.10969273304E+04  0.00000000000E+00 0. -1.
         -2   -1    0    0    0  501 -0.00000000000E+00 -0.00000000000E+00 -0.46541776190E+02  0.46541776190E+02  0.00000000000E+00 0.  1.
         25    2    1    2    0    0  0.80286319126E+02  0.18045697629E+03  0.58076316736E+03  0.62605420337E+03  0.12508955054E+03 0.  0.
         23    2    1    2    0    0 -0.80286319126E+02 -0.18045697629E+03  0.46962238680E+03  0.51741490318E+03  0.90345904814E+02 0.  0.
          5    1    3    3  502    0 -0.15554659878E+02  0.82325508112E+02  0.12873891069E+03  0.15365746404E+03  0.41800000000E+01 0. -1.
         -5    1    3    3    0  502  0.95840979004E+02  0.98131468179E+02  0.45202425667E+03  0.47239673932E+03  0.41800000000E+01 0. -1.
        -11    1    4    4    0    0 -0.15868795931E+02 -0.10302649498E+03  0.32397474890E+03  0.34033206619E+03  0.00000000000E+00 0. -1.
         11    1    4    4    0    0 -0.64417523195E+02 -0.77430481309E+02  0.14564763791E+03  0.17708283700E+03  0.00000000000E+00 0.  1.
</event>
<event>
 8    1  0.6945825E-009  0.1332828E+03  0.7561462E-02  0.1222664E+00
         -2   -1    0    0    0  501 -0.00000000000E+00  0.00000000000E+00  0.75425469552E+02  0.75425469552E+02  0.00000000000E+00 0.  1.
          2   -1    0    0  501    0  0.00000000000E+00 -0.00000000000E+00 -0.31666755236E+03  0.31666755236E+03  0.00000000000E+00 0. -1.
         25    2    1    2    0    0 -0.69428680683E+02  0.78358505780E+02 -0.17321112839E+03  0.23792919999E+03  0.12509121505E+03 0.  0.
         23    2    1    2    0    0  0.69428680683E+02 -0.78358505780E+02 -0.68030954416E+02  0.15416382192E+03  0.90431610069E+02 0.  0.
          5    1    3    3  502    0 -0.57773375252E+02  0.10007657865E+02 -0.87888608721E+01  0.59435953592E+02  0.41800000000E+01 0.  1.
         -5    1    3    3    0  502 -0.11655305432E+02  0.68350847915E+02 -0.16442226752E+03  0.17849324640E+03  0.41800000000E+01 0.  1.
        -11    1    4    4    0    0  0.72794037109E+02 -0.14315596085E+02 -0.37844779542E+02  0.83283464557E+02  0.00000000000E+00 0. -1.
         11    1    4    4    0    0 -0.33653564259E+01 -0.64042909694E+02 -0.30186174874E+02  0.70880357360E+02  0.00000000000E+00 0.  1.
</event>
<event>
 8    1  0.6945825E-009  0.1053159E+03  0.7561462E-02  0.1269498E+00
          1   -1    0    0  501    0  0.00000000000E+00  0.00000000000E+00  0.47526685634E+03  0.47526685634E+03  0.00000000000E+00 0. -1.
         -1   -1    0    0    0  501 -0.00000000000E+00 -0.00000000000E+00 -0.24961439896E+02  0.24961439896E+02  0.00000000000E+00 0.  1.
         25    2    1    2    0    0 -0.11391045597E+02 -0.78482343737E+01  0.26108438167E+03  0.28983449521E+03  0.12509048551E+03 0.  0.
         23    2    1    2    0    0  0.11391045597E+02  0.78482343737E+01  0.18922103478E+03  0.21039380102E+03  0.90937345481E+02 0.  0.
          5    1    3    3  502    0  0.75859485575E+01 -0.62370621152E+02  0.95192012399E+02  0.11413427453E+03  0.41800000000E+01 0. -1.
         -5    1    3    3    0  502 -0.18976994155E+02  0.54522386779E+02  0.16589236927E+03  0.17570022068E+03  0.41800000000E+01 0. -1.
        -11    1    4    4    0    0  0.14609695348E+02 -0.39607566188E+02  0.66397085395E+02  0.78681480963E+02  0.00000000000E+00 0.  1.
         11    1    4    4    0    0 -0.32186497507E+01  0.47455800562E+02  0.12282394939E+03  0.13171232006E+03  0.00000000000E+00 0. -1.
</event>
<event>
 8    1  0.6945825E-009  0.1026253E+03  0.7561462E-02  0.1274870E+00
         -1   -1    0    0    0  501 -0.00000000000E+00  0.00000000000E+00  0.18521074131E+03  0.18521074131E+03  0.00000000000E+00 0.  1.
          1   -1    0    0  501    0  0.00000000000E+00 -0.00000000000E+00 -0.88432587497E+02  0.88432587497E+02  0.00000000000E+00 0. -1.
         25    2    1    2    0    0 -0.27274939039E+02  0.60365064921E+02  0.50309393142E+02  0.15021643127E+03  0.12508428287E+03 0.  0.
         23    2    1    2    0    0  0.27274939039E+02 -0.60365064921E+02  0.46468760676E+02  0.12342689754E+03  0.93204023282E+02 0.  0.
          5    1    3    3  502    0 -0.75841616634E+02  0.39591014956E+02  0.45552823336E+02  0.97015109095E+02  0.41800000000E+01 0.  1.
         -5    1    3    3    0  502  0.48566677595E+02  0.20774049965E+02  0.47565698060E+01  0.53201322173E+02  0.41800000000E+01 0.  1.
        -11    1    4    4    0    0  0.57598556448E+01 -0.20651060759E+02  0.69496289975E+02  0.72728100263E+02  0.00000000000E+00 0.  1.
         11    1    4    4    0    0  0.21515083394E+02 -0.39714004163E+02 -0.23027529299E+02  0.50698797281E+02  0.00000000000E+00 0. -1.
</event>
<event>
 8    1  0.6945825E-009  0.8614429E+02  0.7561462E-02  0.1312467E+00
         -2   -1    0    0    0  501 -0.00000000000E+00  0.00000000000E+00  0.11255038661E+03  0.11255038661E+03  0.00000000000E+00 0.  1.
          2   -1    0    0  501    0  0.00000000000E+00 -0.00000000000E+00 -0.25340063409E+03  0.25340063409E+03  0.00000000000E+00 0. -1.
         25    2    1    2    0    0  0.58453633493E+02  0.22571386631E+01 -0.19825931132E+03  0.24161572629E+03  0.12509789255E+03 0.  0.
         23    2    1    2    0    0 -0.58453633493E+02 -0.22571386631E+01  0.57409063843E+02  0.12433529442E+03  0.93496218546E+02 0.  0.
          5    1    3    3  502    0  0.10866952112E+02  0.22467648530E+02 -0.18678631941E+03  0.18849267200E+03  0.41800000000E+01 0.  1.
         -5    1    3    3    0  502  0.47586681382E+02 -0.20210509867E+02 -0.11472991915E+02  0.53123054294E+02  0.41800000000E+01 0.  1.
        -11    1    4    4    0    0 -0.60857496078E+02 -0.29594021675E+02  0.67035631941E+02  0.95253435096E+02  0.00000000000E+00 0.  1.
         11    1    4    4    0    0  0.24038625845E+01  0.27336883012E+02 -0.96265680977E+01  0.29081859320E+02  0.00000000000E+00 0. -1.
</event>
<event>
 8    1  0.6945825E-009  0.2670858E+03  0.7561462E-02  0.1102959E+00
          1   -1    0    0  501    0  0.00000000000E+00  0.00000000000E+00  0.11855337703E+03  0.11855337703E+03  0.00000000000E+00 0. -1.
         -1   -1    0    0    0  501 -0.00000000000E+00 -0.00000000000E+00 -0.63380705775E+03  0.63380705775E+03  0.00000000000E+00 0.  1.
         25    2    1    2    0    0  0.84520852129E+02  0.22884963527E+03 -0.34847996152E+03  0.44339770175E+03  0.12508920148E+03 0.  0.
         23    2    1    2    0    0 -0.84520852129E+02 -0.22884963527E+03 -0.16677371920E+03  0.30896273303E+03  0.90158565746E+02 0.  0.
          5    1    3    3  502    0  0.36330265368E+02  0.22228270311E+03 -0.29027127781E+03  0.36742941554E+03  0.41800000000E+01 0. -1.
         -5    1    3    3    0  502  0.48190586762E+02  0.65669321673E+01 -0.58208683705E+02  0.75968286207E+02  0.41800000000E+01 0. -1.
        -11    1    4    4    0    0 -0.75953964809E+02 -0.77571589452E+02 -0.69776947737E+02  0.12905494448E+03  0.00000000000E+00 0.  1.
         11    1    4    4    0    0 -0.85668873199E+01 -0.15127804582E+03 -0.96996771460E+02  0.17990778855E+03  0.00000000000E+00 0. -1.
</event>
<event>
 8    1  0.6945825E-009  0.6115992E+02  0.7561462E-02  0.1393028E+00
         -2   -1    0    0    0  501 -0.00000000000E+00  0.00000000000E+00  0.28490286140E+02  0.28490286140E+02  0.00000000000E+00 0.  1.
          2   -1    0    0  501    0  0.00000000000E+00 -0.00000000000E+00 -0.44537684873E+03  0.44537684873E+03  0.00000000000E+00 0. -1.
         25    2    1    2    0    0 -0.24547796329E+01  0.10824299984E+02 -0.17797892504E+03  0.21782343477E+03  0.12508940628E+03 0.  0.
         23    2    1    2    0    0  0.24547796329E+01 -0.10824299984E+02 -0.23890763755E+03  0.25604370010E+03  0.91423879095E+02 0.  0.
          5    1    3    3  502    0 -0.14724037280E+02  0.76714941238E+01  0.15972044960E+02  0.23414263092E+02  0.41800000000E+01 0.  1.
         -5    1    3    3    0  502  0.12269257647E+02  0.31528058606E+01 -0.19395097000E+03  0.19440917168E+03  0.41800000000E+01 0.  1.
        -11    1    4    4    0    0 -0.38826333278E+02 -0.27245465345E+02 -0.13249169440E+03  0.14072614761E+03  0.00000000000E+00 0.  1.
         11    1    4    4    0    0  0.41281112910E+02  0.16421165360E+02 -0.10641594315E+03  0.11531755249E+03  0.00000000000E+00 0. -1.
</event>
<event>
 8    1  0.6945825E-009  0.1462419E+03  0.7561462E-02  0.1205169E+00
          1   -1    0    0  501    0  0.00000000000E+00  0.00000000000E+00  0.25872201015E+03  0.25872201015E+03  0.00000000000E+00 0. -1.
         -1   -1    0    0    0  501 -0.00000000000E+00 -0.00000000000E+00 -0.13708567722E+03  0.13708567722E+03  0.00000000000E+00 0.  1.
         25    2    1    2    0    0 -0.13842842504E+03 -0.16347226707E+02  0.13078051564E+03  0.22843173145E+03  0.12509137453E+03 0.  0.
         23    2    1    2    0    0  0.13842842504E+03  0.16347226707E+02 -0.91441827037E+01  0.16737595593E+03  0.92203220473E+02 0.  0.
          5    1    3    3  502    0 -0.50660029763E+02  0.61982006673E+01  0.12778977312E+03  0.13766827820E+03  0.41800000000E+01 0. -1.
         -5    1    3    3    0  502 -0.87768395277E+02 -0.22545427374E+02  0.29907425109E+01  0.90763453250E+02  0.41800000000E+01 0. -1.
        -11    1    4    4    0    0  0.90768616877E+02  0.37762892803E+02 -0.40626302936E+02  0.10637421855E+03  0.00000000000E+00 0.  1.
         11    1    4    4    0    0  0.47659808164E+02 -0.21415666096E+02  0.31482120232E+02  0.61001737376E+02  0.00000000000E+00 0. -1.
</event>
<event>
 8    1  0.6945825E-009  0.7949484E+02  0.7561462E-02  0.1330491E+00
         -2   -1    0    0    0  501 -0.00000000000E+00  0.00000000000E+00  0.54716048140E+02  0.54716048140E+02  0.00000000000E+00 0.  1.
          2   -1    0    0  501    0  0.00000000000E+00 -0.00000000000E+00 -0.23165949120E+03  0.23165949120E+03  0.00000000000E+00 0. -1.
         25    2    1    2    0    0 -0.24340025628E+02  0.57308588012E+01 -0.73118448389E+02  0.14703525091E+03  0.12509107852E+03 0.  0.
         23    2    1    2    0    0  0.24340025628E+02 -0.57308588012E+01 -0.10382499467E+03  0.13934028843E+03  0.89503110959E+02 0.  0.
          5    1    3    3  502    0 -0.69136660555E+02 -0.83152378848E+01 -0.71472074729E+02  0.99873674609E+02  0.41800000000E+01 0. -1.
         -5    1    3    3    0  502  0.44796634927E+02  0.14046096686E+02 -0.16463736597E+01  0.47161576300E+02  0.41800000000E+01 0. -1.
        -11    1    4    4    0    0  0.11245856430E+02 -0.19866176809E+02  0.92530499231E+01  0.24632360844E+02  0.00000000000E+00 0.  1.
         11    1    4    4    0    0  0.13094169198E+02  0.14135318008E+02 -0.11307804459E+03  0.11470792758E+03  0.00000000000E+00 0. -1.
</event>
<event>
 8    1  0.6945825E-009  0.1164105E+03  0.7561462E-02  0.1249139E+00
          1   -1    0    0  501    0  0.00000000000E+00  0.00000000000E+00  0.17577630577E+03  0.17577630577E+03  0.00000000000E+00 0. -1.
         -1   -1    0    0    0  501 -0.00000000000E+00 -0.00000000000E+00 -0.10313864651E+03  0.10313864651E+03  0.00000000000E+00 0.  1.
         25    2    1    2    0    0 -0.77948157392E+02 -0.13205698062E+02  0.54033874286E+02  0.15753500262E+03  0.12508921527E+03 0.  0.
         23    2    1    2    0    0  0.77948157392E+02  0.13205698062E+02  0.18603784973E+02  0.12137994966E+03  0.90203578980E+02 0.  0.
          5    1    3    3  502    0 -0.88996599872E+02  0.32534508707E+02  0.14534035880E+02  0.95956238174E+02  0.41800000000E+01 0. -1.
         -5    1    3    3    0  502  0.11048442479E+02 -0.45740206769E+02  0.39499838406E+02  0.61578764445E+02  0.41800000000E+01 0. -1.
        -11    1    4    4    0    0  0.17963555764E+02  0.23799596627E+02 -0.30860716330E+02  0.42912631563E+02  0.00000000000E+00 0.  1.
         11    1    4    4    0    0  0.59984601628E+02 -0.10593898565E+02  0.49464501303E+02  0.78467318092E+02  0.00000000000E+00 0. -1.
</event>
<event>
 8    1  0.6945825E-009  0.1820668E+03  0.7561462E-02  0.1165818E+00
          3   -1    0    0  501    0  0.00000000000E+00  0.00000000000E+00  0.25766057665E+02  0.25766057665E+02  0.00000000000E+00 0. -1.
         -3   -1    0    0    0  501 -0.00000000000E+00 -0.00000000000E+00 -0.15384185363E+04  0.15384185363E+04  0.00000000000E+00 0.  1.
         25    2    1    2    0    0  0.71960889292E+02 -0.13271151167E+03 -0.10678088348E+04  0.10856583351E+04  0.12509035869E+03 0.  0.
         23    2    1    2    0    0 -0.71960889292E+02  0.13271151167E+03 -0.44484364384E+03  0.47852625893E+03  0.91163578842E+02 0.  0.
          5    1    3    3  502    0  0.10106545300E+03 -0.11635648281E+03 -0.97112390116E+03  0.98328640827E+03  0.41800000000E+01 0. -1.
         -5    1    3    3    0  502 -0.29104563705E+02 -0.16355028857E+02 -0.96684933689E+02  0.10237192681E+03  0.41800000000E+01 0. -1.
        -11    1    4    4    0    0 -0.52642371986E+02  0.11907789828E+02 -0.13122598687E+03  0.14189177008E+03  0.00000000000E+00 0.  1.
         11    1    4    4    0    0 -0.19318517306E+02  0.12080372184E+03 -0.31361765696E+03  0.33663448885E+03  0.00000000000E+00 0. -1.
</event>
<event>
 8    1  0.6945825E-009  0.7650826E+02  0.7561462E-02  0.1339263E+00
         -2   -1    0    0    0  501 -0.00000000000E+00  0.00000000000E+00  0.31683474913E+03  0.31683474913E+03  0.00000000000E+00 0.  1.
          2   -1    0    0  501    0  0.00000000000E+00 -0.00000000000E+00 -0.38691540099E+02  0.38691540099E+02  0.00000000000E+00 0. -1.
         25    2    1    2    0    0 -0.16788264871E+02 -0.81927330445E+01  0.15452974598E+03  0.19969106913E+03  0.12509242178E+03 0.  0.
         23    2    1    2    0    0  0.16788264871E+02  0.81927330445E+01  0.12361346305E+03  0.15583522010E+03  0.93034191905E+02 0.  0.
          5    1    3    3  502    0 -0.25849038654E+02 -0.56614025419E+02  0.37830688931E+02  0.72951724438E+02  0.41800000000E+01 0.  1.
         -5    1    3    3    0  502  0.90607737837E+01  0.48421292375E+02  0.11669905705E+03  0.12673934469E+03  0.41800000000E+01 0.  1.
        -11    1    4    4    0    0  0.25543795453E+02 -0.43435288519E+01  0.13455864825E+03  0.13703058617E+03  0.00000000000E+00 0.  1.
         11    1    4    4    0    0 -0.87555305826E+01  0.12536261896E+02 -0.10945185195E+02  0.18804633925E+02  0.00000000000E+00 0. -1.
</event>
<event>
 8    1  0.6945825E-009  0.1044828E+03  0.7561462E-02  0.1271142E+00
         -2   -1    0    0    0  501 -0.00000000000E+00  0.00000000000E+00  0.28920952601E+02  0.28920952601E+02  0.00000000000E+00 0. -1.
          2   -1    0    0  501    0  0.00000000000E+00 -0.00000000000E+00 -0.40849349600E+03  0.40849349600E+03  0.00000000000E+00 0.  1.
         25    2    1    2    0    0  0.33453377481E+01 -0.96676134180E+01 -0.22368844647E+03  0.25649180267E+03  0.12508744828E+03 0.  0.
         23    2    1    2    0    0 -0.33453377481E+01  0.96676134180E+01 -0.15588409693E+03  0.18092264593E+03  0.91260605428E+02 0.  0.
          5    1    3    3  502    0 -0.28664966235E+02 -0.56161093149E+02 -0.15564372825E+03  0.16798271106E+03  0.41800000000E+01 0.  1.
         -5    1    3    3    0  502  0.32010303983E+02  0.46493479731E+02 -0.68044718225E+02  0.88509091606E+02  0.41800000000E+01 0.  1.
        -11    1    4    4    0    0  0.68264555931E+01  0.48526167996E+02 -0.10674069529E+03  0.11745197107E+03  0.00000000000E+00 0.  1.
         11    1    4    4    0    0 -0.10171793341E+02 -0.38858554578E+02 -0.49143401634E+02  0.63470674865E+02  0.00000000000E+00 0. -1.
</event>
<event>
 8    1  0.6945825E-009  0.1072423E+03  0.7561462E-02  0.1265764E+00
          4   -1    0    0  501    0  0.00000000000E+00  0.00000000000E+00  0.93778263270E+02  0.93778263270E+02  0.00000000000E+00 0. -1.
         -4   -1    0    0    0  501 -0.00000000000E+00 -0.00000000000E+00 -0.16611241526E+03  0.16611241526E+03  0.00000000000E+00 0.  1.
         25    2    1    2    0    0 -0.52986397246E+02  0.63392147224E+01 -0.72360675093E+02  0.15405120933E+03  0.12509182171E+03 0.  0.
         23    2    1    2    0    0  0.52986397246E+02 -0.63392147224E+01  0.26523100434E-01  0.10583946920E+03  0.91401578767E+02 0.  0.
          5    1    3    3  502    0  0.77010935021E+01  0.47761916634E+02  0.30826827060E+01  0.48656786313E+02  0.41800000000E+01 0. -1.
         -5    1    3    3    0  502 -0.60687490748E+02 -0.41422701911E+02 -0.75443357799E+02  0.10539442302E+03  0.41800000000E+01 0. -1.
        -11    1    4    4    0    0 -0.13050623971E+02 -0.20962847784E+02  0.23653925432E+02  0.34194560409E+02  0.00000000000E+00 0.  1.
         11    1    4    4    0    0  0.66037021217E+02  0.14623633062E+02 -0.23627402331E+02  0.71644908794E+02  0.00000000000E+00 0. -1.
</event>
<event>
 8    1  0.6945825E-009  0.9021690E+02  0.7561462E-02  0.1302327E+00
          2   -1    0    0  501    0  0.00000000000E+00  0.00000000000E+00  0.23830389424E+03  0.23830389424E+03  0.00000000000E+00 0. -1.
         -2   -1    0    0    0  501 -0.00000000000E+00 -0.00000000000E+00 -0.58158146526E+02  0.58158146526E+02  0.00000000000E+00 0.  1.
         25    2    1    2    0    0 -0.18414242313E+02  0.42563967225E+02  0.10298793095E+03  0.16853341018E+03  0.12508485439E+03 0.  0.
         23    2    1    2    0    0  0.18414242313E+02 -0.42563967225E+02  0.77157816756E+02  0.12792863058E+03  0.90893510279E+02 0.  0.
          5    1    3    3  502    0 -0.81507229204E+01  0.81872459887E+02  0.35623067523E+02  0.89755274563E+02  0.41800000000E+01 0. -1.
         -5    1    3    3    0  502 -0.10263519392E+02 -0.39308492662E+02  0.67364863431E+02  0.78778135614E+02  0.41800000000E+01 0. -1.
        -11    1    4    4    0    0 -0.95861510577E+01 -0.15769117048E+02  0.86182602270E+02  0.88136259726E+02  0.00000000000E+00 0. -1.
         11    1    4    4    0    0  0.28000393371E+02 -0.26794850177E+02 -0.90247855141E+01  0.39792370858E+02  0.00000000000E+00 0.  1.
</event>
<event>
 8    1  0.6945825E-009  0.9030133E+02  0.7561462E-02  0.1302124E+00
         -3   -1    0    0    0  501 -0.00000000000E+00  0.00000000000E+00  0.43675701910E+03  0.43675701910E+03  0.00000000000E+00 0.  1.
          3   -1    0    0  501    0  0.00000000000E+00 -0.00000000000E+00 -0.32676042119E+02  0.32676042119E+02  0.00000000000E+00 0. -1.
         25    2    1    2    0    0  0.28316721646E+02 -0.31870714928E+02  0.19726409596E+03  0.23743994406E+03  0.12508806611E+03 0.  0.
         23    2    1    2    0    0 -0.28316721646E+02  0.31870714928E+02  0.20681688102E+03  0.23199311716E+03  0.96072914707E+02 0.  0.
          5    1    3    3  502    0  0.28740845156E+02 -0.61215826916E+02  0.19642606344E+03  0.20778374442E+03  0.41800000000E+01 0.  1.
         -5    1    3    3    0  502 -0.42412351021E+00  0.29345111988E+02  0.83803251662E+00  0.29656199636E+02  0.41800000000E+01 0.  1.
        -11    1    4    4    0    0  0.23294372136E+02  0.18871258515E+02  0.15443107776E+03  0.15731404879E+03  0.00000000000E+00 0.  1.
         11    1    4    4    0    0 -0.51611093782E+02  0.12999456413E+02  0.52385803259E+02  0.74679068362E+02  0.00000000000E+00 0. -1.
</event>
<event>
 8    1  0.6945825E-009  0.8103138E+02  0.7561462E-02  0.1326150E+00
          1   -1    0    0  501    0  0.00000000000E+00  0.00000000000E+00  0.20976488671E+03  0.20976488671E+03  0.00000000000E+00 0. -1.
         -1   -1    0    0    0  501 -0.00000000000E+00 -0.00000000000E+00 -0.70193278883E+02  0.70193278883E+02  0.00000000000E+00 0.  1.
         25    2    1    2    0    0 -0.39651423847E+02  0.32943038193E+02  0.96193986041E+02  0.16600610221E+03  0.12508902366E+03 0.  0.
         23    2    1    2    0    0  0.39651423847E+02 -0.32943038193E+02  0.43377621790E+02  0.11395206339E+03  0.91901988557E+02 0.  0.
          5    1    3    3  502    0  0.74255456304E+01  0.38784264674E+02  0.10956821370E+03  0.11654193995E+03  0.41800000000E+01 0.  1.
         -5    1    3    3    0  502 -0.47076969477E+02 -0.58412264813E+01 -0.13374227659E+02  0.49464162254E+02  0.41800000000E+01 0.  1.
        -11    1    4    4    0    0  0.25267148448E-01 -0.35049539306E+02 -0.19116479048E+02  0.39923810129E+02  0.00000000000E+00 0.  1.
         11    1    4    4    0    0  0.39626156699E+02  0.21065011129E+01  0.62494100839E+02  0.74028253264E+02  0.00000000000E+00 0. -1.
</event>
<event>
 8    1  0.6945825E-009  0.1260025E+03  0.7561462E-02  0.1233511E+00
          1   -1    0    0  501    0  0.00000000000E+00  0.00000000000E+00  0.34623359577E+03  0.34623359577E+03  0.00000000000E+00 0.  1.
         -1   -1    0    0    0  501 -0.00000000000E+00 -0.00000000000E+00 -0.63643484718E+02  0.63643484718E+02  0.00000000000E+00 0. -1.
         25    2    1    2    0    0  0.65921506071E+02  0.75969477839E+02  0.14019952824E+03  0.21312078539E+03  0.12509018716E+03 0.  0.
         23    2    1    2    0    0 -0.65921506071E+02 -0.75969477839E+02  0.14239058282E+03  0.19675629510E+03  0.91219269128E+02 0.  0.
          5    1    3    3  502    0  0.64721367736E+02  0.31838799849E+02  0.15107473734E+03  0.16746227420E+03  0.41800000000E+01 0. -1.
         -5    1    3    3    0  502  0.12001383350E+01  0.44130677989E+02 -0.10875209098E+02  0.45658511197E+02  0.41800000000E+01 0. -1.
        -11    1    4    4    0    0  0.13974750525E+00 -0.68980629308E+02  0.65216469054E+02  0.94929102940E+02  0.00000000000E+00 0.  1.
         11    1    4    4    0    0 -0.66061253576E+02 -0.69888485305E+01  0.77174113761E+02  0.10182719216E+03  0.00000000000E+00 0. -1.
</event>
<event>
 8    1  0.6945825E-009  0.9939472E+02  0.7561462E-02  0.1281574E+00
         -1   -1    0    0    0  501 -0.00000000000E+00  0.00000000000E+00  0.22108510574E+02  0.22108510574E+02  0.00000000000E+00 0.  1.
          1   -1    0    0  501    0  0.00000000000E+00 -0.00000000000E+00 -0.23883768640E+04  0.23883768640E+04  0.00000000000E+00 0. -1.
         25    2    1    2    0    0 -0.71248323736E+02  0.15148920136E+02 -0.22308400725E+04  0.22355310148E+04  0.12508267478E+03 0.  0.
         23    2    1    2    0    0  0.71248323736E+02 -0.15148920136E+02 -0.13542828090E+03  0.17495435977E+03  0.83440969071E+02 0.  0.
          5    1    3    3  502    0  0.65847151063E+01  0.10583994684E+02 -0.15756764178E+04  0.15757312669E+04  0.41800000000E+01 0.  1.
         -5    1    3    3    0  502 -0.77833038842E+02  0.45649254520E+01 -0.65516365472E+03  0.65979974792E+03  0.41800000000E+01 0.  1.
        -11    1    4    4    0    0  0.45671500067E+01 -0.37086176662E+02 -0.28290052634E+02  0.46867584070E+02  0.00000000000E+00 0.  1.
         11    1    4    4    0    0  0.66681173729E+02  0.21937256526E+02 -0.10713822826E+03  0.12808677570E+03  0.00000000000E+00 0. -1.
</event>
<event>
 8    1  0.6945825E-009  0.1448034E+03  0.7561462E-02  0.1207008E+00
         -2   -1    0    0    0  501 -0.00000000000E+00  0.00000000000E+00  0.21022935923E+04  0.21022935923E+04  0.00000000000E+00 0.  1.
          2   -1    0    0  501    0  0.00000000000E+00 -0.00000000000E+00 -0.11763865823E+02  0.11763865823E+02  0.00000000000E+00 0. -1.
         25    2    1    2    0    0 -0.12201657430E+02  0.96438379688E+02  0.15141008522E+04  0.15223659472E+04  0.12508974708E+03 0.  0.
         23    2    1    2    0    0  0.12201657430E+02 -0.96438379688E+02  0.57642887425E+03  0.59169151096E+03  0.91538819969E+02 0.  0.
          5    1    3    3  502    0  0.49270078500E+02  0.10849091971E+02  0.62105420277E+03  0.62311398525E+03  0.41800000000E+01 0.  1.
         -5    1    3    3    0  502 -0.61471735930E+02  0.85589287716E+02  0.89304664947E+03  0.89925196192E+03  0.41800000000E+01 0.  1.
        -11    1    4    4    0    0 -0.38687732613E+02 -0.25949027782E+02  0.20103799222E+03  0.20636464575E+03  0.00000000000E+00 0.  1.
         11    1    4    4    0    0  0.50889390044E+02 -0.70489351906E+02  0.37539088202E+03  0.38532686522E+03  0.00000000000E+00 0. -1.
</event>
<event>
 8    1  0.6945825E-009  0.1501756E+03  0.7561462E-02  0.1200257E+00
         -3   -1    0    0    0  501 -0.00000000000E+00  0.00000000000E+00  0.62066656314E+03  0.62066656314E+03  0.00000000000E+00 0.  1.
          3   -1    0    0  501    0  0.00000000000E+00 -0.00000000000E+00 -0.52808818033E+02  0.52808818033E+02  0.00000000000E+00 0. -1.
         25    2    1    2    0    0  0.12671542128E+03 -0.36731462747E+02  0.41177841181E+03  0.45012930623E+03  0.12509569758E+03 0.  0.
         23    2    1    2    0    0 -0.12671542128E+03  0.36731462747E+02  0.15607933330E+03  0.22334607494E+03  0.90092799725E+02 0.  0.
          5    1    3    3  502    0  0.43051413108E+02  0.23161997126E+02  0.27268888872E+03  0.27706787022E+03  0.41800000000E+01 0. -1.
         -5    1    3    3    0  502  0.83664008174E+02 -0.59893459872E+02  0.13908952309E+03  0.17306143601E+03  0.41800000000E+01 0. -1.
        -11    1    4    4    0    0 -0.11726297325E+02 -0.17585299460E+02  0.61006648455E+02  0.64564386172E+02  0.00000000000E+00 0.  1.
         11    1    4    4    0    0 -0.11498912396E+03  0.54316762206E+02  0.95072684846E+02  0.15878168877E+03  0.00000000000E+00 0. -1.
</event>
<event>
 8    1  0.6945825E-009  0.1191445E+03  0.7561462E-02  0.1244515E+00
          1   -1    0    0  501    0  0.00000000000E+00  0.00000000000E+00  0.46808712216E+02  0.46808712216E+02  0.00000000000E+00 0. -1.
         -1   -1    0    0    0  501 -0.00000000000E+00 -0.00000000000E+00 -0.38250937719E+03  0.38250937719E+03  0.00000000000E+00 0.  1.
         25    2    1    2    0    0  0.37125957521E+02  0.68122715473E+02 -0.19759299915E+03  0.24639432937E+03  0.12509249037E+03 0.  0.
         23    2    1    2    0    0 -0.37125957521E+02 -0.68122715473E+02 -0.13810766582E+03  0.18292376003E+03  0.91478596085E+02 0.  0.
          5    1    3    3  502    0  0.46254182356E+02  0.93523812492E+02 -0.98289598881E+02  0.14340317478E+03  0.41800000000E+01 0. -1.
         -5    1    3    3    0  502 -0.91282248348E+01 -0.25401097019E+02 -0.99303400273E+02  0.10299115459E+03  0.41800000000E+01 0. -1.
        -11    1    4    4    0    0 -0.13550824317E+01  0.15522903153E+02  0.21669735506E+01  0.15731895788E+02  0.00000000000E+00 0. -1.
         11    1    4    4    0    0 -0.35770875089E+02 -0.83645618626E+02 -0.14027463937E+03  0.16719186424E+03  0.00000000000E+00 0.  1.
</event>
<event>
 8    1  0.6945825E-009  0.9623037E+02  0.7561462E-02  0.1288429E+00
         -1   -1    0    0    0  501 -0.00000000000E+00  0.00000000000E+00  0.19482778350E+02  0.19482778350E+02  0.00000000000E+00 0.  1.
          1   -1    0    0  501    0  0.00000000000E+00 -0.00000000000E+00 -0.71248314588E+03  0.71248314588E+03  0.00000000000E+00 0. -1.
         25    2    1    2    0    0 -0.33799182626E-01 -0.53939214966E+02 -0.34647607685E+03  0.37229254347E+03  0.12508647423E+03 0.  0.
         23    2    1    2    0    0  0.33799182626E-01  0.53939214966E+02 -0.34652429068E+03  0.35967338077E+03  0.79852468639E+02 0.  0.
          5    1    3    3  502    0 -0.35487883820E+02 -0.52522761843E+02 -0.74184377923E+02  0.97666907074E+02  0.41800000000E+01 0.  1.
         -5    1    3    3    0  502  0.35454084637E+02 -0.14164531239E+01 -0.27229169893E+03  0.27462563639E+03  0.41800000000E+01 0.  1.
        -11    1    4    4    0    0 -0.30294344076E+02  0.55076092147E+02 -0.18682845853E+03  0.19711924342E+03  0.00000000000E+00 0. -1.
         11    1    4    4    0    0  0.30328143258E+02 -0.11368771804E+01 -0.15969583214E+03  0.16255413734E+03  0.00000000000E+00 0.  1.
</event>
<event>
 8    1  0.6945825E-009  0.1673074E+03  0.7561462E-02  0.1180685E+00
         -2   -1    0    0    0  501 -0.00000000000E+00  0.00000000000E+00  0.22606924815E+03  0.22606924815E+03  0.00000000000E+00 0.  1.
          2   -1    0    0  501    0  0.00000000000E+00 -0.00000000000E+00 -0.14713550434E+03  0.14713550434E+03  0.00000000000E+00 0. -1.
         25    2    1    2    0    0 -0.91535863854E+02  0.11185137919E+03  0.30652009635E+02  0.19359148599E+03  0.12509425388E+03 0.  0.
         23    2    1    2    0    0  0.91535863854E+02 -0.11185137919E+03  0.48281734165E+02  0.17961326650E+03  0.95080251642E+02 0.  0.
          5    1    3    3  502    0 -0.91592297530E+02  0.14931134550E+02  0.39769689104E+01  0.92980516387E+02  0.41800000000E+01 0. -1.
         -5    1    3    3    0  502  0.56433676365E-01  0.96920244640E+02  0.26675040725E+02  0.10061096960E+03  0.41800000000E+01 0. -1.
        -11    1    4    4    0    0  0.53836950267E+01 -0.95588365591E+01 -0.24865510486E+02  0.27178100380E+02  0.00000000000E+00 0. -1.
         11    1    4    4    0    0  0.86152168827E+02 -0.10229254263E+03  0.73147244651E+02  0.15243516613E+03  0.00000000000E+00 0.  1.
</event>
<event>
 8    1  0.6945825E-009  0.2831139E+03  0.7561462E-02  0.1094000E+00
          2   -1    0    0  501    0  0.00000000000E+00  0.00000000000E+00  0.57736072255E+03  0.57736072255E+03  0.00000000000E+00 0. -1.
         -2   -1    0    0    0  501 -0.00000000000E+00 -0.00000000000E+00 -0.13935567605E+03  0.13935567605E+03  0.00000000000E+00 0.  1.
         25    2    1    2    0    0 -0.18729717153E+03  0.18231578858E+03  0.20745998181E+03  0.35637761250E+03  0.12508429722E+03 0.  0.
         23    2    1    2    0    0  0.18729717153E+03 -0.18231578858E+03  0.23054506468E+03  0.36033878610E+03  0.91508123610E+02 0.  0.
          5    1    3    3  502    0 -0.20510430569E+03  0.17527167410E+03  0.18883183235E+03  0.32933701472E+03  0.41800000000E+01 0. -1.
         -5    1    3    3    0  502  0.17807134165E+02  0.70441144814E+01  0.18628149465E+02  0.27040597783E+02  0.41800000000E+01 0. -1.
        -11    1    4    4    0    0  0.27910182438E+02  0.75416203509E+01  0.27580916197E+02  0.39956992623E+02  0.00000000000E+00 0.  1.
         11    1    4    4    0    0  0.15938698909E+03 -0.18985740894E+03  0.20296414849E+03  0.32038179347E+03  0.00000000000E+00 0. -1.
</event>
<event>
 8    1  0.6945825E-009  0.1484526E+03  0.7561462E-02  0.1202387E+00
         -1   -1    0    0    0  501 -0.00000000000E+00  0.00000000000E+00  0.15307413053E+03  0.15307413053E+03  0.00000000000E+00 0.  1.
          1   -1    0    0  501    0  0.00000000000E+00 -0.00000000000E+00 -0.19282681999E+03  0.19282681999E+03  0.00000000000E+00 0. -1.
         25    2    1    2    0    0 -0.11443049307E+03 -0.37307435270E+02 -0.76936914860E+02  0.18987427432E+03  0.12508704453E+03 0.  0.
         23    2    1    2    0    0  0.11443049307E+03  0.37307435270E+02  0.37184225398E+02  0.15602667620E+03  0.92062340820E+02 0.  0.
          5    1    3    3  502    0 -0.13342872486E+03 -0.38709515017E+02 -0.90731340211E+02  0.16598584177E+03  0.41800000000E+01 0.  1.
         -5    1    3    3    0  502  0.18998231795E+02  0.14020797471E+01  0.13794425351E+02  0.23888432550E+02  0.41800000000E+01 0.  1.
        -11    1    4    4    0    0  0.64093885446E+02 -0.14988770573E+02  0.49558624535E+02  0.82393850867E+02  0.00000000000E+00 0.  1.
         11    1    4    4    0    0  0.50336607621E+02  0.52296205844E+02 -0.12374399137E+02  0.73632825333E+02  0.00000000000E+00 0. -1.
</event>
<event>
 8    1  0.6945825E-009  0.1424376E+03  0.7561462E-02  0.1210086E+00
          2   -1    0    0  501    0  0.00000000000E+00  0.00000000000E+00  0.81720722165E+03  0.81720722165E+03  0.00000000000E+00 0. -1.
         -2   -1    0    0    0  501 -0.00000000000E+00 -0.00000000000E+00 -0.37480774399E+02  0.37480774399E+02  0.00000000000E+00 0.  1.
         25    2    1    2    0    0 -0.24277876838E+02 -0.10111419926E+03  0.63348393221E+03  0.65403599859E+03  0.12509076104E+03 0.  0.
         23    2    1    2    0    0  0.24277876838E+02  0.10111419926E+03  0.14624251504E+03  0.20065199745E+03  0.89782260378E+02 0.  0.
          5    1    3    3  502    0  0.16209431249E+02  0.17299087843E+02  0.23774194720E+03  0.23895754845E+03  0.41800000000E+01 0.  1.
         -5    1    3    3    0  502 -0.40487308087E+02 -0.11841328711E+03  0.39574198501E+03  0.41507845015E+03  0.41800000000E+01 0.  1.
        -11    1    4    4    0    0 -0.26077709246E+01  0.10784310277E+03  0.12835405356E+03  0.16766543576E+03  0.00000000000E+00 0.  1.
         11    1    4    4    0    0  0.26885647763E+02 -0.67289035024E+01  0.17888461483E+02  0.32986561691E+02  0.00000000000E+00 0. -1.
</event>
<event>
 8    1  0.6945825E-009  0.7125801E+02  0.7561462E-02  0.1355867E+00
          2   -1    0    0  501    0  0.00000000000E+00  0.00000000000E+00  0.29289071939E+03  0.29289071939E+03  0.00000000000E+00 0. -1.
         -2   -1    0    0    0  501 -0.00000000000E+00 -0.00000000000E+00 -0.41950303119E+02  0.41950303119E+02  0.00000000000E+00 0.  1.
         25    2    1    2    0    0 -0.16681155283E+02  0.20093490544E+02  0.13837955300E+03  0.18836562368E+03  0.12510275053E+03 0.  0.
         23    2    1    2    0    0  0.16681155283E+02 -0.20093490544E+02  0.11256086327E+03  0.14647539883E+03  0.90017138475E+02 0.  0.
          5    1    3    3  502    0 -0.66987923786E+00  0.31739261330E+02  0.15738229886E+03  0.16060663076E+03  0.41800000000E+01 0. -1.
         -5    1    3    3    0  502 -0.16011276045E+02 -0.11645770786E+02 -0.19002745859E+02  0.27758992921E+02  0.41800000000E+01 0. -1.
        -11    1    4    4    0    0 -0.32586752189E+02 -0.24538562305E+02  0.70917519062E+02  0.81812786092E+02  0.00000000000E+00 0. -1.
         11    1    4    4    0    0  0.49267907472E+02  0.44450717608E+01  0.41643344205E+02  0.64662612739E+02  0.00000000000E+00 0.  1.
</event>
<event>
 8    1  0.6945825E-009  0.7432606E+02  0.7561462E-02  0.1345971E+00
          2   -1    0    0  501    0  0.00000000000E+00  0.00000000000E+00  0.12330920340E+03  0.12330920340E+03  0.00000000000E+00 0. -1.
         -2   -1    0    0    0  501 -0.00000000000E+00 -0.00000000000E+00 -0.98008266902E+02  0.98008266902E+02  0.00000000000E+00 0.  1.
         25    2    1    2    0    0 -0.53445130147E+01 -0.10341375127E+02  0.27152603744E+02  0.12852916211E+03  0.12508786418E+03 0.  0.
         23    2    1    2    0    0  0.53445130147E+01  0.10341375127E+02 -0.18516672455E+01  0.92788308187E+02  0.92036588408E+02 0.  0.
          5    1    3    3  502    0 -0.24658378102E+02  0.48182080507E+02  0.37390031887E+02  0.65916882338E+02  0.41800000000E+01 0. -1.
         -5    1    3    3    0  502  0.19313865087E+02 -0.58523455634E+02 -0.10237428142E+02  0.62612279777E+02  0.41800000000E+01 0. -1.
        -11    1    4    4    0    0 -0.66300680792E+01  0.17452257993E+02 -0.44321683203E+02  0.48093146224E+02  0.00000000000E+00 0.  1.
         11    1    4    4    0    0  0.11974581094E+02 -0.71108828665E+01  0.42470015957E+02  0.44695161963E+02  0.00000000000E+00 0. -1.
</event>
<event>
 8    1  0.6945825E-009  0.1027109E+03  0.7561462E-02  0.1274696E+00
         -1   -1    0    0    0  501 -0.00000000000E+00  0.00000000000E+00  0.16081279414E+02  0.16081279414E+02  0.00000000000E+00 0.  1.
          1   -1    0    0  501    0  0.00000000000E+00 -0.00000000000E+00 -0.10585872876E+04  0.10585872876E+04  0.00000000000E+00 0. -1.
         25    2    1    2    0    0  0.59594925562E+02 -0.66368821948E+01 -0.73609069668E+03  0.74904752499E+03  0.12508827925E+03 0.  0.
         23    2    1    2    0    0 -0.59594925562E+02  0.66368821948E+01 -0.30641531146E+03  0.32562104197E+03  0.92428980955E+02 0.  0.
          5    1    3    3  502    0  0.77768528175E+02 -0.35131216268E+01 -0.23487475471E+03  0.24747506703E+03  0.41800000000E+01 0. -1.
         -5    1    3    3    0  502 -0.18173602613E+02 -0.31237605681E+01 -0.50121594196E+03  0.50157245797E+03  0.41800000000E+01 0. -1.
        -11    1    4    4    0    0 -0.77041491813E+02  0.27094602672E+02 -0.20411269046E+03  0.21984426161E+03  0.00000000000E+00 0.  1.
         11    1    4    4    0    0  0.17446566251E+02 -0.20457720477E+02 -0.10230262100E+03  0.10577678036E+03  0.00000000000E+00 0. -1.
</event>
<event>
 8    1  0.6945825E-009  0.1056858E+03  0.7561462E-02  0.1268774E+00
          2   -1    0    0  501    0  0.00000000000E+00  0.00000000000E+00  0.26723316978E+03  0.26723316978E+03  0.00000000000E+00 0. -1.
         -2   -1    0    0    0  501 -0.00000000000E+00 -0.00000000000E+00 -0.49703100955E+02  0.49703100955E+02  0.00000000000E+00 0.  1.
         25    2    1    2    0    0  0.17003756416E+02  0.32205612943E+02  0.97892015798E+02  0.16296241044E+03  0.12509025231E+03 0.  0.
         23    2    1    2    0    0 -0.17003756416E+02 -0.32205612943E+02  0.11963805303E+03  0.15397386029E+03  0.89824031775E+02 0.  0.
          5    1    3    3  502    0 -0.52498360315E+02  0.15571158078E+02  0.23544171189E+02  0.59752315408E+02  0.41800000000E+01 0.  1.
         -5    1    3    3    0  502  0.69502116731E+02  0.16634454865E+02  0.74347844609E+02  0.10321009503E+03  0.41800000000E+01 0.  1.
        -11    1    4    4    0    0 -0.91800351819E+01  0.25256887735E+02  0.77810521440E+01  0.27977280004E+02  0.00000000000E+00 0.  1.
         11    1    4    4    0    0 -0.78237212343E+01 -0.57462500678E+02  0.11185700088E+03  0.12599658029E+03  0.00000000000E+00 0. -1.
</event>
<event>
 8    1  0.6945825E-009  0.1280914E+03  0.7561462E-02  0.1230316E+00
          2   -1    0    0  501    0  0.00000000000E+00  0.00000000000E+00  0.93226553316E+03  0.93226553316E+03  0.00000000000E+00 0. -1.
         -2   -1    0    0    0  501 -0.00000000000E+00 -0.00000000000E+00 -0.26079134224E+02  0.26079134224E+02  0.00000000000E+00 0.  1.
         25    2    1    2    0    0 -0.26089949003E+02 -0.10922378945E+03  0.53216072463E+03  0.55808187652E+03  0.12509925037E+03 0.  0.
         23    2    1    2    0    0  0.26089949003E+02  0.10922378945E+03  0.37402567431E+03  0.40026279086E+03  0.87775708989E+02 0.  0.
          5    1    3    3  502    0  0.19594010201E+02 -0.24205199134E+02  0.35419779697E+03  0.35558876343E+03  0.41800000000E+01 0.  1.
         -5    1    3    3    0  502 -0.45683959203E+02 -0.85018590313E+02  0.17796292766E+03  0.20249311309E+03  0.41800000000E+01 0.  1.
        -11    1    4    4    0    0  0.36248200728E+02  0.26727284288E+02  0.57680619755E+02  0.73180145372E+02  0.00000000000E+00 0.  1.
         11    1    4    4    0    0 -0.10158251725E+02  0.82496505159E+02  0.31634505455E+03  0.32708264549E+03  0.00000000000E+00 0. -1.
</event>
<event>
 8    1  0.6945825E-009  0.1225642E+03  0.7561462E-02  0.1238926E+00
         -2   -1    0    0    0  501 -0.00000000000E+00  0.00000000000E+00  0.12243576474E+03  0.12243576474E+03  0.00000000000E+00 0.  1.
          2   -1    0    0  501    0  0.00000000000E+00 -0.00000000000E+00 -0.16714701223E+03  0.16714701223E+03  0.00000000000E+00 0. -1.
         25    2    1    2    0    0  0.44331631468E+02 -0.75172548046E+02  0.66108079717E+01  0.15266796444E+03  0.12509036356E+03 0.  0.
         23    2    1    2    0    0 -0.44331631468E+02  0.75172548046E+02 -0.51322055463E+02  0.13691481253E+03  0.92171074551E+02 0.  0.
          5    1    3    3  502    0 -0.15646516581E+02 -0.58942834165E+02 -0.41576091138E+02  0.73926415677E+02  0.41800000000E+01 0. -1.
         -5    1    3    3    0  502  0.59978148049E+02 -0.16229713880E+02  0.48186899110E+02  0.78741548764E+02  0.41800000000E+01 0. -1.
        -11    1    4    4    0    0 -0.30873086671E+02 -0.12292992595E+02 -0.32416448990E+02  0.46422961050E+02  0.00000000000E+00 0.  1.
         11    1    4    4    0    0 -0.13458544797E+02  0.87465540640E+02 -0.18905606472E+02  0.90491851476E+02  0.00000000000E+00 0. -1.
</event>
<event>
 8    1  0.6945825E-009  0.1144583E+03  0.7561462E-02  0.1252530E+00
         -3   -1    0    0    0  501 -0.00000000000E+00  0.00000000000E+00  0.45613917538E+02  0.45613917538E+02  0.00000000000E+00 0.  1.
          3   -1    0    0  501    0  0.00000000000E+00 -0.00000000000E+00 -0.59500687346E+03  0.59500687346E+03  0.00000000000E+00 0. -1.
         25    2    1    2    0    0 -0.86862187144E+01  0.62517260328E+02 -0.86851845204E+02  0.16484618725E+03  0.12508862539E+03 0.  0.
         23    2    1    2    0    0  0.86862187144E+01 -0.62517260328E+02 -0.46254111072E+03  0.47577460375E+03  0.91833197875E+02 0.  0.
          5    1    3    3  502    0 -0.46115116892E+02  0.69335175918E+02 -0.94280622667E+02  0.12585816952E+03  0.41800000000E+01 0. -1.
         -5    1    3    3    0  502  0.37428898178E+02 -0.68179155894E+01  0.74287774624E+01  0.38988017728E+02  0.41800000000E+01 0. -1.
        -11    1    4    4    0    0  0.39770570736E+02 -0.27075736255E+01 -0.11381456005E+03  0.12059346305E+03  0.00000000000E+00 0.  1.
         11    1    4    4    0    0 -0.31084352022E+02 -0.59809686703E+02 -0.34872655067E+03  0.35518114070E+03  0.00000000000E+00 0. -1.
</event>
<event>
 8    1  0.6945825E-009  0.1811861E+03  0.7561462E-02  0.1166660E+00
         -3   -1    0    0    0  501 -0.00000000000E+00  0.00000000000E+00  0.47242378708E+03  0.47242378708E+03  0.00000000000E+00 0.  1.
          3   -1    0    0  501    0  0.00000000000E+00 -0.00000000000E+00 -0.85016057541E+02  0.85016057541E+02  0.00000000000E+00 0. -1.
         25    2    1    2    0    0 -0.16170731388E+03  0.15842502973E+02  0.26333349728E+03  0.33375415963E+03  0.12508824094E+03 0.  0.
         23    2    1    2    0    0  0.16170731388E+03 -0.15842502973E+02  0.12407423226E+03  0.22368568499E+03  0.90777917427E+02 0.  0.
          5    1    3    3  502    0 -0.12958120006E+03  0.54542261174E+02  0.13134432080E+03  0.19244466392E+03  0.41800000000E+01 0. -1.
         -5    1    3    3    0  502 -0.32126113828E+02 -0.38699758201E+02  0.13198917647E+03  0.14130949572E+03  0.41800000000E+01 0. -1.
        -11    1    4    4    0    0  0.35217634273E+02 -0.26842168331E+02  0.75927521229E+02  0.87896372191E+02  0.00000000000E+00 0.  1.
         11    1    4    4    0    0  0.12648967961E+03  0.10999665357E+02  0.48146711034E+02  0.13578931280E+03  0.00000000000E+00 0. -1.
</event>
<event>
 8    1  0.6945825E-009  0.1008717E+03  0.7561462E-02  0.1278474E+00
         -2   -1    0    0    0  501 -0.00000000000E+00  0.00000000000E+00  0.20562515978E+02  0.20562515978E+02  0.00000000000E+00 0.  1.
          2   -1    0    0  501    0  0.00000000000E+00 -0.00000000000E+00 -0.61191177617E+03  0.61191177617E+03  0.00000000000E+00 0. -1.
         25    2    1    2    0    0 -0.38855833483E+01  0.29194464087E+02 -0.32450779561E+03  0.34903023599E+03  0.12509748891E+03 0.  0.
         23    2    1    2    0    0  0.38855833483E+01 -0.29194464087E+02 -0.26684146458E+03  0.28344405616E+03  0.90932674333E+02 0.  0.
          5    1    3    3  502    0 -0.52056906799E+02  0.24405355018E+02 -0.26967301873E+03  0.27576539364E+03  0.41800000000E+01 0.  1.
         -5    1    3    3    0  502  0.48171323451E+02  0.47891090686E+01 -0.54834776884E+02  0.73264842350E+02  0.41800000000E+01 0.  1.
        -11    1    4    4    0    0  0.46941678320E+02 -0.22055591947E+02 -0.13931499472E+03  0.14865610668E+03  0.00000000000E+00 0.  1.
         11    1    4    4    0    0 -0.43056094971E+02 -0.71388721398E+01 -0.12752646986E+03  0.13478794948E+03  0.00000000000E+00 0. -1.
</event>
<event>
 8    1  0.6945825E-009  0.1995288E+03  0.7561462E-02  0.1150137E+00
          2   -1    0    0  501    0  0.00000000000E+00  0.00000000000E+00  0.19287113491E+04  0.19287113491E+04  0.00000000000E+00 0.  1.
         -2   -1    0    0    0  501 -0.00000000000E+00 -0.00000000000E+00 -0.27518104635E+02  0.27518104635E+02  0.00000000000E+00 0. -1.
         25    2    1    2    0    0  0.28073003084E+02 -0.18583539454E+03  0.13075182802E+04  0.13268665946E+04  0.12509204398E+03 0.  0.
         23    2    1    2    0    0 -0.28073003084E+02  0.18583539454E+03  0.59367496432E+03  0.62936285918E+03  0.91240111175E+02 0.  0.
          5    1    3    3  502    0 -0.52836248022E+00  0.11160101492E+02  0.27893585005E+03  0.27919080908E+03  0.41800000000E+01 0.  1.
         -5    1    3    3    0  502  0.28601365564E+02 -0.19699549604E+03  0.10285824301E+04  0.10476757855E+04  0.41800000000E+01 0.  1.
        -11    1    4    4    0    0 -0.14637281307E+02  0.11476453228E+03  0.48648007804E+03  0.50004801190E+03  0.00000000000E+00 0.  1.
         11    1    4    4    0    0 -0.13435721777E+02  0.71070862266E+02  0.10719488628E+03  0.12931484728E+03  0.00000000000E+00 0. -1.
</event>
<event>
 8    1  0.6945825E-009  0.8810256E+02  0.7561462E-02  0.1307513E+00
         -1   -1    0    0    0  501 -0.00000000000E+00  0.00000000000E+00  0.40753230324E+02  0.40753230324E+02  0.00000000000E+00 0.  1.
          1   -1    0    0  501    0  0.00000000000E+00 -0.00000000000E+00 -0.67637515867E+03  0.67637515867E+03  0.00000000000E+00 0. -1.
         25    2    1    2    0    0 -0.12173895934E+02 -0.51872014629E+02 -0.57811142512E+03  0.59388466646E+03  0.12508903850E+03 0.  0.
         23    2    1    2    0    0  0.12173895934E+02  0.51872014629E+02 -0.57510503219E+02  0.12324372253E+03  0.95092836317E+02 0.  0.
          5    1    3    3  502    0 -0.35477020143E+02 -0.37114295797E+02 -0.81009545627E+02  0.96000566631E+02  0.41800000000E+01 0.  1.
         -5    1    3    3    0  502  0.23303124209E+02 -0.14757718832E+02 -0.49710187950E+03  0.49788409983E+03  0.41800000000E+01 0.  1.
        -11    1    4    4    0    0  0.19932769890E+02  0.72271129565E+02 -0.16464609916E+02  0.76756204074E+02  0.00000000000E+00 0.  1.
         11    1    4    4    0    0 -0.77588739565E+01 -0.20399114936E+02 -0.41045893303E+02  0.46487518457E+02  0.00000000000E+00 0. -1.
</event>
<event>
 8    1  0.6945825E-009  0.1043327E+03  0.7561462E-02  0.1271440E+00
          2   -1    0    0  501    0  0.00000000000E+00  0.00000000000E+00  0.27449124915E+03  0.27449124915E+03  0.00000000000E+00 0. -1.
         -2   -1    0    0    0  501 -0.00000000000E+00 -0.00000000000E+00 -0.82929926423E+02  0.82929926423E+02  0.00000000000E+00 0.  1.
         25    2    1    2    0    0 -0.37194221741E+02  0.19889772280E+02 -0.10100488006E+02  0.13241416880E+03  0.12510986800E+03 0.  0.
         23    2    1    2    0    0  0.37194221741E+02 -0.19889772280E+02  0.20166181073E+03  0.22500700677E+03  0.90452495902E+02 0.  0.
          5    1    3    3  502    0 -0.81979679660E+02  0.18549695078E+02 -0.19632449716E+02  0.86415649894E+02  0.41800000000E+01 0. -1.
         -5    1    3    3    0  502  0.44785457920E+02  0.13400772027E+01  0.95319617099E+01  0.45998518911E+02  0.41800000000E+01 0. -1.
        -11    1    4    4    0    0  0.50199871667E+02 -0.33759550612E+02  0.19606641192E+03  0.20518716396E+03  0.00000000000E+00 0. -1.
         11    1    4    4    0    0 -0.13005649926E+02  0.13869778332E+02  0.55953988164E+01  0.19819842807E+02  0.00000000000E+00 0.  1.
</event>
<event>
 8    1  0.6945825E-009  0.1133084E+03  0.7561462E-02  0.1254563E+00
          1   -1    0    0  501    0  0.00000000000E+00  0.00000000000E+00  0.19058950901E+03  0.19058950901E+03  0.00000000000E+00 0. -1.
         -1   -1    0    0    0  501 -0.00000000000E+00 -0.00000000000E+00 -0.12623451304E+03  0.12623451304E+03  0.00000000000E+00 0.  1.
         25    2    1    2    0    0  0.79132437284E+02 -0.46991217335E+02  0.10045602673E+03  0.18495798727E+03  0.12509167283E+03 0.  0.
         23    2    1    2    0    0 -0.79132437284E+02  0.46991217335E+02 -0.36101030760E+02  0.13186603478E+03  0.87265397328E+02 0.  0.
          5    1    3    3  502    0  0.27571497864E+01  0.15197977733E+02  0.83389498383E+02  0.84910901789E+02  0.41800000000E+01 0.  1.
         -5    1    3    3    0  502  0.76375287497E+02 -0.62189195068E+02  0.17066528347E+02  0.10004708548E+03  0.41800000000E+01 0.  1.
        -11    1    4    4    0    0 -0.85459216189E+02  0.24838038586E+02 -0.52738011616E+02  0.10344807230E+03  0.00000000000E+00 0.  1.
         11    1    4    4    0    0  0.63267789051E+01  0.22153178749E+02  0.16636980856E+02  0.28417962489E+02  0.00000000000E+00 0. -1.
</event>
<event>
 8    1  0.6945825E-009  0.1179616E+03  0.7561462E-02  0.1246498E+00
         -3   -1    0    0    0  501 -0.00000000000E+00  0.00000000000E+00  0.38395157412E+02  0.38395157412E+02  0.00000000000E+00 0.  1.
          3   -1    0    0  501    0  0.00000000000E+00 -0.00000000000E+00 -0.55652098908E+03  0.55652098908E+03  0.00000000000E+00 0. -1.
         25    2    1    2    0    0  0.84371095641E+02 -0.23858494738E+02 -0.19080525858E+03  0.24442523858E+03  0.12509732612E+03 0.  0.
         23    2    1    2    0    0 -0.84371095641E+02  0.23858494738E+02 -0.32732057309E+03  0.35049090791E+03  0.89539987769E+02 0.  0.
          5    1    3    3  502    0  0.94301332816E+01 -0.40974181894E+02 -0.15287019596E+03  0.15860195525E+03  0.41800000000E+01 0. -1.
         -5    1    3    3    0  502  0.74940962359E+02  0.17115687156E+02 -0.37935062618E+02  0.85823283333E+02  0.41800000000E+01 0. -1.
        -11    1    4    4    0    0 -0.79050777767E+02 -0.12419359671E+02 -0.15640447980E+03  0.17568616127E+03  0.00000000000E+00 0.  1.
         11    1    4    4    0    0 -0.53203178743E+01  0.36277854409E+02 -0.17091609329E+03  0.17480474665E+03  0.00000000000E+00 0. -1.
</event>
<event>
 8    1  0.6945825E-009  0.1247971E+03  0.7561462E-02  0.1235387E+00
          1   -1    0    0  501    0  0.00000000000E+00  0.00000000000E+00  0.45031967193E+02  0.45031967193E+02  0.00000000000E+00 0. -1.
         -1   -1    0    0    0  501 -0.00000000000E+00 -0.00000000000E+00 -0.44552884307E+03  0.44552884307E+03  0.00000000000E+00 0.  1.
         25    2    1    2    0    0  0.56728539674E+02 -0.62883155116E+02 -0.27012064804E+03  0.30948679156E+03  0.12507794067E+03 0.  0.
         23    2    1    2    0    0 -0.56728539674E+02  0.62883155116E+02 -0.13037622784E+03  0.18107401870E+03  0.92830065458E+02 0.  0.
          5    1    3    3  502    0  0.75546219161E+02 -0.20603450833E+02 -0.73595517884E+02  0.10754304286E+03  0.41800000000E+01 0. -1.
         -5    1    3    3    0  502 -0.18817679488E+02 -0.42279704283E+02 -0.19652513015E+03  0.20194374870E+03  0.41800000000E+01 0. -1.
        -11    1    4    4    0    0 -0.53570021546E+02  0.86032071802E+02 -0.96640115264E+02  0.14003776800E+03  0.00000000000E+00 0. -1.
         11    1    4    4    0    0 -0.31585181282E+01 -0.23148916686E+02 -0.33736112575E+02  0.41036250708E+02  0.00000000000E+00 0.  1.
</event>
<event>
 8    1  0.6945825E-009  0.1705539E+03  0.7561462E-02  0.1177271E+00
         -2   -1    0    0    0  501 -0.00000000000E+00  0.00000000000E+00  0.48953190997E+02  0.48953190997E+02  0.00000000000E+00 0.  1.
          2   -1    0    0  501    0  0.00000000000E+00 -0.00000000000E+00 -0.12983095325E+04  0.12983095325E+04  0.00000000000E+00 0. -1.
         25    2    1    2    0    0 -0.14334452312E+03  0.40417366916E+02 -0.10968981240E+04  0.11140081284E+04  0.12508956758E+03 0.  0.
         23    2    1    2    0    0  0.14334452312E+03 -0.40417366916E+02 -0.15245821751E+03  0.23325459508E+03  0.94778595575E+02 0.  0.
          5    1    3    3  502    0  0.61493984014E+01 -0.87328284446E+01 -0.84781542543E+01  0.14262850097E+02  0.41800000000E+01 0.  1.
         -5    1    3    3    0  502 -0.14949392152E+03  0.49150195361E+02 -0.10884199697E+04  0.10997452783E+04  0.41800000000E+01 0.  1.
        -11    1    4    4    0    0  0.15533148466E+03 -0.36061413099E+02 -0.12377165882E+03  0.20186064294E+03  0.00000000000E+00 0.  1.
         11    1    4    4    0    0 -0.11986961543E+02 -0.43559538173E+01 -0.28686558697E+02  0.31393952133E+02  0.00000000000E+00 0. -1.
</event>
<event>
 8    1  0.6945825E-009  0.1359020E+03  0.7561462E-02  0.1218952E+00
          1   -1    0    0  501    0  0.00000000000E+00  0.00000000000E+00  0.15509364644E+03  0.15509364644E+03  0.00000000000E+00 0. -1.
         -1   -1    0    0    0  501 -0.00000000000E+00 -0.00000000000E+00 -0.16895273640E+03  0.16895273640E+03  0.00000000000E+00 0.  1.
         25    2    1    2    0    0 -0.82791426205E+02 -0.73886365949E+02  0.40035048629E+02  0.17194400391E+03  0.12509324536E+03 0.  0.
         23    2    1    2    0    0  0.82791426205E+02  0.73886365949E+02 -0.53894138586E+02  0.15210237893E+03  0.88977189073E+02 0.  0.
          5    1    3    3  502    0  0.29412206134E+02 -0.16243342047E+02  0.30162393841E+02  0.45344971416E+02  0.41800000000E+01 0. -1.
         -5    1    3    3    0  502 -0.11220363234E+03 -0.57643023902E+02  0.98726547883E+01  0.12659903249E+03  0.41800000000E+01 0. -1.
        -11    1    4    4    0    0  0.15775221745E+02  0.21519462342E+02 -0.61175791103E+02  0.66741458612E+02  0.00000000000E+00 0.  1.
         11    1    4    4    0    0  0.67016204461E+02  0.52366903607E+02  0.72816525174E+01  0.85360920315E+02  0.00000000000E+00 0. -1.
</event>
<event>
 8    1  0.6945825E-009  0.7366618E+02  0.7561462E-02  0.1348052E+00
         -2   -1    0    0    0  501 -0.00000000000E+00  0.00000000000E+00  0.90800995750E+02  0.90800995750E+02  0.00000000000E+00 0.  1.
          2   -1    0    0  501    0  0.00000000000E+00 -0.00000000000E+00 -0.13838774276E+03  0.13838774276E+03  0.00000000000E+00 0. -1.
         25    2    1    2    0    0  0.60531621916E+01 -0.21547580010E+02 -0.56764993568E+01  0.12720193428E+03  0.12508865041E+03 0.  0.
         23    2    1    2    0    0 -0.60531621916E+01  0.21547580010E+02 -0.41910247653E+02  0.10198680423E+03  0.90243561557E+02 0.  0.
          5    1    3    3  502    0  0.10365278819E+02 -0.36931090404E+02 -0.59492220064E+02  0.70909386484E+02  0.41800000000E+01 0.  1.
         -5    1    3    3    0  502 -0.43121166273E+01  0.15383510395E+02  0.53815720707E+02  0.56292547793E+02  0.41800000000E+01 0.  1.
        -11    1    4    4    0    0  0.23063387561E+02 -0.27070419403E+02 -0.22508980029E+02  0.42087784860E+02  0.00000000000E+00 0.  1.
         11    1    4    4    0    0 -0.29116549753E+02  0.48617999413E+02 -0.19401267625E+02  0.59899019373E+02  0.00000000000E+00 0. -1.
</event>
<event>
 8    1  0.6945825E-009  0.1220978E+03  0.7561462E-02  0.1239676E+00
          3   -1    0    0  501    0  0.00000000000E+00  0.00000000000E+00  0.54836777162E+02  0.54836777162E+02  0.00000000000E+00 0. -1.
         -3   -1    0    0    0  501 -0.00000000000E+00 -0.00000000000E+00 -0.40185044978E+03  0.40185044978E+03  0.00000000000E+00 0.  1.
         25    2    1    2    0    0  0.40819155537E+02 -0.54035607802E+02 -0.72292302016E+02  0.15955866786E+03  0.12508693452E+03 0.  0.
         23    2    1    2    0    0 -0.40819155537E+02  0.54035607802E+02 -0.27472137060E+03  0.29712855908E+03  0.90705560953E+02 0.  0.
          5    1    3    3  502    0  0.75643907523E+02 -0.15774534376E+00 -0.25104414519E+02  0.79810586123E+02  0.41800000000E+01 0.  1.
         -5    1    3    3    0  502 -0.34824751986E+02 -0.53877862459E+02 -0.47187887497E+02  0.79748081735E+02  0.41800000000E+01 0.  1.
        -11    1    4    4    0    0 -0.59286397681E+02  0.15290993657E+02 -0.10035806094E+03  0.11756033274E+03  0.00000000000E+00 0. -1.
         11    1    4    4    0    0  0.18467242144E+02  0.38744614145E+02 -0.17436330966E+03  0.17956822634E+03  0.00000000000E+00 0.  1.
</event>
<event>
 8    1  0.6945825E-009  0.9655232E+02  0.7561462E-02  0.1287718E+00
          1   -1    0    0  501    0  0.00000000000E+00  0.00000000000E+00  0.18442362742E+03  0.18442362742E+03  0.00000000000E+00 0. -1.
         -1   -1    0    0    0  501 -0.00000000000E+00 -0.00000000000E+00 -0.74904027542E+02  0.74904027542E+02  0.00000000000E+00 0.  1.
         25    2    1    2    0    0  0.12159313831E+02 -0.13710689178E+02  0.21796313918E+02  0.12829249272E+03  0.12509217593E+03 0.  0.
         23    2    1    2    0    0 -0.12159313831E+02  0.13710689178E+02  0.87723285961E+02  0.13103516224E+03  0.95598153396E+02 0.  0.
          5    1    3    3  502    0  0.23537705122E+02  0.52975586918E+02  0.15911335571E+02  0.60258438176E+02  0.41800000000E+01 0. -1.
         -5    1    3    3    0  502 -0.11378391291E+02 -0.66686276096E+02  0.58849783468E+01  0.68034054547E+02  0.41800000000E+01 0. -1.
        -11    1    4    4    0    0 -0.35357011704E+02  0.23041093269E+02  0.25626543925E+01  0.42279752285E+02  0.00000000000E+00 0.  1.
         11    1    4    4    0    0  0.23197697874E+02 -0.93304040914E+01  0.85160631568E+02  0.88755409955E+02  0.00000000000E+00 0. -1.
</event>
<event>
 8    1  0.6945825E-009  0.1158392E+03  0.7561462E-02  0.1250123E+00
          1   -1    0    0  501    0  0.00000000000E+00  0.00000000000E+00  0.17967227334E+03  0.17967227334E+03  0.00000000000E+00 0. -1.
         -1   -1    0    0    0  501 -0.00000000000E+00 -0.00000000000E+00 -0.13769657307E+03  0.13769657307E+03  0.00000000000E+00 0.  1.
         25    2    1    2    0    0 -0.73737056949E+02  0.65574070498E+02 -0.37245603005E+02  0.16361899361E+03  0.12508728088E+03 0.  0.
         23    2    1    2    0    0  0.73737056949E+02 -0.65574070498E+02  0.79221303280E+02  0.15374985280E+03  0.87326342259E+02 0.  0.
          5    1    3    3  502    0 -0.63157206056E+02  0.64876253895E+02 -0.79063517630E+02  0.12027582141E+03  0.41800000000E+01 0.  1.
         -5    1    3    3    0  502 -0.10579850893E+02  0.69781660323E+00  0.41817914625E+02  0.43343172202E+02  0.41800000000E+01 0.  1.
        -11    1    4    4    0    0 -0.95532628677E+01  0.12330228632E+02  0.19634247444E+02  0.25075945491E+02  0.00000000000E+00 0. -1.
         11    1    4    4    0    0  0.83290319817E+02 -0.77904299131E+02  0.59587055836E+02  0.12867390731E+03  0.00000000000E+00 0.  1.
</event>
<event>
 8    1  0.6945825E-009  0.9678247E+02  0.7561462E-02  0.1287211E+00
          1   -1    0    0  501    0  0.00000000000E+00  0.00000000000E+00  0.44800178892E+02  0.44800178892E+02  0.00000000000E+00 0. -1.
         -1   -1    0    0    0  501 -0.00000000000E+00 -0.00000000000E+00 -0.33563779782E+03  0.33563779782E+03  0.00000000000E+00 0.  1.
         25    2    1    2    0    0  0.25169648766E+02  0.16049703484E+02 -0.88239935568E+02  0.15595956042E+03  0.12508394804E+03 0.  0.
         23    2    1    2    0    0 -0.25169648766E+02 -0.16049703484E+02 -0.20259768337E+03  0.22447841629E+03  0.91943645102E+02 0.  0.
          5    1    3    3  502    0  0.29598995512E+02 -0.46774558342E+02 -0.71760698792E+02  0.90725024853E+02  0.41800000000E+01 0.  1.
         -5    1    3    3    0  502 -0.44293467462E+01  0.62824261826E+02 -0.16479236775E+02  0.65234535572E+02  0.41800000000E+01 0.  1.
        -11    1    4    4    0    0 -0.62090157938E+01 -0.42189086482E+02 -0.39209625706E+02  0.57929833794E+02  0.00000000000E+00 0. -1.
         11    1    4    4    0    0 -0.18960632972E+02  0.26139382999E+02 -0.16338805766E+03  0.16654858250E+03  0.00000000000E+00 0.  1.
</event>
<event>
 8    1  0.6945825E-009  0.1200381E+03  0.7561462E-02  0.1243034E+00
          1   -1    0    0  501    0  0.00000000000E+00  0.00000000000E+00  0.55414415723E+03  0.55414415723E+03  0.00000000000E+00 0. -1.
         -1   -1    0    0    0  501 -0.00000000000E+00 -0.00000000000E+00 -0.41745850399E+02  0.41745850399E+02  0.00000000000E+00 0.  1.
         25    2    1    2    0    0  0.37969222242E+02  0.77828818076E+02  0.39925096575E+03  0.42725388759E+03  0.12508222914E+03 0.  0.
         23    2    1    2    0    0 -0.37969222242E+02 -0.77828818076E+02  0.11314734109E+03  0.16863612005E+03  0.90204398055E+02 0.  0.
          5    1    3    3  502    0  0.72022557398E+02  0.85970237280E+02  0.34271008250E+03  0.36061864000E+03  0.41800000000E+01 0.  1.
         -5    1    3    3    0  502 -0.34053335156E+02 -0.81414192040E+01  0.56540883249E+02  0.66635247583E+02  0.41800000000E+01 0.  1.
        -11    1    4    4    0    0  0.46372703001E+01 -0.21290389650E+02 -0.11982987679E+02  0.24867186431E+02  0.00000000000E+00 0.  1.
         11    1    4    4    0    0 -0.42606492542E+02 -0.56538428426E+02  0.12513032877E+03  0.14376893362E+03  0.00000000000E+00 0. -1.
</event>
<event>
 8    1  0.6945825E-009  0.9026737E+02  0.7561462E-02  0.1302206E+00
          2   -1    0    0  501    0  0.00000000000E+00  0.00000000000E+00  0.18625140630E+04  0.18625140630E+04  0.00000000000E+00 0. -1.
         -2   -1    0    0    0  501 -0.00000000000E+00 -0.00000000000E+00 -0.15987304177E+02  0.15987304177E+02  0.00000000000E+00 0.  1.
         25    2    1    2    0    0  0.22990195524E+02 -0.63334298551E+02  0.16149933563E+04  0.16212312879E+04  0.12509022902E+03 0.  0.
         23    2    1    2    0    0 -0.22990195524E+02  0.63334298551E+02  0.23153340250E+03  0.25727007928E+03  0.89668248338E+02 0.  0.
          5    1    3    3  502    0 -0.14665589663E+01 -0.28335406473E+02  0.14634859593E+04  0.14637669457E+04  0.41800000000E+01 0. -1.
         -5    1    3    3    0  502  0.24456754490E+02 -0.34998892078E+02  0.15150739704E+03  0.15746434214E+03  0.41800000000E+01 0. -1.
        -11    1    4    4    0    0 -0.58820006821E+01 -0.21562476294E+02  0.26310000634E+02  0.34521796728E+02  0.00000000000E+00 0.  1.
         11    1    4    4    0    0 -0.17108194841E+02  0.84896774845E+02  0.20522340186E+03  0.22274828256E+03  0.00000000000E+00 0. -1.
</event>
<event>
 8    1  0.6945825E-009  0.1830943E+03  0.7561462E-02  0.1164842E+00
          1   -1    0    0  501    0  0.00000000000E+00  0.00000000000E+00  0.15973531880E+03  0.15973531880E+03  0.00000000000E+00 0. -1.
         -1   -1    0    0    0  501 -0.00000000000E+00 -0.00000000000E+00 -0.24607664556E+03  0.24607664556E+03  0.00000000000E+00 0.  1.
         25    2    1    2    0    0 -0.11574349393E+02 -0.14748841325E+03 -0.12190754445E+03  0.22890034870E+03  0.12508845924E+03 0.  0.
         23    2    1    2    0    0  0.11574349393E+02  0.14748841325E+03  0.35566217682E+02  0.17691161566E+03  0.90255007100E+02 0.  0.
          5    1    3    3  502    0 -0.36883646290E+02 -0.16034515043E+03 -0.10920920893E+03  0.19752238947E+03  0.41800000000E+01 0.  1.
         -5    1    3    3    0  502  0.25309296898E+02  0.12856737174E+02 -0.12698335518E+02  0.31377959225E+02  0.41800000000E+01 0.  1.
        -11    1    4    4    0    0 -0.38849793034E+02  0.76954942025E+02  0.11798375367E+02  0.87009029314E+02  0.00000000000E+00 0.  1.
         11    1    4    4    0    0  0.50424142427E+02  0.70533471227E+02  0.23767842314E+02  0.89902586343E+02  0.00000000000E+00 0. -1.
</event>
<event>
 8    1  0.6945825E-009  0.1097021E+03  0.7561462E-02  0.1261123E+00
         -1   -1    0    0    0  501 -0.00000000000E+00  0.00000000000E+00  0.62140502078E+02  0.62140502078E+02  0.00000000000E+00 0.  1.
          1   -1    0    0  501    0  0.00000000000E+00 -0.00000000000E+00 -0.22016365658E+03  0.22016365658E+03  0.00000000000E+00 0. -1.
         25    2    1    2    0    0  0.67197936785E+01  0.43481197986E+02 -0.99265738534E+02  0.16564110207E+03  0.12509003815E+03 0.  0.
         23    2    1    2    0    0 -0.67197936785E+01 -0.43481197986E+02 -0.58757415971E+02  0.11666305659E+03  0.90675601106E+02 0.  0.
          5    1    3    3  502    0 -0.69024820342E+01 -0.41796565553E+02 -0.15625780855E+02  0.45345722815E+02  0.41800000000E+01 0. -1.
         -5    1    3    3    0  502  0.13622275713E+02  0.85277763539E+02 -0.83639957679E+02  0.12029537926E+03  0.41800000000E+01 0. -1.
        -11    1    4    4    0    0  0.27100524114E+02  0.84635025484E+01  0.37444459750E+01  0.28637216316E+02  0.00000000000E+00 0.  1.
         11    1    4    4    0    0 -0.33820317793E+02 -0.51944700535E+02 -0.62501861946E+02  0.88025840274E+02  0.00000000000E+00 0. -1.
</event>
<event>
 8    1  0.6945825E-009  0.2894615E+03  0.7561462E-02  0.1090631E+00
          2   -1    0    0  501    0  0.00000000000E+00  0.00000000000E+00  0.89526230960E+03  0.89526230960E+03  0.00000000000E+00 0. -1.
         -2   -1    0    0    0  501 -0.00000000000E+00 -0.00000000000E+00 -0.11766895357E+03  0.11766895357E+03  0.00000000000E+00 0.  1.
         25    2    1    2    0    0 -0.84802552955E+01  0.27277942143E+03  0.18086459454E+03  0.35048663816E+03  0.12509338305E+03 0.  0.
         23    2    1    2    0    0  0.84802552955E+01 -0.27277942143E+03  0.59672876148E+03  0.66244462502E+03  0.90923808473E+02 0.  0.
          5    1    3    3  502    0  0.29698302026E+02  0.83587685416E+01  0.31886097238E+02  0.44565162984E+02  0.41800000000E+01 0. -1.
         -5    1    3    3    0  502 -0.38178557321E+02  0.26442065289E+03  0.14897849731E+03  0.30592147518E+03  0.41800000000E+01 0. -1.
        -11    1    4    4    0    0  0.35897769062E+02 -0.19089585283E+03  0.47515384284E+03  0.51332353425E+03  0.00000000000E+00 0. -1.
         11    1    4    4    0    0 -0.27417513767E+02 -0.81883568604E+02  0.12157491865E+03  0.14912109077E+03  0.00000000000E+00 0.  1.
</event>
<event>
 8    1  0.6945825E-009  0.1626434E+03  0.7561462E-02  0.1185744E+00
          2   -1    0    0  501    0  0.00000000000E+00  0.00000000000E+00  0.48760610433E+03  0.48760610433E+03  0.00000000000E+00 0. -1.
         -2   -1    0    0    0  501 -0.00000000000E+00 -0.00000000000E+00 -0.78658779380E+02  0.78658779380E+02  0.00000000000E+00 0.  1.
         25    2    1    2    0    0  0.13368932960E+03  0.63112149243E+02  0.11381189581E+03  0.22462472886E+03  0.12508853248E+03 0.  0.
         23    2    1    2    0    0 -0.13368932960E+03 -0.63112149243E+02  0.29513542914E+03  0.34164015485E+03  0.88074364264E+02 0.  0.
          5    1    3    3  502    0  0.54623362259E+02  0.77091232557E+02  0.10866865860E+03  0.14405943081E+03  0.41800000000E+01 0. -1.
         -5    1    3    3    0  502  0.79065967340E+02 -0.13979083314E+02  0.51432372066E+01  0.80565298055E+02  0.41800000000E+01 0. -1.
        -11    1    4    4    0    0 -0.47855423270E+02 -0.85756691729E+01  0.28699984296E+02  0.56456821880E+02  0.00000000000E+00 0. -1.
         11    1    4    4    0    0 -0.85833906328E+02 -0.54536480070E+02  0.26643544484E+03  0.28518333297E+03  0.00000000000E+00 0.  1.
</event>
<event>
 8    1  0.6945825E-009  0.1106903E+03  0.7561462E-02  0.1259297E+00
         -1   -1    0    0    0  501 -0.00000000000E+00  0.00000000000E+00  0.26414321405E+03  0.26414321405E+03  0.00000000000E+00 0.  1.
          1   -1    0    0  501    0  0.00000000000E+00 -0.00000000000E+00 -0.64313024594E+02  0.64313024594E+02  0.00000000000E+00 0. -1.
         25    2    1    2    0    0 -0.63095927694E+02 -0.27358788470E+01  0.15187897802E+03  0.20664704527E+03  0.12508875341E+03 0.  0.
         23    2    1    2    0    0  0.63095927694E+02  0.27358788470E+01  0.47951211432E+02  0.12180919337E+03  0.92463937768E+02 0.  0.
          5    1    3    3  502    0 -0.13901700442E+01  0.39879126048E+02  0.34159852144E+01  0.40266842713E+02  0.41800000000E+01 0. -1.
         -5    1    3    3    0  502 -0.61705757650E+02 -0.42615004895E+02  0.14846299281E+03  0.16638020256E+03  0.41800000000E+01 0. -1.
        -11    1    4    4    0    0  0.89172822951E+01 -0.37576858439E+02  0.36833788741E+02  0.53369150327E+02  0.00000000000E+00 0.  1.
         11    1    4    4    0    0  0.54178645399E+02  0.40312737285E+02  0.11117422691E+02  0.68440043045E+02  0.00000000000E+00 0. -1.
</event>
<event>
 8    1  0.6945825E-009  0.1066834E+03  0.7561462E-02  0.1266838E+00
          2   -1    0    0  501    0  0.00000000000E+00  0.00000000000E+00  0.12294140533E+03  0.12294140533E+03  0.00000000000E+00 0.  1.
         -2   -1    0    0    0  501 -0.00000000000E+00 -0.00000000000E+00 -0.16019902786E+03  0.16019902786E+03  0.00000000000E+00 0. -1.
         25    2    1    2    0    0 -0.17931981524E+02 -0.36475233739E+02 -0.98627833996E+02  0.16440009018E+03  0.12509173184E+03 0.  0.
         23    2    1    2    0    0  0.17931981524E+02  0.36475233739E+02  0.61370211467E+02  0.11874034301E+03  0.93171710107E+02 0.  0.
          5    1    3    3  502    0  0.30830792881E+02  0.32362571586E+02 -0.20529114002E+02  0.49363860779E+02  0.41800000000E+01 0.  1.
         -5    1    3    3    0  502 -0.48762774405E+02 -0.68837805324E+02 -0.78098719994E+02  0.11503622940E+03  0.41800000000E+01 0.  1.
        -11    1    4    4    0    0  0.43455109937E+02  0.38966539171E+02  0.70493967599E+02  0.91521239188E+02  0.00000000000E+00 0.  1.
         11    1    4    4    0    0 -0.25523128414E+02 -0.24913054323E+01 -0.91237561320E+01  0.27219103819E+02  0.00000000000E+00 0. -1.
</event>
<event>
 8    1  0.6945825E-009  0.1548852E+03  0.7561462E-02  0.1194595E+00
          1   -1    0    0  501    0  0.00000000000E+00  0.00000000000E+00  0.16983898034E+04  0.16983898034E+04  0.00000000000E+00 0. -1.
         -1   -1    0    0    0  501 -0.00000000000E+00 -0.00000000000E+00 -0.22317592976E+02  0.22317592976E+02  0.00000000000E+00 0.  1.
         25    2    1    2    0    0 -0.20449054941E+02  0.11169033620E+03  0.13755275576E+04  0.13858632205E+04  0.12509160297E+03 0.  0.
         23    2    1    2    0    0  0.20449054941E+02 -0.11169033620E+03  0.30054465284E+03  0.33484417591E+03  0.94343196567E+02 0.  0.
          5    1    3    3  502    0 -0.23150250079E+00 -0.26697652454E+02  0.15456886140E+03  0.15691342695E+03  0.41800000000E+01 0. -1.
         -5    1    3    3    0  502 -0.20217552440E+02  0.13838798865E+03  0.12209586962E+04  0.12289497935E+04  0.41800000000E+01 0. -1.
        -11    1    4    4    0    0  0.52916899284E+02 -0.87812664592E+02  0.17315289143E+03  0.20122918800E+03  0.00000000000E+00 0.  1.
         11    1    4    4    0    0 -0.32467844343E+02 -0.23877671607E+02  0.12739176141E+03  0.13361498791E+03  0.00000000000E+00 0. -1.
</event>
<event>
 8    1  0.6945825E-009  0.1207399E+03  0.7561462E-02  0.1241881E+00
          2   -1    0    0  501    0  0.00000000000E+00  0.00000000000E+00  0.30229046877E+03  0.30229046877E+03  0.00000000000E+00 0. -1.
         -2   -1    0    0    0  501 -0.00000000000E+00 -0.00000000000E+00 -0.70537599920E+02  0.70537599920E+02  0.00000000000E+00 0.  1.
         25    2    1    2    0    0  0.15731036812E+02 -0.83206691938E+02  0.67907136233E+02  0.16561185791E+03  0.12508033109E+03 0.  0.
         23    2    1    2    0    0 -0.15731036812E+02  0.83206691938E+02  0.16384573261E+03  0.20721621078E+03  0.94458005546E+02 0.  0.
          5    1    3    3  502    0 -0.92070634594E+01  0.14089106440E+02 -0.23860800405E+02  0.29497171624E+02  0.41800000000E+01 0. -1.
         -5    1    3    3    0  502  0.24938100271E+02 -0.97295798379E+02  0.91767936638E+02  0.13611468628E+03  0.41800000000E+01 0. -1.
        -11    1    4    4    0    0  0.37327989195E+02  0.43613202322E+02  0.99629032004E+02  0.11498449553E+03  0.00000000000E+00 0. -1.
         11    1    4    4    0    0 -0.53059026007E+02  0.39593489617E+02  0.64216700609E+02  0.92231715250E+02  0.00000000000E+00 0.  1.
</event>
<event>
 8    1  0.6945825E-009  0.2303405E+03  0.7561462E-02  0.1126400E+00
         -2   -1    0    0    0  501 -0.00000000000E+00  0.00000000000E+00  0.64164683117E+02  0.64164683117E+02  0.00000000000E+00 0.  1.
          2   -1    0    0  501    0  0.00000000000E+00 -0.00000000000E+00 -0.11376996721E+04  0.11376996721E+04  0.00000000000E+00 0. -1.
         25    2    1    2    0    0 -0.97673353623E+01  0.20637561028E+03 -0.24592655434E+03  0.34469436516E+03  0.12509213357E+03 0.  0.
         23    2    1    2    0    0  0.97673353623E+01 -0.20637561028E+03 -0.82760843467E+03  0.85716999009E+03  0.84370477146E+02 0.  0.
          5    1    3    3  502    0 -0.62437328529E+02  0.15747807836E+03 -0.17660713054E+03  0.24475562530E+03  0.41800000000E+01 0. -1.
         -5    1    3    3    0  502  0.52669993167E+02  0.48897531926E+02 -0.69319423802E+02  0.99938739860E+02  0.41800000000E+01 0. -1.
        -11    1    4    4    0    0 -0.29820660902E+02 -0.52798376737E+02 -0.16337846310E+03  0.17426836376E+03  0.00000000000E+00 0.  1.
         11    1    4    4    0    0  0.39587996264E+02 -0.15357723355E+03 -0.66422997157E+03  0.68290162633E+03  0.00000000000E+00 0. -1.
</event>
<event>
 8    1  0.6945825E-009  0.1061003E+03  0.7561462E-02  0.1267967E+00
         -1   -1    0    0    0  501 -0.00000000000E+00  0.00000000000E+00  0.45961214860E+02  0.45961214860E+02  0.00000000000E+00 0.  1.
          1   -1    0    0  501    0  0.00000000000E+00 -0.00000000000E+00 -0.26660092135E+03  0.26660092135E+03  0.00000000000E+00 0. -1.
         25    2    1    2    0    0  0.24146323221E+02 -0.47190909059E+01 -0.12849487055E+03  0.18100846344E+03  0.12509123604E+03 0.  0.
         23    2    1    2    0    0 -0.24146323221E+02  0.47190909059E+01 -0.92144835938E+02  0.13155367277E+03  0.90611165342E+02 0.  0.
          5    1    3    3  502    0 -0.38847489911E+02 -0.35261618775E+02 -0.79934056776E+02  0.95704937509E+02  0.41800000000E+01 0. -1.
         -5    1    3    3    0  502  0.62993813132E+02  0.30542527869E+02 -0.48560813772E+02  0.85303525928E+02  0.41800000000E+01 0. -1.
        -11    1    4    4    0    0 -0.11752527566E+02  0.45407433433E+02 -0.28117437772E+02  0.54685896007E+02  0.00000000000E+00 0.  1.
         11    1    4    4    0    0 -0.12393795655E+02 -0.40688342527E+02 -0.64027398166E+02  0.76867776762E+02  0.00000000000E+00 0. -1.
</event>
<event>
 8    1  0.6945825E-009  0.1438470E+03  0.7561462E-02  0.1208244E+00
          2   -1    0    0  501    0  0.00000000000E+00  0.00000000000E+00  0.18829065693E+03  0.18829065693E+03  0.00000000000E+00 0. -1.
         -2   -1    0    0    0  501 -0.00000000000E+00 -0.00000000000E+00 -0.12171393086E+03  0.12171393086E+03  0.00000000000E+00 0.  1.
         25    2    1    2    0    0 -0.56546407478E+02  0.85213226256E+02  0.56038585311E+02  0.17101545305E+03  0.12508865660E+03 0.  0.
         23    2    1    2    0    0  0.56546407478E+02 -0.85213226256E+02  0.10538140754E+02  0.13898913474E+03  0.93531476190E+02 0.  0.
          5    1    3    3  502    0  0.28680166217E+02  0.68578068087E+02  0.29955051702E+02  0.80251360607E+02  0.41800000000E+01 0.  1.
         -5    1    3    3    0  502 -0.85226573695E+02  0.16635158169E+02  0.26083533609E+02  0.90764092441E+02  0.41800000000E+01 0.  1.
        -11    1    4    4    0    0  0.34943477671E+02  0.33909794392E+01  0.29479652306E+02  0.45843159505E+02  0.00000000000E+00 0. -1.
         11    1    4    4    0    0  0.21602929807E+02 -0.88604205695E+02 -0.18941511552E+02  0.93145975238E+02  0.00000000000E+00 0.  1.
</event>
<event>
 8    1  0.6945825E-009  0.1151188E+03  0.7561462E-02  0.1251374E+00
          1   -1    0    0  501    0  0.00000000000E+00  0.00000000000E+00  0.35163873485E+03  0.35163873485E+03  0.00000000000E+00 0. -1.
         -1   -1    0    0    0  501 -0.00000000000E+00 -0.00000000000E+00 -0.41775929840E+02  0.41775929840E+02  0.00000000000E+00 0.  1.
         25    2    1    2    0    0 -0.34190128880E+02  0.16012516645E+02  0.11624372978E+03  0.17489126489E+03  0.12509590009E+03 0.  0.
         23    2    1    2    0    0  0.34190128880E+02 -0.16012516645E+02  0.19361907523E+03  0.21852339980E+03  0.94014702915E+02 0.  0.
          5    1    3    3  502    0 -0.68187495362E+02  0.46980193401E+02  0.87280879419E+02  0.12038312759E+03  0.41800000000E+01 0. -1.
         -5    1    3    3    0  502  0.33997366481E+02 -0.30967676756E+02  0.28962850364E+02  0.54508137306E+02  0.41800000000E+01 0. -1.
        -11    1    4    4    0    0  0.50162103977E+02  0.25787820729E+02  0.10180042733E+03  0.11638116419E+03  0.00000000000E+00 0.  1.
         11    1    4    4    0    0 -0.15971975096E+02 -0.41800337374E+02  0.91818647899E+02  0.10214223561E+03  0.00000000000E+00 0. -1.
</event>
<event>
 8    1  0.6945825E-009  0.1759642E+03  0.7561462E-02  0.1171767E+00
          1   -1    0    0  501    0  0.00000000000E+00  0.00000000000E+00  0.11598268516E+03  0.11598268516E+03  0.00000000000E+00 0. -1.
         -1   -1    0    0    0  501 -0.00000000000E+00 -0.00000000000E+00 -0.27794581935E+03  0.27794581935E+03  0.00000000000E+00 0.  1.
         25    2    1    2    0    0 -0.64242334526E+02 -0.12791670565E+03 -0.55134505023E+02  0.19793217107E+03  0.12509024570E+03 0.  0.
         23    2    1    2    0    0  0.64242334526E+02  0.12791670565E+03 -0.10682862917E+03  0.19599633345E+03  0.80699724804E+02 0.  0.
          5    1    3    3  502    0  0.12518254803E+02  0.19172524449E+02 -0.77016085868E+00  0.23288579708E+02  0.41800000000E+01 0.  1.
         -5    1    3    3    0  502 -0.76760589329E+02 -0.14708923010E+03 -0.54364344165E+02  0.17464359136E+03  0.41800000000E+01 0.  1.
        -11    1    4    4    0    0  0.72005167554E+02  0.58327472419E+02 -0.74369934225E+02  0.11881803445E+03  0.00000000000E+00 0.  1.
         11    1    4    4    0    0 -0.77628330284E+01  0.69589233235E+02 -0.32458694944E+02  0.77178298998E+02  0.00000000000E+00 0. -1.
</event>
<event>
 8    1  0.6945825E-009  0.1043420E+03  0.7561462E-02  0.1271421E+00
         -1   -1    0    0    0  501 -0.00000000000E+00  0.00000000000E+00  0.12175948943E+02  0.12175948943E+02  0.00000000000E+00 0.  1.
          1   -1    0    0  501    0  0.00000000000E+00 -0.00000000000E+00 -0.96818575656E+03  0.96818575656E+03  0.00000000000E+00 0. -1.
         25    2    1    2    0    0 -0.24131046107E+02  0.88431503825E+01 -0.48099996493E+03  0.49766231485E+03  0.12508518961E+03 0.  0.
         23    2    1    2    0    0  0.24131046107E+02 -0.88431503825E+01 -0.47500984269E+03  0.48269939066E+03  0.81876995532E+02 0.  0.
          5    1    3    3  502    0  0.25227533288E+02  0.51526181052E+02 -0.15887441533E+03  0.16896723948E+03  0.41800000000E+01 0.  1.
         -5    1    3    3    0  502 -0.49358579395E+02 -0.42683030670E+02 -0.32212554960E+03  0.32869507537E+03  0.41800000000E+01 0.  1.
        -11    1    4    4    0    0  0.51639470341E+02 -0.20938891841E+02 -0.30129025408E+03  0.30639988462E+03  0.00000000000E+00 0.  1.
         11    1    4    4    0    0 -0.27508424233E+02  0.12095741458E+02 -0.17371958861E+03  0.17629950604E+03  0.00000000000E+00 0. -1.
</event>
<event>
 8    1  0.6945825E-009  0.7095494E+02  0.7561462E-02  0.1356876E+00
          1   -1    0    0  501    0  0.00000000000E+00  0.00000000000E+00  0.54549150945E+02  0.54549150945E+02  0.00000000000E+00 0. -1.
         -1   -1    0    0    0  501 -0.00000000000E+00 -0.00000000000E+00 -0.31900187542E+03  0.31900187542E+03  0.00000000000E+00 0.  1.
         25    2    1    2    0    0 -0.56525707183E+01  0.13631462679E+02 -0.25269737950E+03  0.28234912249E+03  0.12508914036E+03 0.  0.
         23    2    1    2    0    0  0.56525707183E+01 -0.13631462679E+02 -0.11755344980E+02  0.91201903876E+02  0.89229091694E+02 0.  0.
          5    1    3    3  502    0  0.11472366919E+02 -0.26505026908E+02 -0.35763450680E+01  0.29400583297E+02  0.41800000000E+01 0.  1.
         -5    1    3    3    0  502 -0.17124937637E+02  0.40136489587E+02 -0.24912103443E+03  0.25294853920E+03  0.41800000000E+01 0.  1.
        -11    1    4    4    0    0  0.34189388384E+02 -0.20058526661E+02  0.22957799922E+02  0.45807415853E+02  0.00000000000E+00 0. -1.
         11    1    4    4    0    0 -0.28536817666E+02  0.64270639817E+01 -0.34713144902E+02  0.45394488023E+02  0.00000000000E+00 0.  1.
</event>
<event>
 8    1  0.6945825E-009  0.1076019E+03  0.7561462E-02  0.1265076E+00
         -1   -1    0    0    0  501 -0.00000000000E+00  0.00000000000E+00  0.80366878588E+03  0.80366878588E+03  0.00000000000E+00 0.  1.
          1   -1    0    0  501    0  0.00000000000E+00 -0.00000000000E+00 -0.24466616270E+02  0.24466616270E+02  0.00000000000E+00 0. -1.
         25    2    1    2    0    0  0.86446669223E+02 -0.19568809179E+02  0.42695213463E+03  0.45364355851E+03  0.12509351701E+03 0.  0.
         23    2    1    2    0    0 -0.86446669223E+02  0.19568809179E+02  0.35225003497E+03  0.37449184364E+03  0.91148718581E+02 0.  0.
          5    1    3    3  502    0  0.27523759794E+02 -0.16714213470E+02  0.12186596799E+02  0.34682961619E+02  0.41800000000E+01 0.  1.
         -5    1    3    3    0  502  0.58922909429E+02 -0.28545957091E+01  0.41476553783E+03  0.41896059689E+03  0.41800000000E+01 0.  1.
        -11    1    4    4    0    0 -0.49638614177E+02 -0.32862508273E+02  0.12614038007E+03  0.13948237147E+03  0.00000000000E+00 0. -1.
         11    1    4    4    0    0 -0.36808055046E+02  0.52431317452E+02  0.22610965491E+03  0.23500947217E+03  0.00000000000E+00 0.  1.
</event>
<event>
 8    1  0.6945825E-009  0.1374445E+03  0.7561462E-02  0.1216809E+00
          2   -1    0    0  501    0  0.00000000000E+00  0.00000000000E+00  0.45859050511E+03  0.45859050511E+03  0.00000000000E+00 0.  1.
         -2   -1    0    0    0  501 -0.00000000000E+00 -0.00000000000E+00 -0.66821852889E+02  0.66821852889E+02  0.00000000000E+00 0. -1.
         25    2    1    2    0    0 -0.11888061592E+03 -0.14047382503E+02  0.30998493937E+03  0.35506104357E+03  0.12509097582E+03 0.  0.
         23    2    1    2    0    0  0.11888061592E+03  0.14047382503E+02  0.81783712851E+02  0.17035131442E+03  0.89448671554E+02 0.  0.
          5    1    3    3  502    0 -0.10431153757E+03 -0.40347022844E+02  0.30423260668E+03  0.32416620813E+03  0.41800000000E+01 0. -1.
         -5    1    3    3    0  502 -0.14569078342E+02  0.26299640341E+02  0.57523326857E+01  0.30894835444E+02  0.41800000000E+01 0. -1.
        -11    1    4    4    0    0  0.10660345045E+03  0.31604734691E+02  0.94078576427E+02  0.14565003757E+03  0.00000000000E+00 0.  1.
         11    1    4    4    0    0  0.12277165471E+02 -0.17557352188E+02 -0.12294863576E+02  0.24701276854E+02  0.00000000000E+00 0. -1.
</event>
<event>
 8    1  0.6945825E-009  0.1282422E+03  0.7561462E-02  0.1230088E+00
         -3   -1    0    0    0  501 -0.00000000000E+00  0.00000000000E+00  0.22935639444E+03  0.22935639444E+03  0.00000000000E+00 0.  1.
          3   -1    0    0  501    0  0.00000000000E+00 -0.00000000000E+00 -0.90031690894E+02  0.90031690894E+02  0.00000000000E+00 0. -1.
         25    2    1    2    0    0  0.70547167866E+02 -0.21179909654E+02  0.13902074917E+03  0.20099699298E+03  0.12509009162E+03 0.  0.
         23    2    1    2    0    0 -0.70547167866E+02  0.21179909654E+02  0.30395437159E+00  0.11839109235E+03  0.92686929459E+02 0.  0.
          5    1    3    3  502    0  0.59318406275E+02 -0.69587685143E+02  0.11072005566E+03  0.14365765685E+03  0.41800000000E+01 0. -1.
         -5    1    3    3    0  502  0.11228761591E+02  0.48407775489E+02  0.28300693512E+02  0.57339336131E+02  0.41800000000E+01 0. -1.
        -11    1    4    4    0    0  0.11250964746E+02 -0.20418648597E+02  0.11406136081E+02  0.25953908348E+02  0.00000000000E+00 0. -1.
         11    1    4    4    0    0 -0.81798132612E+02  0.41598558251E+02 -0.11102181710E+02  0.92437184001E+02  0.00000000000E+00 0.  1.
</event>
<event>
 8    1  0.6945825E-009  0.1537719E+03  0.7561462E-02  0.1195913E+00
          1   -1    0    0  501    0  0.00000000000E+00  0.00000000000E+00  0.66686577603E+03  0.66686577603E+03  0.00000000000E+00 0. -1.
         -1   -1    0    0    0  501 -0.00000000000E+00 -0.00000000000E+00 -0.48486257997E+02  0.48486257997E+02  0.00000000000E+00 0.  1.
         25    2    1    2    0    0 -0.92147026976E+02 -0.95800904416E+02  0.43091479553E+03  0.46797816647E+03  0.12508843037E+03 0.  0.
         23    2    1    2    0    0  0.92147026976E+02  0.95800904416E+02  0.18746472250E+03  0.24737386756E+03  0.91552827933E+02 0.  0.
          5    1    3    3  502    0 -0.15239209916E+02 -0.90290198962E+02  0.14273935474E+03  0.16963652124E+03  0.41800000000E+01 0. -1.
         -5    1    3    3    0  502 -0.76907817060E+02 -0.55107054545E+01  0.28817544079E+03  0.29834164523E+03  0.41800000000E+01 0. -1.
        -11    1    4    4    0    0  0.58702648203E+02  0.85416724827E+02  0.18526493593E+03  0.21228545468E+03  0.00000000000E+00 0. -1.
         11    1    4    4    0    0  0.33444378773E+02  0.10384179589E+02  0.21997865732E+01  0.35088412877E+02  0.00000000000E+00 0.  1.
</event>
<event>
 8    1  0.6945825E-009  0.7294981E+02  0.7561462E-02  0.1350340E+00
         -1   -1    0    0    0  501 -0.00000000000E+00  0.00000000000E+00  0.25868124674E+03  0.25868124674E+03  0.00000000000E+00 0.  1.
          1   -1    0    0  501    0  0.00000000000E+00 -0.00000000000E+00 -0.47728391726E+02  0.47728391726E+02  0.00000000000E+00 0. -1.
         25    2    1    2    0    0  0.16295688899E+02 -0.30731649941E+02  0.10772589423E+03  0.16870830290E+03  0.12509052480E+03 0.  0.
         23    2    1    2    0    0 -0.16295688899E+02  0.30731649941E+02  0.10322696078E+03  0.13770133557E+03  0.84236978813E+02 0.  0.
          5    1    3    3  502    0 -0.95147734540E+01 -0.29347168067E+02 -0.20865445081E+02  0.37478345560E+02  0.41800000000E+01 0. -1.
         -5    1    3    3    0  502  0.25810462353E+02 -0.13844818735E+01  0.12859133931E+03  0.13122995734E+03  0.41800000000E+01 0. -1.
        -11    1    4    4    0    0 -0.85745456338E+01 -0.28032255014E+02  0.50408047487E+02  0.58312103421E+02  0.00000000000E+00 0.  1.
         11    1    4    4    0    0 -0.77211432648E+01  0.58763904954E+02  0.52818913295E+02  0.79389232144E+02  0.00000000000E+00 0. -1.
</event>
<event>
 8    1  0.6945825E-009  0.2054025E+03  0.7561462E-02  0.1145259E+00
         -2   -1    0    0    0  501 -0.00000000000E+00  0.00000000000E+00  0.68419239033E+02  0.68419239033E+02  0.00000000000E+00 0.  1.
          2   -1    0    0  501    0  0.00000000000E+00 -0.00000000000E+00 -0.83396974404E+03  0.83396974404E+03  0.00000000000E+00 0. -1.
         25    2    1    2    0    0  0.16076520716E+03 -0.10061541753E+03 -0.57451994838E+03  0.61780987970E+03  0.12508781831E+03 0.  0.
         23    2    1    2    0    0 -0.16076520716E+03  0.10061541753E+03 -0.19103055663E+03  0.28457910338E+03  0.92323769626E+02 0.  0.
          5    1    3    3  502    0  0.17005797987E+03 -0.62889536056E+02 -0.40354642021E+03  0.44242739057E+03  0.41800000000E+01 0. -1.
         -5    1    3    3    0  502 -0.92927727130E+01 -0.37725881471E+02 -0.17097352817E+03  0.17538248913E+03  0.41800000000E+01 0. -1.
        -11    1    4    4    0    0 -0.10493933537E+03  0.74737004355E+02 -0.64937015826E+02  0.14427300493E+03  0.00000000000E+00 0.  1.
         11    1    4    4    0    0 -0.55825871787E+02  0.25878413171E+02 -0.12609354080E+03  0.14030609845E+03  0.00000000000E+00 0. -1.
</event>
<event>
 8    1  0.6945825E-009  0.1340235E+03  0.7561462E-02  0.1221605E+00
         -2   -1    0    0    0  501 -0.00000000000E+00  0.00000000000E+00  0.76883710689E+02  0.76883710689E+02  0.00000000000E+00 0.  1.
          2   -1    0    0  501    0  0.00000000000E+00 -0.00000000000E+00 -0.34386732012E+03  0.34386732012E+03  0.00000000000E+00 0. -1.
         25    2    1    2    0    0  0.94179453878E+02 -0.39723617475E+02 -0.22679103272E+03  0.27844134290E+03  0.12509066151E+03 0.  0.
         23    2    1    2    0    0 -0.94179453878E+02  0.39723617475E+02 -0.40192576709E+02  0.14230968791E+03  0.90492368360E+02 0.  0.
          5    1    3    3  502    0 -0.24513617926E+02 -0.18368068385E+02 -0.14268558341E+02  0.34049486885E+02  0.41800000000E+01 0.  1.
         -5    1    3    3    0  502  0.11869307180E+03 -0.21355549091E+02 -0.21252247438E+03  0.24439185601E+03  0.41800000000E+01 0.  1.
        -11    1    4    4    0    0 -0.16904024931E+02  0.35204430199E+02  0.20351344769E+02  0.44037202436E+02  0.00000000000E+00 0.  1.
         11    1    4    4    0    0 -0.77275428947E+02  0.45191872764E+01 -0.60543921478E+02  0.98272485470E+02  0.00000000000E+00 0. -1.
</event>
<event>
 8    1  0.6945825E-009  0.1832786E+03  0.7561462E-02  0.1164667E+00
         -1   -1    0    0    0  501 -0.00000000000E+00  0.00000000000E+00  0.49314941745E+03  0.49314941745E+03  0.00000000000E+00 0.  1.
          1   -1    0    0  501    0  0.00000000000E+00 -0.00000000000E+00 -0.71725097282E+02  0.71725097282E+02  0.00000000000E+00 0. -1.
         25    2    1    2    0    0 -0.93878390179E+02 -0.12036764346E+03  0.20167124835E+03  0.28217037076E+03  0.12508918413E+03 0.  0.
         23    2    1    2    0    0  0.93878390179E+02  0.12036764346E+03  0.21975307181E+03  0.28270414397E+03  0.91261704526E+02 0.  0.
          5    1    3    3  502    0 -0.12050113806E+03 -0.78412663955E+02  0.17174363409E+03  0.22401432631E+03  0.41800000000E+01 0.  1.
         -5    1    3    3    0  502  0.26622747881E+02 -0.41954979507E+02  0.29927614261E+02  0.58156044445E+02  0.41800000000E+01 0.  1.
        -11    1    4    4    0    0  0.86190123706E+02  0.45234430979E+02  0.15595433201E+03  0.18383863806E+03  0.00000000000E+00 0. -1.
         11    1    4    4    0    0  0.76882664734E+01  0.75133212483E+02  0.63798739804E+02  0.98865505916E+02  0.00000000000E+00 0.  1.
</event>
<event>
 8    1  0.6945825E-009  0.2366330E+03  0.7561462E-02  0.1122056E+00
          2   -1    0    0  501    0  0.00000000000E+00  0.00000000000E+00  0.38519474091E+03  0.38519474091E+03  0.00000000000E+00 0.  1.
         -2   -1    0    0    0  501 -0.00000000000E+00 -0.00000000000E+00 -0.34217044861E+03  0.34217044861E+03  0.00000000000E+00 0. -1.
         25    2    1    2    0    0  0.16602434723E+03  0.15030614372E+03  0.28634559347E+03  0.38444443223E+03  0.12509077446E+03 0.  0.
         23    2    1    2    0    0 -0.16602434723E+03 -0.15030614372E+03 -0.24332130117E+03  0.34292075729E+03  0.90737916358E+02 0.  0.
          5    1    3    3  502    0  0.60435556459E+02  0.12616132485E+03  0.20800061860E+03  0.25070075012E+03  0.41800000000E+01 0.  1.
         -5    1    3    3    0  502  0.10558879078E+03  0.24144818869E+02  0.78344974869E+02  0.13374368210E+03  0.41800000000E+01 0.  1.
        -11    1    4    4    0    0 -0.27013778473E+02 -0.35625225942E+02 -0.11004929741E+03  0.11878446367E+03  0.00000000000E+00 0. -1.
         11    1    4    4    0    0 -0.13901056876E+03 -0.11468091778E+03 -0.13327200376E+03  0.22413629362E+03  0.00000000000E+00 0.  1.
</event>
<event>
 8    1  0.6945825E-009  0.1050444E+03  0.7561462E-02  0.1270032E+00
         -1   -1    0    0    0  501 -0.00000000000E+00  0.00000000000E+00  0.71883077302E+02  0.71883077302E+02  0.00000000000E+00 0.  1.
          1   -1    0    0  501    0  0.00000000000E+00 -0.00000000000E+00 -0.18181731267E+03  0.18181731267E+03  0.00000000000E+00 0. -1.
         25    2    1    2    0    0 -0.33598611922E+02 -0.91124718301E+01 -0.72268040475E+02  0.14859141364E+03  0.12507931351E+03 0.  0.
         23    2    1    2    0    0  0.33598611922E+02  0.91124718301E+01 -0.37666194891E+02  0.10510897633E+03  0.91745576467E+02 0.  0.
          5    1    3    3  502    0 -0.38619083448E+02 -0.61345768672E+02 -0.60828987058E+02  0.94722621410E+02  0.41800000000E+01 0. -1.
         -5    1    3    3    0  502  0.50204715260E+01  0.52233296842E+02 -0.11439053417E+02  0.53868792230E+02  0.41800000000E+01 0. -1.
        -11    1    4    4    0    0 -0.24439578094E+02  0.10929206836E+02 -0.38670733631E+02  0.47033670695E+02  0.00000000000E+00 0. -1.
         11    1    4    4    0    0  0.58038190016E+02 -0.18167350059E+01  0.10045387400E+01  0.58075305634E+02  0.00000000000E+00 0.  1.
</event>
<event>
 8    1  0.6945825E-009  0.1904326E+03  0.7561462E-02  0.1158072E+00
         -4   -1    0    0    0  501 -0.00000000000E+00  0.00000000000E+00  0.59117927133E+03  0.59117927133E+03  0.00000000000E+00 0.  1.
          4   -1    0    0  501    0  0.00000000000E+00 -0.00000000000E+00 -0.73712882570E+02  0.73712882570E+02  0.00000000000E+00 0. -1.
         25    2    1    2    0    0 -0.80141878628E+02 -0.14622396367E+03  0.17235357492E+03  0.27046748089E+03  0.12507092057E+03 0.  0.
         23    2    1    2    0    0  0.80141878628E+02  0.14622396367E+03  0.34511281384E+03  0.39442467301E+03  0.93079536621E+02 0.  0.
          5    1    3    3  502    0 -0.10552396704E+03 -0.12837950476E+03  0.17193656607E+03  0.23915739590E+03  0.41800000000E+01 0.  1.
         -5    1    3    3    0  502  0.25382088413E+02 -0.17844458909E+02  0.41700885291E+00  0.31310084994E+02  0.41800000000E+01 0.  1.
        -11    1    4    4    0    0  0.92256638380E+02  0.10228452423E+03  0.20412754963E+03  0.24625488369E+03  0.00000000000E+00 0. -1.
         11    1    4    4    0    0 -0.12114759752E+02  0.43939439438E+02  0.14098526421E+03  0.14816978932E+03  0.00000000000E+00 0.  1.
</event>
<event>
 8    1  0.6945825E-009  0.1218064E+03  0.7561462E-02  0.1240146E+00
          2   -1    0    0  501    0  0.00000000000E+00  0.00000000000E+00  0.31452007809E+03  0.31452007809E+03  0.00000000000E+00 0. -1.
         -2   -1    0    0    0  501 -0.00000000000E+00 -0.00000000000E+00 -0.80979601974E+02  0.80979601974E+02  0.00000000000E+00 0.  1.
         25    2    1    2    0    0 -0.83968447614E+02 -0.79822686303E+02  0.12338682237E+03  0.21046090836E+03  0.12508846699E+03 0.  0.
         23    2    1    2    0    0  0.83968447614E+02  0.79822686303E+02  0.11015365375E+03  0.18503877170E+03  0.93183465028E+02 0.  0.
          5    1    3    3  502    0 -0.79021927037E+02 -0.45872046104E+02  0.10104488388E+02  0.92023272339E+02  0.41800000000E+01 0. -1.
         -5    1    3    3    0  502 -0.49465205769E+01 -0.33950640199E+02  0.11328233398E+03  0.11843763603E+03  0.41800000000E+01 0. -1.
        -11    1    4    4    0    0  0.53826099975E+02  0.63711954665E+02  0.16069819593E+02  0.84939397853E+02  0.00000000000E+00 0.  1.
         11    1    4    4    0    0  0.30142347638E+02  0.16110731638E+02  0.94083834158E+02  0.10009937385E+03  0.00000000000E+00 0. -1.
</event>
<event>
 8    1  0.6945825E-009  0.7662915E+02  0.7561462E-02  0.1338899E+00
          2   -1    0    0  501    0  0.00000000000E+00  0.00000000000E+00  0.22621400089E+03  0.22621400089E+03  0.00000000000E+00 0. -1.
         -2   -1    0    0    0  501 -0.00000000000E+00 -0.00000000000E+00 -0.73194283502E+02  0.73194283502E+02  0.00000000000E+00 0.  1.
         25    2    1    2    0    0  0.67410033079E+02  0.11656304943E+02  0.83448562412E+02  0.16519433242E+03  0.12508206462E+03 0.  0.
         23    2    1    2    0    0 -0.67410033079E+02 -0.11656304943E+02  0.69571154972E+02  0.13421395197E+03  0.92158869867E+02 0.  0.
          5    1    3    3  502    0  0.28739772931E+02 -0.11816263494E+02  0.10876023758E+03  0.11318948852E+03  0.41800000000E+01 0.  1.
         -5    1    3    3    0  502  0.38670260148E+02  0.23472568437E+02 -0.25311675173E+02  0.52004843899E+02  0.41800000000E+01 0.  1.
        -11    1    4    4    0    0 -0.80568190695E+01  0.10400359929E+02 -0.20352354707E+02  0.24234235335E+02  0.00000000000E+00 0.  1.
         11    1    4    4    0    0 -0.59353214010E+02 -0.22056664873E+02  0.89923509679E+02  0.10997971664E+03  0.00000000000E+00 0. -1.
</event>
<event>
 8    1  0.6945825E-009  0.1439276E+03  0.7561462E-02  0.1208140E+00
          1   -1    0    0  501    0  0.00000000000E+00  0.00000000000E+00  0.47296415563E+02  0.47296415563E+02  0.00000000000E+00 0. -1.
         -1   -1    0    0    0  501 -0.00000000000E+00 -0.00000000000E+00 -0.54544632541E+03  0.54544632541E+03  0.00000000000E+00 0.  1.
         25    2    1    2    0    0 -0.42343911177E+02  0.10900152517E+03 -0.22847329145E+03  0.28552251314E+03  0.12509484922E+03 0.  0.
         23    2    1    2    0    0  0.42343911177E+02 -0.10900152517E+03 -0.26967661840E+03  0.30722022783E+03  0.89355752882E+02 0.  0.
          5    1    3    3  502    0 -0.42592322598E+02  0.13481477584E+03 -0.16785303941E+03  0.21950226643E+03  0.41800000000E+01 0.  1.
         -5    1    3    3    0  502  0.24841142116E+00 -0.25813250669E+02 -0.60620252038E+02  0.66020246709E+02  0.41800000000E+01 0.  1.
        -11    1    4    4    0    0  0.20498247572E+02 -0.20082048335E+02 -0.16782893028E+03  0.17026454903E+03  0.00000000000E+00 0.  1.
         11    1    4    4    0    0  0.21845663605E+02 -0.88919476839E+02 -0.10184768812E+03  0.13695567880E+03  0.00000000000E+00 0. -1.
</event>
<event>
 8    1  0.6945825E-009  0.1116813E+03  0.7561462E-02  0.1257488E+00
         -1   -1    0    0    0  501 -0.00000000000E+00  0.00000000000E+00  0.57148280729E+03  0.57148280729E+03  0.00000000000E+00 0.  1.
          1   -1    0    0  501    0  0.00000000000E+00 -0.00000000000E+00 -0.24608805967E+02  0.24608805967E+02  0.00000000000E+00 0. -1.
         25    2    1    2    0    0 -0.47796374268E+02  0.72209329897E+01  0.27340681005E+03  0.30452568128E+03  0.12509185229E+03 0.  0.
         23    2    1    2    0    0  0.47796374268E+02 -0.72209329897E+01  0.27346719127E+03  0.29156593198E+03  0.88824280030E+02 0.  0.
          5    1    3    3  502    0 -0.65757754062E+02  0.45667466765E+02  0.23045981677E+03  0.24400573617E+03  0.41800000000E+01 0.  1.
         -5    1    3    3    0  502  0.17961379794E+02 -0.38446533776E+02  0.42946993283E+02  0.60519945105E+02  0.41800000000E+01 0.  1.
        -11    1    4    4    0    0  0.63315321443E+02  0.22360644679E+02  0.16749533373E+03  0.18045363721E+03  0.00000000000E+00 0. -1.
         11    1    4    4    0    0 -0.15518947175E+02 -0.29581577669E+02  0.10597185755E+03  0.11111229478E+03  0.00000000000E+00 0.  1.
</event>
<event>
 8    1  0.6945825E-009  0.9472027E+02  0.7561462E-02  0.1291807E+00
          2   -1    0    0  501    0  0.00000000000E+00  0.00000000000E+00  0.31723450244E+03  0.31723450244E+03  0.00000000000E+00 0. -1.
         -2   -1    0    0    0  501 -0.00000000000E+00 -0.00000000000E+00 -0.56561198052E+02  0.56561198052E+02  0.00000000000E+00 0.  1.
         25    2    1    2    0    0  0.77150607584E+02 -0.11908232038E+02  0.12352772515E+03  0.19235495843E+03  0.12508920381E+03 0.  0.
         23    2    1    2    0    0 -0.77150607584E+02  0.11908232038E+02  0.13714557924E+03  0.18144074206E+03  0.89542228785E+02 0.  0.
          5    1    3    3  502    0  0.34345625871E+02 -0.57234298565E+01  0.14116864718E+03  0.14545940675E+03  0.41800000000E+01 0. -1.
         -5    1    3    3    0  502  0.42804981713E+02 -0.61848021818E+01 -0.17640922025E+02  0.46895551680E+02  0.41800000000E+01 0. -1.
        -11    1    4    4    0    0 -0.22260376873E+02  0.42575752715E+02  0.28355467662E+02  0.55787558148E+02  0.00000000000E+00 0. -1.
         11    1    4    4    0    0 -0.54890230710E+02 -0.30667520676E+02  0.10879011158E+03  0.12565318392E+03  0.00000000000E+00 0.  1.
</event>
